
     Program PWSCF v.7.2 starts on 23Oct2023 at  0: 8:31 

     This program is part of the open-source Quantum ESPRESSO suite
     for quantum simulation of materials; please cite
         "P. Giannozzi et al., J. Phys.:Condens. Matter 21 395502 (2009);
         "P. Giannozzi et al., J. Phys.:Condens. Matter 29 465901 (2017);
         "P. Giannozzi et al., J. Chem. Phys. 152 154105 (2020);
          URL http://www.quantum-espresso.org", 
     in publications or presentations arising from this work. More details at
     http://www.quantum-espresso.org/quote

     Parallel version (MPI & OpenMP), running on      12 processor cores
     Number of MPI processes:                 1
     Threads/MPI process:                    12

     MPI processes distributed on     1 nodes
     60382 MiB available memory on the printing compute node when the environment starts
 
     Reading input from aiida.in

     Current dimensions of program PWSCF are:
     Max number of different atomic species (ntypx) = 10
     Max number of k-points (npk) =  40000
     Max angular momentum in pseudopotentials (lmaxx) =  4
     file Ba.pbesol-spn-kjpaw_psl.1.0.0.UPF: wavefunction(s)  5S 6S renormalized
     file In.pbesol-dn-rrkjus_psl.0.2.2.UPF: wavefunction(s)  5S renormalized
     Message from routine setup:
     using ibrav=0 with symmetry is DISCOURAGED, use correct ibrav instead
 
     Subspace diagonalization in iterative solution of the eigenvalue problem:
     a serial algorithm will be used

 
     G-vector sticks info
     --------------------
     sticks:   dense  smooth     PW     G-vecs:    dense   smooth      PW
     Sum        6597    3299    981               522179   184665   30133
 
     Using Slab Decomposition
 


     bravais-lattice index     =            0
     lattice parameter (alat)  =      19.4505  a.u.
     unit-cell volume          =    3865.0782 (a.u.)^3
     number of atoms/cell      =           13
     number of atomic types    =            2
     number of electrons       =       142.00
     number of Kohn-Sham states=           85
     kinetic-energy cutoff     =      50.0000  Ry
     charge density cutoff     =     400.0000  Ry
     scf convergence threshold =      2.6E-09
     mixing beta               =       0.4000
     number of iterations used =            8  plain     mixing
     Exchange-correlation= PBESOL
                           (   1   4  10   8   0   0   0)

     GPU acceleration is ACTIVE.


     GPU used by master process:

        Device Number: 0
        Device name: Tesla P100-PCIE-16GB
        Compute capability : 60
        Ratio of single to double precision performance  : 2
        Memory Clock Rate (KHz): 715000
        Memory Bus Width (bits): 4096
        Peak Memory Bandwidth (GB/s): 732.16

     celldm(1)=  19.450459  celldm(2)=   0.000000  celldm(3)=   0.000000
     celldm(4)=   0.000000  celldm(5)=   0.000000  celldm(6)=   0.000000

     crystal axes: (cart. coord. in units of alat)
               a(1) = (  -0.677565   0.677565   0.286027 )  
               a(2) = (   0.677565  -0.677565   0.286027 )  
               a(3) = (   0.677565   0.677565  -0.286027 )  

     reciprocal axes: (cart. coord. in units 2 pi/alat)
               b(1) = ( -0.000000  0.737937  1.748088 )  
               b(2) = (  0.737937 -0.000000  1.748088 )  
               b(3) = (  0.737937  0.737937  0.000000 )  


     PseudoPot. # 1 for Ba read from file:
     ./pseudo/Ba.pbesol-spn-kjpaw_psl.1.0.0.UPF
     MD5 check sum: f28c4a63d325c1a0d00fd3a4f19b8d73
     Pseudo is Projector augmented-wave + core cor, Zval = 10.0
     Generated using "atomic" code by A. Dal Corso  v.6.0 svn rev. 13079
     Shape of augmentation charge: PSQ
     Using radial grid of 1251 points,  7 beta functions with: 
                l(1) =   0
                l(2) =   0
                l(3) =   0
                l(4) =   1
                l(5) =   1
                l(6) =   2
                l(7) =   2
     Q(r) pseudized with 0 coefficients 


     PseudoPot. # 2 for In read from file:
     ./pseudo/In.pbesol-dn-rrkjus_psl.0.2.2.UPF
     MD5 check sum: 2a3399a31491503da6b8c7d8e01e9843
     Pseudo is Ultrasoft + core correction, Zval = 13.0
     Generated using "atomic" code by A. Dal Corso  v.6.0 svn rev. 13079
     Using radial grid of 1241 points,  6 beta functions with: 
                l(1) =   0
                l(2) =   0
                l(3) =   1
                l(4) =   1
                l(5) =   2
                l(6) =   2
     Q(r) pseudized with 0 coefficients 


     atomic species   valence    mass     pseudopotential
        Ba            10.00   137.32700     Ba( 1.00)
        In            13.00   114.81800     In( 1.00)

     Starting magnetic structure 
     atomic species   magnetization
        Ba           0.100
        In           0.100

      8 Sym. Ops., with inversion, found


                                    s                        frac. trans.

      isym =  1     identity                                     

 cryst.   s( 1) = (     1          0          0      )
                  (     0          1          0      )
                  (     0          0          1      )

 cart.    s( 1) = (  1.0000000  0.0000000  0.0000000 )
                  (  0.0000000  1.0000000 -0.0000000 )
                  (  0.0000000  0.0000000  1.0000000 )


      isym =  2     180 deg rotation - cart. axis [0,0,1]        

 cryst.   s( 2) = (     0          1          0      )
                  (     1          0          0      )
                  (    -1         -1         -1      )

 cart.    s( 2) = ( -1.0000000 -0.0000000  0.0000000 )
                  ( -0.0000000 -1.0000000 -0.0000000 )
                  ( -0.0000000 -0.0000000  1.0000000 )


      isym =  3      90 deg rotation - cart. axis [0,0,-1]       

 cryst.   s( 3) = (     1          1          1      )
                  (     0          0         -1      )
                  (    -1          0          0      )

 cart.    s( 3) = ( -0.0000000  1.0000000  0.0000000 )
                  ( -1.0000000  0.0000000 -0.0000000 )
                  ( -0.0000000  0.0000000  1.0000000 )


      isym =  4      90 deg rotation - cart. axis [0,0,1]        

 cryst.   s( 4) = (     0          0         -1      )
                  (     1          1          1      )
                  (     0         -1          0      )

 cart.    s( 4) = (  0.0000000 -1.0000000  0.0000000 )
                  (  1.0000000 -0.0000000 -0.0000000 )
                  (  0.0000000 -0.0000000  1.0000000 )


      isym =  5     inversion                                    

 cryst.   s( 5) = (    -1          0          0      )
                  (     0         -1          0      )
                  (     0          0         -1      )

 cart.    s( 5) = ( -1.0000000 -0.0000000 -0.0000000 )
                  ( -0.0000000 -1.0000000  0.0000000 )
                  ( -0.0000000 -0.0000000 -1.0000000 )


      isym =  6     inv. 180 deg rotation - cart. axis [0,0,1]   

 cryst.   s( 6) = (     0         -1          0      )
                  (    -1          0          0      )
                  (     1          1          1      )

 cart.    s( 6) = (  1.0000000  0.0000000 -0.0000000 )
                  (  0.0000000  1.0000000  0.0000000 )
                  (  0.0000000  0.0000000 -1.0000000 )


      isym =  7     inv.  90 deg rotation - cart. axis [0,0,-1]  

 cryst.   s( 7) = (    -1         -1         -1      )
                  (     0          0          1      )
                  (     1          0          0      )

 cart.    s( 7) = (  0.0000000 -1.0000000 -0.0000000 )
                  (  1.0000000 -0.0000000  0.0000000 )
                  (  0.0000000 -0.0000000 -1.0000000 )


      isym =  8     inv.  90 deg rotation - cart. axis [0,0,1]   

 cryst.   s( 8) = (     0          0          1      )
                  (    -1         -1         -1      )
                  (     0          1          0      )

 cart.    s( 8) = ( -0.0000000  1.0000000 -0.0000000 )
                  ( -1.0000000  0.0000000  0.0000000 )
                  ( -0.0000000  0.0000000 -1.0000000 )


   Cartesian axes

     site n.     atom                  positions (alat units)
         1           Ba  tau(   1) = (   0.1653259   0.5308044   0.2860269  )
         2           Ba  tau(   2) = (   0.1467606   0.8428908  -0.0000000  )
         3           Ba  tau(   3) = (   1.1898041   0.8243256   0.2860269  )
         4           Ba  tau(   4) = (   1.2083694   0.5122391   0.0000000  )
         5           Ba  tau(   5) = (   0.9256893   0.8245966   0.0000000  )
         6           Ba  tau(   6) = (   1.2080984   0.2481243   0.2860269  )
         7           Ba  tau(   7) = (   0.4294407   0.5305334  -0.0000000  )
         8           Ba  tau(   8) = (   0.1470316   1.1070057   0.2860269  )
         9           Ba  tau(   9) = (   0.0000000   0.0000000   0.0000000  )
        10           In  tau(  10) = (   1.2201590   1.0338287   0.0000000  )
        11           In  tau(  11) = (   0.9988663   0.5425940   0.2860269  )
        12           In  tau(  12) = (   0.1349709   0.3213013   0.0000000  )
        13           In  tau(  13) = (   0.3562637   0.8125359   0.2860269  )

   Crystallographic axes

     site n.     atom                  positions (cryst. coord.)
         1           Ba  tau(   1) = (  0.8917000  0.6220000  0.5137000  )
         2           Ba  tau(   2) = (  0.6220000  0.1083000  0.7303000  )
         3           Ba  tau(   3) = (  1.1083000  1.3780000  1.4863000  )
         4           Ba  tau(   4) = (  0.3780000  0.8917000  1.2697000  )
         5           Ba  tau(   5) = (  0.6085000  0.6831000  1.2916000  )
         6           Ba  tau(   6) = (  0.6831000  1.3915000  1.0746000  )
         7           Ba  tau(   7) = (  0.3915000  0.3169000  0.7084000  )
         8           Ba  tau(   8) = (  1.3169000  0.6085000  0.9254000  )
         9           Ba  tau(   9) = (  0.0000000  0.0000000  0.0000000  )
        10           In  tau(  10) = (  0.7629000  0.9004000  1.6633000  )
        11           In  tau(  11) = (  0.9004000  1.2371000  1.1375000  )
        12           In  tau(  12) = (  0.2371000  0.0996000  0.3367000  )
        13           In  tau(  13) = (  1.0996000  0.7629000  0.8625000  )

     number of k points=    78  Marzari-Vanderbilt smearing, width (Ry)=  0.0100
                       cart. coord. in units 2pi/alat
        k(    1) = (   0.0000000   0.0000000   0.0000000), wk =   0.0019531
        k(    2) = (   0.0922421   0.0922421   0.0000000), wk =   0.0078125
        k(    3) = (   0.1844841   0.1844841   0.0000000), wk =   0.0078125
        k(    4) = (   0.2767262   0.2767262   0.0000000), wk =   0.0078125
        k(    5) = (  -0.3689683  -0.3689683  -0.0000000), wk =   0.0039063
        k(    6) = (   0.0922421  -0.0000000   0.2185109), wk =   0.0156250
        k(    7) = (   0.1844841   0.0922421   0.2185109), wk =   0.0156250
        k(    8) = (   0.2767262   0.1844841   0.2185109), wk =   0.0156250
        k(    9) = (   0.3689683   0.2767262   0.2185109), wk =   0.0156250
        k(   10) = (   0.1844841  -0.0000000   0.4370219), wk =   0.0156250
        k(   11) = (   0.2767262   0.0922421   0.4370219), wk =   0.0156250
        k(   12) = (   0.3689683   0.1844841   0.4370219), wk =   0.0156250
        k(   13) = (   0.4612104   0.2767262   0.4370219), wk =   0.0156250
        k(   14) = (   0.0922421  -0.0922421   0.4370219), wk =   0.0156250
        k(   15) = (   0.2767262  -0.0000000   0.6555328), wk =   0.0156250
        k(   16) = (   0.3689683   0.0922421   0.6555328), wk =   0.0156250
        k(   17) = (   0.4612104   0.1844841   0.6555328), wk =   0.0156250
        k(   18) = (   0.0922421  -0.1844841   0.6555328), wk =   0.0156250
        k(   19) = (  -0.3689683   0.0000000  -0.8740438), wk =   0.0078125
        k(   20) = (  -0.2767262   0.0922421  -0.8740438), wk =   0.0156250
        k(   21) = (  -0.1844841   0.1844841  -0.8740438), wk =   0.0156250
        k(   22) = (   0.1844841   0.1844841   0.4370219), wk =   0.0156250
        k(   23) = (   0.2767262   0.2767262   0.4370219), wk =   0.0156250
        k(   24) = (   0.3689683   0.3689683   0.4370219), wk =   0.0078125
        k(   25) = (   0.0000000   0.0000000   0.4370219), wk =   0.0039063
        k(   26) = (   0.2767262   0.1844841   0.6555328), wk =   0.0156250
        k(   27) = (   0.3689683   0.2767262   0.6555328), wk =   0.0156250
        k(   28) = (   0.0000000  -0.0922421   0.6555328), wk =   0.0156250
        k(   29) = (   0.3689683   0.1844841   0.8740438), wk =   0.0156250
        k(   30) = (   0.4612104   0.2767262   0.8740438), wk =   0.0156250
        k(   31) = (   0.0000000  -0.1844841   0.8740438), wk =   0.0156250
        k(   32) = (   0.0922421  -0.0922421   0.8740438), wk =   0.0156250
        k(   33) = (  -0.7379366  -0.2767262  -0.6555328), wk =   0.0156250
        k(   34) = (  -0.6456945  -0.1844841  -0.6555328), wk =   0.0156250
        k(   35) = (  -0.0000000   0.3689683  -0.4370219), wk =   0.0156250
        k(   36) = (  -0.6456945  -0.2767262  -0.4370219), wk =   0.0156250
        k(   37) = (  -0.5534524  -0.1844841  -0.4370219), wk =   0.0156250
        k(   38) = (   0.0000000   0.2767262  -0.2185109), wk =   0.0156250
        k(   39) = (   0.0922421   0.3689683  -0.2185109), wk =   0.0156250
        k(   40) = (  -0.5534524  -0.2767262  -0.2185109), wk =   0.0156250
        k(   41) = (   0.0000000   0.1844841   0.0000000), wk =   0.0078125
        k(   42) = (   0.0922421   0.2767262   0.0000000), wk =   0.0078125
        k(   43) = (   0.1844841   0.3689683   0.0000000), wk =   0.0078125
        k(   44) = (  -0.4612104  -0.2767262  -0.0000000), wk =   0.0078125
        k(   45) = (   0.3689683   0.3689683   0.8740438), wk =   0.0039063
        k(   46) = (   0.0000000   0.0000000   0.8740438), wk =   0.0039063
        k(   47) = (   0.0000000  -0.0922421   1.0925547), wk =   0.0156250
        k(   48) = (  -0.7379366  -0.1844841  -0.4370219), wk =   0.0156250
        k(   49) = (  -0.6456945  -0.0922421  -0.4370219), wk =   0.0156250
        k(   50) = (  -0.0000000   0.4612104  -0.2185109), wk =   0.0156250
        k(   51) = (  -0.6456945  -0.1844841  -0.2185109), wk =   0.0156250
        k(   52) = (   0.0000000   0.3689683   0.0000000), wk =   0.0078125
        k(   53) = (   0.0922421   0.4612104   0.0000000), wk =   0.0078125
        k(   54) = (  -0.5534524  -0.1844841  -0.0000000), wk =   0.0078125
        k(   55) = (   0.0000000   0.0000000   1.3110657), wk =   0.0039063
        k(   56) = (  -0.7379366  -0.0922421  -0.2185109), wk =   0.0156250
        k(   57) = (  -0.0000000   0.5534524   0.0000000), wk =   0.0078125
        k(   58) = (  -0.6456945  -0.0922421  -0.0000000), wk =   0.0078125
        k(   59) = (  -0.7379366  -0.7379366  -1.7480876), wk =   0.0019531
        k(   60) = (   0.0922421   0.1844841  -0.2185109), wk =   0.0156250
        k(   61) = (   0.1844841   0.2767262  -0.2185109), wk =   0.0156250
        k(   62) = (   0.2767262   0.3689683  -0.2185109), wk =   0.0156250
        k(   63) = (   0.0922421   0.2767262  -0.4370219), wk =   0.0156250
        k(   64) = (   0.1844841   0.3689683  -0.4370219), wk =   0.0156250
        k(   65) = (   0.0922421   0.3689683  -0.6555328), wk =   0.0156250
        k(   66) = (   0.1844841   0.4612104  -0.6555328), wk =   0.0156250
        k(   67) = (  -0.1844841   0.0922421  -0.6555328), wk =   0.0156250
        k(   68) = (   0.0922421  -0.2767262   0.8740438), wk =   0.0156250
        k(   69) = (   0.1844841   0.2767262  -0.6555328), wk =   0.0156250
        k(   70) = (   0.2767262   0.3689683  -0.6555328), wk =   0.0156250
        k(   71) = (  -0.1844841  -0.6456945   0.6555328), wk =   0.0156250
        k(   72) = (  -0.2767262  -0.6456945   0.4370219), wk =   0.0156250
        k(   73) = (   0.3689683   0.0922421   0.2185109), wk =   0.0156250
        k(   74) = (  -0.2767262  -0.5534524   0.2185109), wk =   0.0156250
        k(   75) = (   0.2767262   0.0922421   0.0000000), wk =   0.0078125
        k(   76) = (   0.3689683   0.1844841   0.0000000), wk =   0.0078125
        k(   77) = (  -0.1844841  -0.6456945   0.2185109), wk =   0.0156250
        k(   78) = (   0.4612104   0.0922421   0.0000000), wk =   0.0078125

                       cryst. coord.
        k(    1) = (   0.0000000   0.0000000   0.0000000), wk =   0.0019531
        k(    2) = (   0.0000000  -0.0000000   0.1250000), wk =   0.0078125
        k(    3) = (   0.0000000  -0.0000000   0.2500000), wk =   0.0078125
        k(    4) = (  -0.0000000   0.0000000   0.3750000), wk =   0.0078125
        k(    5) = (  -0.0000000   0.0000000  -0.5000000), wk =   0.0039063
        k(    6) = (  -0.0000000   0.1250000   0.0000000), wk =   0.0156250
        k(    7) = (  -0.0000000   0.1250000   0.1250000), wk =   0.0156250
        k(    8) = (  -0.0000000   0.1250000   0.2500000), wk =   0.0156250
        k(    9) = (   0.0000000   0.1250000   0.3750000), wk =   0.0156250
        k(   10) = (  -0.0000000   0.2500000   0.0000000), wk =   0.0156250
        k(   11) = (  -0.0000000   0.2500000   0.1250000), wk =   0.0156250
        k(   12) = (  -0.0000000   0.2500000   0.2500000), wk =   0.0156250
        k(   13) = (   0.0000000   0.2500000   0.3750000), wk =   0.0156250
        k(   14) = (  -0.0000000   0.2500000  -0.1250000), wk =   0.0156250
        k(   15) = (  -0.0000000   0.3750000   0.0000000), wk =   0.0156250
        k(   16) = (  -0.0000000   0.3750000   0.1250000), wk =   0.0156250
        k(   17) = (  -0.0000000   0.3750000   0.2500000), wk =   0.0156250
        k(   18) = (  -0.0000000   0.3750000  -0.2500000), wk =   0.0156250
        k(   19) = (   0.0000000  -0.5000000  -0.0000000), wk =   0.0078125
        k(   20) = (   0.0000000  -0.5000000   0.1250000), wk =   0.0156250
        k(   21) = (   0.0000000  -0.5000000   0.2500000), wk =   0.0156250
        k(   22) = (   0.1250000   0.1250000   0.1250000), wk =   0.0156250
        k(   23) = (   0.1250000   0.1250000   0.2500000), wk =   0.0156250
        k(   24) = (   0.1250000   0.1250000   0.3750000), wk =   0.0078125
        k(   25) = (   0.1250000   0.1250000  -0.1250000), wk =   0.0039063
        k(   26) = (   0.1250000   0.2500000   0.1250000), wk =   0.0156250
        k(   27) = (   0.1250000   0.2500000   0.2500000), wk =   0.0156250
        k(   28) = (   0.1250000   0.2500000  -0.2500000), wk =   0.0156250
        k(   29) = (   0.1250000   0.3750000   0.1250000), wk =   0.0156250
        k(   30) = (   0.1250000   0.3750000   0.2500000), wk =   0.0156250
        k(   31) = (   0.1250000   0.3750000  -0.3750000), wk =   0.0156250
        k(   32) = (   0.1250000   0.3750000  -0.2500000), wk =   0.0156250
        k(   33) = (   0.1250000  -0.5000000  -0.5000000), wk =   0.0156250
        k(   34) = (   0.1250000  -0.5000000  -0.3750000), wk =   0.0156250
        k(   35) = (   0.1250000  -0.3750000   0.3750000), wk =   0.0156250
        k(   36) = (   0.1250000  -0.3750000  -0.5000000), wk =   0.0156250
        k(   37) = (   0.1250000  -0.3750000  -0.3750000), wk =   0.0156250
        k(   38) = (   0.1250000  -0.2500000   0.2500000), wk =   0.0156250
        k(   39) = (   0.1250000  -0.2500000   0.3750000), wk =   0.0156250
        k(   40) = (   0.1250000  -0.2500000  -0.5000000), wk =   0.0156250
        k(   41) = (   0.1250000  -0.1250000   0.1250000), wk =   0.0078125
        k(   42) = (   0.1250000  -0.1250000   0.2500000), wk =   0.0078125
        k(   43) = (   0.1250000  -0.1250000   0.3750000), wk =   0.0078125
        k(   44) = (   0.1250000  -0.1250000  -0.5000000), wk =   0.0078125
        k(   45) = (   0.2500000   0.2500000   0.2500000), wk =   0.0039063
        k(   46) = (   0.2500000   0.2500000  -0.2500000), wk =   0.0039063
        k(   47) = (   0.2500000   0.3750000  -0.3750000), wk =   0.0156250
        k(   48) = (   0.2500000  -0.5000000  -0.5000000), wk =   0.0156250
        k(   49) = (   0.2500000  -0.5000000  -0.3750000), wk =   0.0156250
        k(   50) = (   0.2500000  -0.3750000   0.3750000), wk =   0.0156250
        k(   51) = (   0.2500000  -0.3750000  -0.5000000), wk =   0.0156250
        k(   52) = (   0.2500000  -0.2500000   0.2500000), wk =   0.0078125
        k(   53) = (   0.2500000  -0.2500000   0.3750000), wk =   0.0078125
        k(   54) = (   0.2500000  -0.2500000  -0.5000000), wk =   0.0078125
        k(   55) = (   0.3750000   0.3750000  -0.3750000), wk =   0.0039063
        k(   56) = (   0.3750000  -0.5000000  -0.5000000), wk =   0.0156250
        k(   57) = (   0.3750000  -0.3750000   0.3750000), wk =   0.0078125
        k(   58) = (   0.3750000  -0.3750000  -0.5000000), wk =   0.0078125
        k(   59) = (  -0.5000000  -0.5000000  -0.5000000), wk =   0.0019531
        k(   60) = (   0.0000000  -0.1250000   0.2500000), wk =   0.0156250
        k(   61) = (   0.0000000  -0.1250000   0.3750000), wk =   0.0156250
        k(   62) = (  -0.0000000  -0.1250000   0.5000000), wk =   0.0156250
        k(   63) = (   0.0000000  -0.2500000   0.3750000), wk =   0.0156250
        k(   64) = (   0.0000000  -0.2500000   0.5000000), wk =   0.0156250
        k(   65) = (   0.0000000  -0.3750000   0.5000000), wk =   0.0156250
        k(   66) = (   0.0000000  -0.3750000   0.6250000), wk =   0.0156250
        k(   67) = (   0.0000000  -0.3750000   0.1250000), wk =   0.0156250
        k(   68) = (  -0.0000000   0.5000000  -0.3750000), wk =   0.0156250
        k(   69) = (  -0.1250000  -0.2500000   0.5000000), wk =   0.0156250
        k(   70) = (  -0.1250000  -0.2500000   0.6250000), wk =   0.0156250
        k(   71) = (  -0.1250000   0.5000000  -0.7500000), wk =   0.0156250
        k(   72) = (  -0.1250000   0.3750000  -0.7500000), wk =   0.0156250
        k(   73) = (  -0.1250000   0.2500000   0.2500000), wk =   0.0156250
        k(   74) = (  -0.1250000   0.2500000  -0.6250000), wk =   0.0156250
        k(   75) = (  -0.1250000   0.1250000   0.2500000), wk =   0.0078125
        k(   76) = (  -0.1250000   0.1250000   0.3750000), wk =   0.0078125
        k(   77) = (  -0.2500000   0.3750000  -0.6250000), wk =   0.0156250
        k(   78) = (  -0.2500000   0.2500000   0.3750000), wk =   0.0078125

     Dense  grid:   522179 G-vectors     FFT dimensions: ( 125, 125, 125)

     Smooth grid:   184665 G-vectors     FFT dimensions: (  90,  90,  90)

     Dynamical RAM for                 wfc:      29.93 MB

     Dynamical RAM for     wfc (w. buffer):    4698.93 MB

     Dynamical RAM for           str. fact:      15.94 MB

     Dynamical RAM for           local pot:       0.00 MB

     Dynamical RAM for          nlocal pot:      85.56 MB

     Dynamical RAM for                qrad:       4.28 MB

     Dynamical RAM for          rho,v,vnew:     137.21 MB

     Dynamical RAM for               rhoin:      45.74 MB

     Dynamical RAM for            rho*nmix:     254.97 MB

     Dynamical RAM for           G-vectors:      31.29 MB

     Dynamical RAM for          h,s,v(r/c):       1.32 MB

     Dynamical RAM for          <psi|beta>:       0.32 MB

     Dynamical RAM for                 psi:      59.86 MB

     Dynamical RAM for                hpsi:      59.86 MB

     Dynamical RAM for                spsi:      59.86 MB

     Dynamical RAM for      wfcinit/wfcrot:      60.03 MB

     Dynamical RAM for           addusdens:    1713.08 MB

     Dynamical RAM for          addusforce:    1840.64 MB

     Dynamical RAM for         addusstress:    1764.87 MB

     Estimated static dynamical RAM per process >       5.01 GB

     Estimated max dynamical RAM per process >       7.06 GB
     Generating pointlists ...
     new r_m :   0.1404 (alat units)  2.7306 (a.u.) for type    1
     new r_m :   0.1404 (alat units)  2.7306 (a.u.) for type    2

     Initial potential from superposition of free atoms

     starting charge     141.8455, renormalised to     142.0000
     Starting wfcs are   81 randomized atomic wfcs +    4 random wfcs
     Checking if some PAW data can be deallocated... 

     total cpu time spent up to now is       21.2 secs

     per-process dynamical memory:  1624.6 Mb

     Self-consistent Calculation
[tb_dev] Currently allocated     2.68E+01 Mbytes, locked:    0 /  15
[tb_pin] Currently allocated     0.00E+00 Mbytes, locked:    0 /   0

     iteration #  1     ecut=    50.00 Ry     beta= 0.40
     Davidson diagonalization with overlap

---- Real-time Memory Report at c_bands before calling an iterative solver
          6468 MiB given to the printing process from OS
          1637 MiB allocation reported by mallinfo(arena+hblkhd)
         53189 MiB available memory on the node where the printing process lives
     GPU memory used/free/total (MiB): 2232 / 14048 / 16280
------------------
     ethr =  1.00E-02,  avg # of iterations =  7.8

     negative rho (up, down):  3.710E+00 9.269E-01

     total cpu time spent up to now is       69.2 secs

     total energy              =   -4445.10588982 Ry
     estimated scf accuracy    <      41.16666500 Ry

     total magnetization       =     2.70 Bohr mag/cell
     absolute magnetization    =    33.40 Bohr mag/cell
[tb_dev] Currently allocated     2.68E+01 Mbytes, locked:    0 /  13
[tb_pin] Currently allocated     0.00E+00 Mbytes, locked:    0 /   0

     iteration #  2     ecut=    50.00 Ry     beta= 0.40
     Davidson diagonalization with overlap

---- Real-time Memory Report at c_bands before calling an iterative solver
          6763 MiB given to the printing process from OS
          1770 MiB allocation reported by mallinfo(arena+hblkhd)
         53049 MiB available memory on the node where the printing process lives
     GPU memory used/free/total (MiB): 5134 / 11146 / 16280
------------------
     ethr =  1.00E-02,  avg # of iterations =  1.5

     negative rho (up, down):  6.707E+00 1.848E+00

     total cpu time spent up to now is       99.1 secs

     total energy              =   -4444.69380773 Ry
     estimated scf accuracy    <      11.87640850 Ry

     total magnetization       =     2.75 Bohr mag/cell
     absolute magnetization    =    28.91 Bohr mag/cell
[tb_dev] Currently allocated     2.68E+01 Mbytes, locked:    0 /  13
[tb_pin] Currently allocated     0.00E+00 Mbytes, locked:    0 /   0

     iteration #  3     ecut=    50.00 Ry     beta= 0.40
     Davidson diagonalization with overlap

---- Real-time Memory Report at c_bands before calling an iterative solver
          6860 MiB given to the printing process from OS
          1811 MiB allocation reported by mallinfo(arena+hblkhd)
         53010 MiB available memory on the node where the printing process lives
     GPU memory used/free/total (MiB): 5134 / 11146 / 16280
------------------
     ethr =  8.36E-03,  avg # of iterations =  2.5

     negative rho (up, down):  5.493E+00 1.815E+00

     total cpu time spent up to now is      130.9 secs

     total energy              =   -4444.64560694 Ry
     estimated scf accuracy    <      11.33007988 Ry

     total magnetization       =     1.43 Bohr mag/cell
     absolute magnetization    =     8.81 Bohr mag/cell
[tb_dev] Currently allocated     2.68E+01 Mbytes, locked:    0 /  13
[tb_pin] Currently allocated     0.00E+00 Mbytes, locked:    0 /   0

     iteration #  4     ecut=    50.00 Ry     beta= 0.40
     Davidson diagonalization with overlap

---- Real-time Memory Report at c_bands before calling an iterative solver
          6898 MiB given to the printing process from OS
          1847 MiB allocation reported by mallinfo(arena+hblkhd)
         52969 MiB available memory on the node where the printing process lives
     GPU memory used/free/total (MiB): 5134 / 11146 / 16280
------------------
     ethr =  7.98E-03,  avg # of iterations =  1.5

     negative rho (up, down):  5.114E+00 1.855E+00

     total cpu time spent up to now is      161.0 secs

     total energy              =   -4445.11296992 Ry
     estimated scf accuracy    <       5.02967482 Ry

     total magnetization       =     1.85 Bohr mag/cell
     absolute magnetization    =    12.71 Bohr mag/cell
[tb_dev] Currently allocated     2.68E+01 Mbytes, locked:    0 /  13
[tb_pin] Currently allocated     0.00E+00 Mbytes, locked:    0 /   0

     iteration #  5     ecut=    50.00 Ry     beta= 0.40
     Davidson diagonalization with overlap

---- Real-time Memory Report at c_bands before calling an iterative solver
          6934 MiB given to the printing process from OS
          1883 MiB allocation reported by mallinfo(arena+hblkhd)
         52940 MiB available memory on the node where the printing process lives
     GPU memory used/free/total (MiB): 5134 / 11146 / 16280
------------------
     ethr =  3.54E-03,  avg # of iterations =  1.1

     negative rho (up, down):  5.127E+00 1.838E+00

     total cpu time spent up to now is      190.2 secs

     total energy              =   -4445.37927622 Ry
     estimated scf accuracy    <       3.06800632 Ry

     total magnetization       =     1.67 Bohr mag/cell
     absolute magnetization    =    11.82 Bohr mag/cell
[tb_dev] Currently allocated     2.68E+01 Mbytes, locked:    0 /  13
[tb_pin] Currently allocated     0.00E+00 Mbytes, locked:    0 /   0

     iteration #  6     ecut=    50.00 Ry     beta= 0.40
     Davidson diagonalization with overlap

---- Real-time Memory Report at c_bands before calling an iterative solver
          6968 MiB given to the printing process from OS
          1919 MiB allocation reported by mallinfo(arena+hblkhd)
         52900 MiB available memory on the node where the printing process lives
     GPU memory used/free/total (MiB): 5134 / 11146 / 16280
------------------
     ethr =  2.16E-03,  avg # of iterations =  1.0

     negative rho (up, down):  4.506E+00 1.864E+00

     total cpu time spent up to now is      219.4 secs

     total energy              =   -4445.24534815 Ry
     estimated scf accuracy    <       4.78855275 Ry

     total magnetization       =     1.67 Bohr mag/cell
     absolute magnetization    =    11.82 Bohr mag/cell
[tb_dev] Currently allocated     2.68E+01 Mbytes, locked:    0 /  13
[tb_pin] Currently allocated     0.00E+00 Mbytes, locked:    0 /   0

     iteration #  7     ecut=    50.00 Ry     beta= 0.40
     Davidson diagonalization with overlap

---- Real-time Memory Report at c_bands before calling an iterative solver
          7005 MiB given to the printing process from OS
          1955 MiB allocation reported by mallinfo(arena+hblkhd)
         52868 MiB available memory on the node where the printing process lives
     GPU memory used/free/total (MiB): 5134 / 11146 / 16280
------------------
     ethr =  2.16E-03,  avg # of iterations =  2.2

     negative rho (up, down):  4.542E+00 1.533E+00

     total cpu time spent up to now is      250.8 secs

     total energy              =   -4445.34290882 Ry
     estimated scf accuracy    <       2.84910204 Ry

     total magnetization       =     1.82 Bohr mag/cell
     absolute magnetization    =    12.14 Bohr mag/cell
[tb_dev] Currently allocated     2.68E+01 Mbytes, locked:    0 /  13
[tb_pin] Currently allocated     0.00E+00 Mbytes, locked:    0 /   0

     iteration #  8     ecut=    50.00 Ry     beta= 0.40
     Davidson diagonalization with overlap

---- Real-time Memory Report at c_bands before calling an iterative solver
          7036 MiB given to the printing process from OS
          1986 MiB allocation reported by mallinfo(arena+hblkhd)
         52839 MiB available memory on the node where the printing process lives
     GPU memory used/free/total (MiB): 5134 / 11146 / 16280
------------------
     ethr =  2.01E-03,  avg # of iterations =  1.2

     negative rho (up, down):  4.590E+00 1.484E+00

     total cpu time spent up to now is      280.2 secs

     total energy              =   -4445.36709385 Ry
     estimated scf accuracy    <       1.60253834 Ry

     total magnetization       =     1.73 Bohr mag/cell
     absolute magnetization    =    12.70 Bohr mag/cell
[tb_dev] Currently allocated     2.68E+01 Mbytes, locked:    0 /  13
[tb_pin] Currently allocated     0.00E+00 Mbytes, locked:    0 /   0

     iteration #  9     ecut=    50.00 Ry     beta= 0.40
     Davidson diagonalization with overlap

---- Real-time Memory Report at c_bands before calling an iterative solver
          7071 MiB given to the printing process from OS
          2022 MiB allocation reported by mallinfo(arena+hblkhd)
         52794 MiB available memory on the node where the printing process lives
     GPU memory used/free/total (MiB): 5134 / 11146 / 16280
------------------
     ethr =  1.13E-03,  avg # of iterations =  1.0

     negative rho (up, down):  4.336E+00 1.271E+00

     total cpu time spent up to now is      309.4 secs

     total energy              =   -4445.40024019 Ry
     estimated scf accuracy    <       1.59699071 Ry

     total magnetization       =     1.70 Bohr mag/cell
     absolute magnetization    =    12.34 Bohr mag/cell
[tb_dev] Currently allocated     2.68E+01 Mbytes, locked:    0 /  13
[tb_pin] Currently allocated     0.00E+00 Mbytes, locked:    0 /   0

     iteration # 10     ecut=    50.00 Ry     beta= 0.40
     Davidson diagonalization with overlap

---- Real-time Memory Report at c_bands before calling an iterative solver
          7102 MiB given to the printing process from OS
         -2043 MiB allocation reported by mallinfo(arena+hblkhd)
         52764 MiB available memory on the node where the printing process lives
     GPU memory used/free/total (MiB): 5134 / 11146 / 16280
------------------
     ethr =  1.12E-03,  avg # of iterations =  2.9

     negative rho (up, down):  4.992E+00 1.567E+00

     total cpu time spent up to now is      341.9 secs

     total energy              =   -4445.32533476 Ry
     estimated scf accuracy    <       4.35423327 Ry

     total magnetization       =     1.79 Bohr mag/cell
     absolute magnetization    =    15.66 Bohr mag/cell
[tb_dev] Currently allocated     2.68E+01 Mbytes, locked:    0 /  13
[tb_pin] Currently allocated     0.00E+00 Mbytes, locked:    0 /   0

     iteration # 11     ecut=    50.00 Ry     beta= 0.40
     Davidson diagonalization with overlap

---- Real-time Memory Report at c_bands before calling an iterative solver
          7122 MiB given to the printing process from OS
         -2024 MiB allocation reported by mallinfo(arena+hblkhd)
         52748 MiB available memory on the node where the printing process lives
     GPU memory used/free/total (MiB): 5134 / 11146 / 16280
------------------
     ethr =  1.12E-03,  avg # of iterations =  2.0

     negative rho (up, down):  4.873E+00 2.053E+00

     total cpu time spent up to now is      372.8 secs

     total energy              =   -4445.36205210 Ry
     estimated scf accuracy    <       3.14545191 Ry

     total magnetization       =     1.61 Bohr mag/cell
     absolute magnetization    =    11.33 Bohr mag/cell
[tb_dev] Currently allocated     2.68E+01 Mbytes, locked:    0 /  13
[tb_pin] Currently allocated     0.00E+00 Mbytes, locked:    0 /   0

     iteration # 12     ecut=    50.00 Ry     beta= 0.40
     Davidson diagonalization with overlap

---- Real-time Memory Report at c_bands before calling an iterative solver
          7139 MiB given to the printing process from OS
         -2005 MiB allocation reported by mallinfo(arena+hblkhd)
         52730 MiB available memory on the node where the printing process lives
     GPU memory used/free/total (MiB): 5134 / 11146 / 16280
------------------
     ethr =  1.12E-03,  avg # of iterations =  2.0

     negative rho (up, down):  4.847E+00 1.824E+00

     total cpu time spent up to now is      404.1 secs

     total energy              =   -4445.38316229 Ry
     estimated scf accuracy    <       3.52730691 Ry

     total magnetization       =     1.55 Bohr mag/cell
     absolute magnetization    =     9.89 Bohr mag/cell
[tb_dev] Currently allocated     2.68E+01 Mbytes, locked:    0 /  13
[tb_pin] Currently allocated     0.00E+00 Mbytes, locked:    0 /   0

     iteration # 13     ecut=    50.00 Ry     beta= 0.40
     Davidson diagonalization with overlap

---- Real-time Memory Report at c_bands before calling an iterative solver
          7164 MiB given to the printing process from OS
         -1986 MiB allocation reported by mallinfo(arena+hblkhd)
         52714 MiB available memory on the node where the printing process lives
     GPU memory used/free/total (MiB): 5134 / 11146 / 16280
------------------
     ethr =  1.12E-03,  avg # of iterations =  1.0

     negative rho (up, down):  4.745E+00 1.743E+00

     total cpu time spent up to now is      433.5 secs

     total energy              =   -4445.38166816 Ry
     estimated scf accuracy    <       3.01552092 Ry

     total magnetization       =     1.59 Bohr mag/cell
     absolute magnetization    =    10.54 Bohr mag/cell
[tb_dev] Currently allocated     2.68E+01 Mbytes, locked:    0 /  13
[tb_pin] Currently allocated     0.00E+00 Mbytes, locked:    0 /   0

     iteration # 14     ecut=    50.00 Ry     beta= 0.40
     Davidson diagonalization with overlap

---- Real-time Memory Report at c_bands before calling an iterative solver
          7184 MiB given to the printing process from OS
         -1967 MiB allocation reported by mallinfo(arena+hblkhd)
         52694 MiB available memory on the node where the printing process lives
     GPU memory used/free/total (MiB): 5134 / 11146 / 16280
------------------
     ethr =  1.12E-03,  avg # of iterations =  1.0

     negative rho (up, down):  4.229E+00 1.524E+00

     total cpu time spent up to now is      462.7 secs

     total energy              =   -4445.25688970 Ry
     estimated scf accuracy    <       2.67169207 Ry

     total magnetization       =     1.43 Bohr mag/cell
     absolute magnetization    =    11.13 Bohr mag/cell
[tb_dev] Currently allocated     2.68E+01 Mbytes, locked:    0 /  13
[tb_pin] Currently allocated     0.00E+00 Mbytes, locked:    0 /   0

     iteration # 15     ecut=    50.00 Ry     beta= 0.40
     Davidson diagonalization with overlap

---- Real-time Memory Report at c_bands before calling an iterative solver
          7202 MiB given to the printing process from OS
         -1948 MiB allocation reported by mallinfo(arena+hblkhd)
         52675 MiB available memory on the node where the printing process lives
     GPU memory used/free/total (MiB): 5134 / 11146 / 16280
------------------
     ethr =  1.12E-03,  avg # of iterations =  2.6

     negative rho (up, down):  3.724E+00 1.700E+00

     total cpu time spent up to now is      497.4 secs

     total energy              =   -4445.45861000 Ry
     estimated scf accuracy    <      16.64734006 Ry

     total magnetization       =     1.59 Bohr mag/cell
     absolute magnetization    =    14.95 Bohr mag/cell
[tb_dev] Currently allocated     2.68E+01 Mbytes, locked:    0 /  13
[tb_pin] Currently allocated     0.00E+00 Mbytes, locked:    0 /   0

     iteration # 16     ecut=    50.00 Ry     beta= 0.40
     Davidson diagonalization with overlap

---- Real-time Memory Report at c_bands before calling an iterative solver
          7221 MiB given to the printing process from OS
         -1929 MiB allocation reported by mallinfo(arena+hblkhd)
         52649 MiB available memory on the node where the printing process lives
     GPU memory used/free/total (MiB): 5134 / 11146 / 16280
------------------
     ethr =  1.12E-03,  avg # of iterations =  2.1

     negative rho (up, down):  4.003E+00 1.667E+00

     total cpu time spent up to now is      528.8 secs

     total energy              =   -4445.24296116 Ry
     estimated scf accuracy    <      12.60158912 Ry

     total magnetization       =     1.38 Bohr mag/cell
     absolute magnetization    =    17.31 Bohr mag/cell
[tb_dev] Currently allocated     2.68E+01 Mbytes, locked:    0 /  13
[tb_pin] Currently allocated     0.00E+00 Mbytes, locked:    0 /   0

     iteration # 17     ecut=    50.00 Ry     beta= 0.40
     Davidson diagonalization with overlap

---- Real-time Memory Report at c_bands before calling an iterative solver
          7240 MiB given to the printing process from OS
         -1910 MiB allocation reported by mallinfo(arena+hblkhd)
         52632 MiB available memory on the node where the printing process lives
     GPU memory used/free/total (MiB): 5134 / 11146 / 16280
------------------
     ethr =  1.12E-03,  avg # of iterations =  3.1

     negative rho (up, down):  4.047E+00 1.670E+00

     total cpu time spent up to now is      563.2 secs

     total energy              =   -4445.45965420 Ry
     estimated scf accuracy    <       5.25650644 Ry

     total magnetization       =     1.52 Bohr mag/cell
     absolute magnetization    =    18.14 Bohr mag/cell
[tb_dev] Currently allocated     2.68E+01 Mbytes, locked:    0 /  13
[tb_pin] Currently allocated     0.00E+00 Mbytes, locked:    0 /   0

     iteration # 18     ecut=    50.00 Ry     beta= 0.40
     Davidson diagonalization with overlap

---- Real-time Memory Report at c_bands before calling an iterative solver
          7260 MiB given to the printing process from OS
         -1891 MiB allocation reported by mallinfo(arena+hblkhd)
         52613 MiB available memory on the node where the printing process lives
     GPU memory used/free/total (MiB): 5134 / 11146 / 16280
------------------
     ethr =  1.12E-03,  avg # of iterations =  1.5

     negative rho (up, down):  4.050E+00 1.590E+00

     total cpu time spent up to now is      593.3 secs

     total energy              =   -4445.49693994 Ry
     estimated scf accuracy    <       5.86633405 Ry

     total magnetization       =     1.38 Bohr mag/cell
     absolute magnetization    =    17.94 Bohr mag/cell
[tb_dev] Currently allocated     2.68E+01 Mbytes, locked:    0 /  13
[tb_pin] Currently allocated     0.00E+00 Mbytes, locked:    0 /   0

     iteration # 19     ecut=    50.00 Ry     beta= 0.40
     Davidson diagonalization with overlap

---- Real-time Memory Report at c_bands before calling an iterative solver
          7283 MiB given to the printing process from OS
         -1873 MiB allocation reported by mallinfo(arena+hblkhd)
         52596 MiB available memory on the node where the printing process lives
     GPU memory used/free/total (MiB): 5134 / 11146 / 16280
------------------
     ethr =  1.12E-03,  avg # of iterations =  1.1

     negative rho (up, down):  4.194E+00 1.607E+00

     total cpu time spent up to now is      622.5 secs

     total energy              =   -4445.38265855 Ry
     estimated scf accuracy    <       7.23596746 Ry

     total magnetization       =     1.47 Bohr mag/cell
     absolute magnetization    =    17.82 Bohr mag/cell
[tb_dev] Currently allocated     2.68E+01 Mbytes, locked:    0 /  13
[tb_pin] Currently allocated     0.00E+00 Mbytes, locked:    0 /   0

     iteration # 20     ecut=    50.00 Ry     beta= 0.40
     Davidson diagonalization with overlap

---- Real-time Memory Report at c_bands before calling an iterative solver
          7303 MiB given to the printing process from OS
         -1854 MiB allocation reported by mallinfo(arena+hblkhd)
         52578 MiB available memory on the node where the printing process lives
     GPU memory used/free/total (MiB): 5134 / 11146 / 16280
------------------
     ethr =  1.12E-03,  avg # of iterations =  1.6

     negative rho (up, down):  4.094E+00 1.659E+00

     total cpu time spent up to now is      652.9 secs

     total energy              =   -4445.41140209 Ry
     estimated scf accuracy    <       3.28191801 Ry

     total magnetization       =     1.39 Bohr mag/cell
     absolute magnetization    =    15.15 Bohr mag/cell
[tb_dev] Currently allocated     2.68E+01 Mbytes, locked:    0 /  13
[tb_pin] Currently allocated     0.00E+00 Mbytes, locked:    0 /   0

     iteration # 21     ecut=    50.00 Ry     beta= 0.40
     Davidson diagonalization with overlap

---- Real-time Memory Report at c_bands before calling an iterative solver
          7322 MiB given to the printing process from OS
         -1835 MiB allocation reported by mallinfo(arena+hblkhd)
         52562 MiB available memory on the node where the printing process lives
     GPU memory used/free/total (MiB): 5134 / 11146 / 16280
------------------
     ethr =  1.12E-03,  avg # of iterations =  1.5

     negative rho (up, down):  4.220E+00 1.589E+00

     total cpu time spent up to now is      683.2 secs

     total energy              =   -4445.34302450 Ry
     estimated scf accuracy    <       3.63953813 Ry

     total magnetization       =     1.22 Bohr mag/cell
     absolute magnetization    =    14.78 Bohr mag/cell
[tb_dev] Currently allocated     2.68E+01 Mbytes, locked:    0 /  13
[tb_pin] Currently allocated     0.00E+00 Mbytes, locked:    0 /   0

     iteration # 22     ecut=    50.00 Ry     beta= 0.40
     Davidson diagonalization with overlap

---- Real-time Memory Report at c_bands before calling an iterative solver
          7340 MiB given to the printing process from OS
         -1816 MiB allocation reported by mallinfo(arena+hblkhd)
         52542 MiB available memory on the node where the printing process lives
     GPU memory used/free/total (MiB): 5134 / 11146 / 16280
------------------
     ethr =  1.12E-03,  avg # of iterations =  2.2

     negative rho (up, down):  4.220E+00 1.573E+00

     total cpu time spent up to now is      714.8 secs

     total energy              =   -4445.40970107 Ry
     estimated scf accuracy    <       2.00266441 Ry

     total magnetization       =     1.35 Bohr mag/cell
     absolute magnetization    =    13.15 Bohr mag/cell
[tb_dev] Currently allocated     2.68E+01 Mbytes, locked:    0 /  13
[tb_pin] Currently allocated     0.00E+00 Mbytes, locked:    0 /   0

     iteration # 23     ecut=    50.00 Ry     beta= 0.40
     Davidson diagonalization with overlap

---- Real-time Memory Report at c_bands before calling an iterative solver
          7360 MiB given to the printing process from OS
         -1797 MiB allocation reported by mallinfo(arena+hblkhd)
         52525 MiB available memory on the node where the printing process lives
     GPU memory used/free/total (MiB): 5134 / 11146 / 16280
------------------
     ethr =  1.12E-03,  avg # of iterations =  1.5

     negative rho (up, down):  4.007E+00 1.651E+00

     total cpu time spent up to now is      744.8 secs

     total energy              =   -4445.36976164 Ry
     estimated scf accuracy    <       2.49984411 Ry

     total magnetization       =     1.18 Bohr mag/cell
     absolute magnetization    =    13.22 Bohr mag/cell
[tb_dev] Currently allocated     2.68E+01 Mbytes, locked:    0 /  13
[tb_pin] Currently allocated     0.00E+00 Mbytes, locked:    0 /   0

     iteration # 24     ecut=    50.00 Ry     beta= 0.40
     Davidson diagonalization with overlap

---- Real-time Memory Report at c_bands before calling an iterative solver
          7379 MiB given to the printing process from OS
         -1778 MiB allocation reported by mallinfo(arena+hblkhd)
         52504 MiB available memory on the node where the printing process lives
     GPU memory used/free/total (MiB): 5134 / 11146 / 16280
------------------
     ethr =  1.12E-03,  avg # of iterations =  2.5

     negative rho (up, down):  3.950E+00 1.789E+00

     total cpu time spent up to now is      777.5 secs

     total energy              =   -4445.45777661 Ry
     estimated scf accuracy    <       5.41936493 Ry

     total magnetization       =     1.12 Bohr mag/cell
     absolute magnetization    =    15.58 Bohr mag/cell
[tb_dev] Currently allocated     2.68E+01 Mbytes, locked:    0 /  13
[tb_pin] Currently allocated     0.00E+00 Mbytes, locked:    0 /   0

     iteration # 25     ecut=    50.00 Ry     beta= 0.40
     Davidson diagonalization with overlap

---- Real-time Memory Report at c_bands before calling an iterative solver
          7396 MiB given to the printing process from OS
         -1759 MiB allocation reported by mallinfo(arena+hblkhd)
         52486 MiB available memory on the node where the printing process lives
     GPU memory used/free/total (MiB): 5134 / 11146 / 16280
------------------
     ethr =  1.12E-03,  avg # of iterations =  1.0

     negative rho (up, down):  3.989E+00 1.926E+00

     total cpu time spent up to now is      806.7 secs

     total energy              =   -4445.31988763 Ry
     estimated scf accuracy    <       4.83755697 Ry

     total magnetization       =     0.98 Bohr mag/cell
     absolute magnetization    =    13.49 Bohr mag/cell
[tb_dev] Currently allocated     2.68E+01 Mbytes, locked:    0 /  13
[tb_pin] Currently allocated     0.00E+00 Mbytes, locked:    0 /   0

     iteration # 26     ecut=    50.00 Ry     beta= 0.40
     Davidson diagonalization with overlap

---- Real-time Memory Report at c_bands before calling an iterative solver
          7416 MiB given to the printing process from OS
         -1740 MiB allocation reported by mallinfo(arena+hblkhd)
         52467 MiB available memory on the node where the printing process lives
     GPU memory used/free/total (MiB): 5134 / 11146 / 16280
------------------
     ethr =  1.12E-03,  avg # of iterations =  2.4

     negative rho (up, down):  4.086E+00 1.681E+00

     total cpu time spent up to now is      839.4 secs

     total energy              =   -4445.39690350 Ry
     estimated scf accuracy    <       3.43441801 Ry

     total magnetization       =     0.83 Bohr mag/cell
     absolute magnetization    =    14.38 Bohr mag/cell
[tb_dev] Currently allocated     2.68E+01 Mbytes, locked:    0 /  13
[tb_pin] Currently allocated     0.00E+00 Mbytes, locked:    0 /   0

     iteration # 27     ecut=    50.00 Ry     beta= 0.40
     Davidson diagonalization with overlap

---- Real-time Memory Report at c_bands before calling an iterative solver
          7436 MiB given to the printing process from OS
         -1721 MiB allocation reported by mallinfo(arena+hblkhd)
         52447 MiB available memory on the node where the printing process lives
     GPU memory used/free/total (MiB): 5134 / 11146 / 16280
------------------
     ethr =  1.12E-03,  avg # of iterations =  2.3

     negative rho (up, down):  4.048E+00 1.580E+00

     total cpu time spent up to now is      871.9 secs

     total energy              =   -4445.43339483 Ry
     estimated scf accuracy    <       4.09927802 Ry

     total magnetization       =     0.90 Bohr mag/cell
     absolute magnetization    =    11.17 Bohr mag/cell
[tb_dev] Currently allocated     2.68E+01 Mbytes, locked:    0 /  13
[tb_pin] Currently allocated     0.00E+00 Mbytes, locked:    0 /   0

     iteration # 28     ecut=    50.00 Ry     beta= 0.40
     Davidson diagonalization with overlap

---- Real-time Memory Report at c_bands before calling an iterative solver
          7459 MiB given to the printing process from OS
         -1702 MiB allocation reported by mallinfo(arena+hblkhd)
         52430 MiB available memory on the node where the printing process lives
     GPU memory used/free/total (MiB): 5134 / 11146 / 16280
------------------
     ethr =  1.12E-03,  avg # of iterations =  1.0

     negative rho (up, down):  4.148E+00 1.504E+00

     total cpu time spent up to now is      901.2 secs

     total energy              =   -4445.35214016 Ry
     estimated scf accuracy    <       3.30310859 Ry

     total magnetization       =     0.91 Bohr mag/cell
     absolute magnetization    =    10.77 Bohr mag/cell
[tb_dev] Currently allocated     2.68E+01 Mbytes, locked:    0 /  13
[tb_pin] Currently allocated     0.00E+00 Mbytes, locked:    0 /   0

     iteration # 29     ecut=    50.00 Ry     beta= 0.40
     Davidson diagonalization with overlap

---- Real-time Memory Report at c_bands before calling an iterative solver
          7479 MiB given to the printing process from OS
         -1683 MiB allocation reported by mallinfo(arena+hblkhd)
         52410 MiB available memory on the node where the printing process lives
     GPU memory used/free/total (MiB): 5134 / 11146 / 16280
------------------
     ethr =  1.12E-03,  avg # of iterations =  2.2

     negative rho (up, down):  4.101E+00 1.709E+00

     total cpu time spent up to now is      933.0 secs

     total energy              =   -4445.42356660 Ry
     estimated scf accuracy    <       2.68172045 Ry

     total magnetization       =     0.94 Bohr mag/cell
     absolute magnetization    =    12.15 Bohr mag/cell
[tb_dev] Currently allocated     2.68E+01 Mbytes, locked:    0 /  13
[tb_pin] Currently allocated     0.00E+00 Mbytes, locked:    0 /   0

     iteration # 30     ecut=    50.00 Ry     beta= 0.40
     Davidson diagonalization with overlap

---- Real-time Memory Report at c_bands before calling an iterative solver
          7504 MiB given to the printing process from OS
         -1664 MiB allocation reported by mallinfo(arena+hblkhd)
         52391 MiB available memory on the node where the printing process lives
     GPU memory used/free/total (MiB): 5134 / 11146 / 16280
------------------
     ethr =  1.12E-03,  avg # of iterations =  1.6

     negative rho (up, down):  4.037E+00 1.532E+00

     total cpu time spent up to now is      963.6 secs

     total energy              =   -4445.43376875 Ry
     estimated scf accuracy    <       3.13500299 Ry

     total magnetization       =     0.77 Bohr mag/cell
     absolute magnetization    =    11.68 Bohr mag/cell
[tb_dev] Currently allocated     2.68E+01 Mbytes, locked:    0 /  13
[tb_pin] Currently allocated     0.00E+00 Mbytes, locked:    0 /   0

     iteration # 31     ecut=    50.00 Ry     beta= 0.40
     Davidson diagonalization with overlap

---- Real-time Memory Report at c_bands before calling an iterative solver
          7522 MiB given to the printing process from OS
         -1645 MiB allocation reported by mallinfo(arena+hblkhd)
         52374 MiB available memory on the node where the printing process lives
     GPU memory used/free/total (MiB): 5134 / 11146 / 16280
------------------
     ethr =  1.12E-03,  avg # of iterations =  1.0

     negative rho (up, down):  4.005E+00 1.537E+00

     total cpu time spent up to now is      992.9 secs

     total energy              =   -4445.43517079 Ry
     estimated scf accuracy    <       3.07548868 Ry

     total magnetization       =     0.76 Bohr mag/cell
     absolute magnetization    =    11.88 Bohr mag/cell
[tb_dev] Currently allocated     2.68E+01 Mbytes, locked:    0 /  13
[tb_pin] Currently allocated     0.00E+00 Mbytes, locked:    0 /   0

     iteration # 32     ecut=    50.00 Ry     beta= 0.40
     Davidson diagonalization with overlap

---- Real-time Memory Report at c_bands before calling an iterative solver
          7541 MiB given to the printing process from OS
         -1626 MiB allocation reported by mallinfo(arena+hblkhd)
         52354 MiB available memory on the node where the printing process lives
     GPU memory used/free/total (MiB): 5134 / 11146 / 16280
------------------
     ethr =  1.12E-03,  avg # of iterations =  1.0

     negative rho (up, down):  3.820E+00 1.765E+00

     total cpu time spent up to now is     1022.1 secs

     total energy              =   -4445.42444555 Ry
     estimated scf accuracy    <       2.96187408 Ry

     total magnetization       =     0.84 Bohr mag/cell
     absolute magnetization    =    12.59 Bohr mag/cell
[tb_dev] Currently allocated     2.68E+01 Mbytes, locked:    0 /  13
[tb_pin] Currently allocated     0.00E+00 Mbytes, locked:    0 /   0

     iteration # 33     ecut=    50.00 Ry     beta= 0.40
     Davidson diagonalization with overlap

---- Real-time Memory Report at c_bands before calling an iterative solver
          7561 MiB given to the printing process from OS
         -1607 MiB allocation reported by mallinfo(arena+hblkhd)
         52336 MiB available memory on the node where the printing process lives
     GPU memory used/free/total (MiB): 5134 / 11146 / 16280
------------------
     ethr =  1.12E-03,  avg # of iterations =  2.4

     negative rho (up, down):  3.815E+00 1.517E+00

     total cpu time spent up to now is     1054.1 secs

     total energy              =   -4445.28271194 Ry
     estimated scf accuracy    <       4.32036700 Ry

     total magnetization       =     0.54 Bohr mag/cell
     absolute magnetization    =     8.73 Bohr mag/cell
[tb_dev] Currently allocated     2.68E+01 Mbytes, locked:    0 /  13
[tb_pin] Currently allocated     0.00E+00 Mbytes, locked:    0 /   0

     iteration # 34     ecut=    50.00 Ry     beta= 0.40
     Davidson diagonalization with overlap

---- Real-time Memory Report at c_bands before calling an iterative solver
          7579 MiB given to the printing process from OS
         -1558 MiB allocation reported by mallinfo(arena+hblkhd)
         52317 MiB available memory on the node where the printing process lives
     GPU memory used/free/total (MiB): 5134 / 11146 / 16280
------------------
     ethr =  1.12E-03,  avg # of iterations =  3.8

     negative rho (up, down):  3.881E+00 1.416E+00

     total cpu time spent up to now is     1088.8 secs

     total energy              =   -4445.40892831 Ry
     estimated scf accuracy    <       3.10347342 Ry

     total magnetization       =     0.78 Bohr mag/cell
     absolute magnetization    =    14.24 Bohr mag/cell
[tb_dev] Currently allocated     2.68E+01 Mbytes, locked:    0 /  13
[tb_pin] Currently allocated     0.00E+00 Mbytes, locked:    0 /   0

     iteration # 35     ecut=    50.00 Ry     beta= 0.40
     Davidson diagonalization with overlap

---- Real-time Memory Report at c_bands before calling an iterative solver
          7603 MiB given to the printing process from OS
         -1540 MiB allocation reported by mallinfo(arena+hblkhd)
         52295 MiB available memory on the node where the printing process lives
     GPU memory used/free/total (MiB): 5134 / 11146 / 16280
------------------
     ethr =  1.12E-03,  avg # of iterations =  1.0

     negative rho (up, down):  3.818E+00 1.310E+00

     total cpu time spent up to now is     1118.0 secs

     total energy              =   -4445.41256803 Ry
     estimated scf accuracy    <       2.76405883 Ry

     total magnetization       =     0.88 Bohr mag/cell
     absolute magnetization    =    11.92 Bohr mag/cell
[tb_dev] Currently allocated     2.68E+01 Mbytes, locked:    0 /  13
[tb_pin] Currently allocated     0.00E+00 Mbytes, locked:    0 /   0

     iteration # 36     ecut=    50.00 Ry     beta= 0.40
     Davidson diagonalization with overlap

---- Real-time Memory Report at c_bands before calling an iterative solver
          7623 MiB given to the printing process from OS
         -1521 MiB allocation reported by mallinfo(arena+hblkhd)
         52279 MiB available memory on the node where the printing process lives
     GPU memory used/free/total (MiB): 5134 / 11146 / 16280
------------------
     ethr =  1.12E-03,  avg # of iterations =  2.1

     negative rho (up, down):  3.947E+00 1.307E+00

     total cpu time spent up to now is     1149.6 secs

     total energy              =   -4445.43003843 Ry
     estimated scf accuracy    <       5.61323841 Ry

     total magnetization       =     0.83 Bohr mag/cell
     absolute magnetization    =    12.69 Bohr mag/cell
[tb_dev] Currently allocated     2.68E+01 Mbytes, locked:    0 /  13
[tb_pin] Currently allocated     0.00E+00 Mbytes, locked:    0 /   0

     iteration # 37     ecut=    50.00 Ry     beta= 0.40
     Davidson diagonalization with overlap

---- Real-time Memory Report at c_bands before calling an iterative solver
          7647 MiB given to the printing process from OS
         -1503 MiB allocation reported by mallinfo(arena+hblkhd)
         52259 MiB available memory on the node where the printing process lives
     GPU memory used/free/total (MiB): 5134 / 11146 / 16280
------------------
     ethr =  1.12E-03,  avg # of iterations =  1.5

     negative rho (up, down):  4.368E+00 1.533E+00

     total cpu time spent up to now is     1179.7 secs

     total energy              =   -4445.37834032 Ry
     estimated scf accuracy    <       4.25012978 Ry

     total magnetization       =     0.82 Bohr mag/cell
     absolute magnetization    =    11.94 Bohr mag/cell
[tb_dev] Currently allocated     2.68E+01 Mbytes, locked:    0 /  13
[tb_pin] Currently allocated     0.00E+00 Mbytes, locked:    0 /   0

     iteration # 38     ecut=    50.00 Ry     beta= 0.40
     Davidson diagonalization with overlap

---- Real-time Memory Report at c_bands before calling an iterative solver
          7667 MiB given to the printing process from OS
         -1483 MiB allocation reported by mallinfo(arena+hblkhd)
         52239 MiB available memory on the node where the printing process lives
     GPU memory used/free/total (MiB): 5134 / 11146 / 16280
------------------
     ethr =  1.12E-03,  avg # of iterations =  4.5

     negative rho (up, down):  3.862E+00 1.497E+00

     total cpu time spent up to now is     1218.4 secs

     total energy              =   -4444.95397925 Ry
     estimated scf accuracy    <      23.46210306 Ry

     total magnetization       =     0.86 Bohr mag/cell
     absolute magnetization    =     7.86 Bohr mag/cell
[tb_dev] Currently allocated     2.68E+01 Mbytes, locked:    0 /  13
[tb_pin] Currently allocated     0.00E+00 Mbytes, locked:    0 /   0

     iteration # 39     ecut=    50.00 Ry     beta= 0.40
     Davidson diagonalization with overlap

---- Real-time Memory Report at c_bands before calling an iterative solver
          7690 MiB given to the printing process from OS
         -1464 MiB allocation reported by mallinfo(arena+hblkhd)
         52220 MiB available memory on the node where the printing process lives
     GPU memory used/free/total (MiB): 5134 / 11146 / 16280
------------------
     ethr =  1.12E-03,  avg # of iterations =  4.5

     negative rho (up, down):  3.911E+00 1.581E+00

     total cpu time spent up to now is     1258.0 secs

     total energy              =   -4445.47249071 Ry
     estimated scf accuracy    <       7.45554995 Ry

     total magnetization       =     0.63 Bohr mag/cell
     absolute magnetization    =    17.92 Bohr mag/cell
[tb_dev] Currently allocated     2.68E+01 Mbytes, locked:    0 /  13
[tb_pin] Currently allocated     0.00E+00 Mbytes, locked:    0 /   0

     iteration # 40     ecut=    50.00 Ry     beta= 0.40
     Davidson diagonalization with overlap

---- Real-time Memory Report at c_bands before calling an iterative solver
          7709 MiB given to the printing process from OS
         -1445 MiB allocation reported by mallinfo(arena+hblkhd)
         52204 MiB available memory on the node where the printing process lives
     GPU memory used/free/total (MiB): 5134 / 11146 / 16280
------------------
     ethr =  1.12E-03,  avg # of iterations =  1.5

     negative rho (up, down):  3.915E+00 1.469E+00

     total cpu time spent up to now is     1288.1 secs

     total energy              =   -4445.42367359 Ry
     estimated scf accuracy    <       7.15474895 Ry

     total magnetization       =     0.60 Bohr mag/cell
     absolute magnetization    =    14.30 Bohr mag/cell
[tb_dev] Currently allocated     2.68E+01 Mbytes, locked:    0 /  13
[tb_pin] Currently allocated     0.00E+00 Mbytes, locked:    0 /   0

     iteration # 41     ecut=    50.00 Ry     beta= 0.40
     Davidson diagonalization with overlap

---- Real-time Memory Report at c_bands before calling an iterative solver
          7729 MiB given to the printing process from OS
         -1426 MiB allocation reported by mallinfo(arena+hblkhd)
         52183 MiB available memory on the node where the printing process lives
     GPU memory used/free/total (MiB): 5134 / 11146 / 16280
------------------
     ethr =  1.12E-03,  avg # of iterations =  1.6

     negative rho (up, down):  4.006E+00 1.495E+00

     total cpu time spent up to now is     1318.5 secs

     total energy              =   -4445.43642316 Ry
     estimated scf accuracy    <       4.96806671 Ry

     total magnetization       =     0.63 Bohr mag/cell
     absolute magnetization    =    12.73 Bohr mag/cell
[tb_dev] Currently allocated     2.68E+01 Mbytes, locked:    0 /  13
[tb_pin] Currently allocated     0.00E+00 Mbytes, locked:    0 /   0

     iteration # 42     ecut=    50.00 Ry     beta= 0.40
     Davidson diagonalization with overlap

---- Real-time Memory Report at c_bands before calling an iterative solver
          7749 MiB given to the printing process from OS
         -1407 MiB allocation reported by mallinfo(arena+hblkhd)
         52163 MiB available memory on the node where the printing process lives
     GPU memory used/free/total (MiB): 5134 / 11146 / 16280
------------------
     ethr =  1.12E-03,  avg # of iterations =  2.5

     negative rho (up, down):  4.038E+00 1.384E+00

     total cpu time spent up to now is     1350.5 secs

     total energy              =   -4445.32599914 Ry
     estimated scf accuracy    <       7.21121062 Ry

     total magnetization       =     0.70 Bohr mag/cell
     absolute magnetization    =    17.24 Bohr mag/cell
[tb_dev] Currently allocated     2.68E+01 Mbytes, locked:    0 /  13
[tb_pin] Currently allocated     0.00E+00 Mbytes, locked:    0 /   0

     iteration # 43     ecut=    50.00 Ry     beta= 0.40
     Davidson diagonalization with overlap

---- Real-time Memory Report at c_bands before calling an iterative solver
          7766 MiB given to the printing process from OS
         -1388 MiB allocation reported by mallinfo(arena+hblkhd)
         52137 MiB available memory on the node where the printing process lives
     GPU memory used/free/total (MiB): 5134 / 11146 / 16280
------------------
     ethr =  1.12E-03,  avg # of iterations =  3.4

     negative rho (up, down):  4.049E+00 1.346E+00

     total cpu time spent up to now is     1384.4 secs

     total energy              =   -4445.35008237 Ry
     estimated scf accuracy    <       5.47972971 Ry

     total magnetization       =     0.82 Bohr mag/cell
     absolute magnetization    =    14.14 Bohr mag/cell
[tb_dev] Currently allocated     2.68E+01 Mbytes, locked:    0 /  13
[tb_pin] Currently allocated     0.00E+00 Mbytes, locked:    0 /   0

     iteration # 44     ecut=    50.00 Ry     beta= 0.40
     Davidson diagonalization with overlap

---- Real-time Memory Report at c_bands before calling an iterative solver
          7786 MiB given to the printing process from OS
         -1369 MiB allocation reported by mallinfo(arena+hblkhd)
         52119 MiB available memory on the node where the printing process lives
     GPU memory used/free/total (MiB): 5134 / 11146 / 16280
------------------
     ethr =  1.12E-03,  avg # of iterations =  1.8

     negative rho (up, down):  3.891E+00 1.345E+00

     total cpu time spent up to now is     1415.0 secs

     total energy              =   -4445.41569722 Ry
     estimated scf accuracy    <       2.18517057 Ry

     total magnetization       =     0.83 Bohr mag/cell
     absolute magnetization    =    12.64 Bohr mag/cell
[tb_dev] Currently allocated     2.68E+01 Mbytes, locked:    0 /  13
[tb_pin] Currently allocated     0.00E+00 Mbytes, locked:    0 /   0

     iteration # 45     ecut=    50.00 Ry     beta= 0.40
     Davidson diagonalization with overlap

---- Real-time Memory Report at c_bands before calling an iterative solver
          7811 MiB given to the printing process from OS
         -1335 MiB allocation reported by mallinfo(arena+hblkhd)
         52098 MiB available memory on the node where the printing process lives
     GPU memory used/free/total (MiB): 5134 / 11146 / 16280
------------------
     ethr =  1.12E-03,  avg # of iterations =  1.2

     negative rho (up, down):  3.832E+00 1.370E+00

     total cpu time spent up to now is     1444.7 secs

     total energy              =   -4445.41758151 Ry
     estimated scf accuracy    <       2.32872546 Ry

     total magnetization       =     0.74 Bohr mag/cell
     absolute magnetization    =    14.21 Bohr mag/cell
[tb_dev] Currently allocated     2.68E+01 Mbytes, locked:    0 /  13
[tb_pin] Currently allocated     0.00E+00 Mbytes, locked:    0 /   0

     iteration # 46     ecut=    50.00 Ry     beta= 0.40
     Davidson diagonalization with overlap

---- Real-time Memory Report at c_bands before calling an iterative solver
          7829 MiB given to the printing process from OS
         -1316 MiB allocation reported by mallinfo(arena+hblkhd)
         52072 MiB available memory on the node where the printing process lives
     GPU memory used/free/total (MiB): 5134 / 11146 / 16280
------------------
     ethr =  1.12E-03,  avg # of iterations =  1.0

     negative rho (up, down):  3.890E+00 1.392E+00

     total cpu time spent up to now is     1474.0 secs

     total energy              =   -4445.40295350 Ry
     estimated scf accuracy    <       2.27992332 Ry

     total magnetization       =     0.80 Bohr mag/cell
     absolute magnetization    =    15.13 Bohr mag/cell
[tb_dev] Currently allocated     2.68E+01 Mbytes, locked:    0 /  13
[tb_pin] Currently allocated     0.00E+00 Mbytes, locked:    0 /   0

     iteration # 47     ecut=    50.00 Ry     beta= 0.40
     Davidson diagonalization with overlap

---- Real-time Memory Report at c_bands before calling an iterative solver
          7848 MiB given to the printing process from OS
         -1297 MiB allocation reported by mallinfo(arena+hblkhd)
         52055 MiB available memory on the node where the printing process lives
     GPU memory used/free/total (MiB): 5134 / 11146 / 16280
------------------
     ethr =  1.12E-03,  avg # of iterations =  2.4

     negative rho (up, down):  3.918E+00 1.307E+00

     total cpu time spent up to now is     1505.7 secs

     total energy              =   -4445.40602013 Ry
     estimated scf accuracy    <       5.20423249 Ry

     total magnetization       =     0.59 Bohr mag/cell
     absolute magnetization    =    10.74 Bohr mag/cell
[tb_dev] Currently allocated     2.68E+01 Mbytes, locked:    0 /  13
[tb_pin] Currently allocated     0.00E+00 Mbytes, locked:    0 /   0

     iteration # 48     ecut=    50.00 Ry     beta= 0.40
     Davidson diagonalization with overlap

---- Real-time Memory Report at c_bands before calling an iterative solver
          7868 MiB given to the printing process from OS
         -1278 MiB allocation reported by mallinfo(arena+hblkhd)
         52035 MiB available memory on the node where the printing process lives
     GPU memory used/free/total (MiB): 5134 / 11146 / 16280
------------------
     ethr =  1.12E-03,  avg # of iterations =  1.0

     negative rho (up, down):  3.911E+00 1.206E+00

     total cpu time spent up to now is     1535.1 secs

     total energy              =   -4445.38149770 Ry
     estimated scf accuracy    <       3.35737407 Ry

     total magnetization       =     0.69 Bohr mag/cell
     absolute magnetization    =    10.55 Bohr mag/cell
[tb_dev] Currently allocated     2.68E+01 Mbytes, locked:    0 /  13
[tb_pin] Currently allocated     0.00E+00 Mbytes, locked:    0 /   0

     iteration # 49     ecut=    50.00 Ry     beta= 0.40
     Davidson diagonalization with overlap

---- Real-time Memory Report at c_bands before calling an iterative solver
          7891 MiB given to the printing process from OS
         -1259 MiB allocation reported by mallinfo(arena+hblkhd)
         52018 MiB available memory on the node where the printing process lives
     GPU memory used/free/total (MiB): 5134 / 11146 / 16280
------------------
     ethr =  1.12E-03,  avg # of iterations =  1.4

     negative rho (up, down):  3.919E+00 1.177E+00

     total cpu time spent up to now is     1565.1 secs

     total energy              =   -4445.40285334 Ry
     estimated scf accuracy    <       1.17056905 Ry

     total magnetization       =     0.62 Bohr mag/cell
     absolute magnetization    =    11.70 Bohr mag/cell
[tb_dev] Currently allocated     2.68E+01 Mbytes, locked:    0 /  13
[tb_pin] Currently allocated     0.00E+00 Mbytes, locked:    0 /   0

     iteration # 50     ecut=    50.00 Ry     beta= 0.40
     Davidson diagonalization with overlap

---- Real-time Memory Report at c_bands before calling an iterative solver
          7911 MiB given to the printing process from OS
         -1240 MiB allocation reported by mallinfo(arena+hblkhd)
         52000 MiB available memory on the node where the printing process lives
     GPU memory used/free/total (MiB): 5134 / 11146 / 16280
------------------
     ethr =  8.24E-04,  avg # of iterations =  1.0

     negative rho (up, down):  3.934E+00 1.128E+00

     total cpu time spent up to now is     1594.3 secs

     total energy              =   -4445.40541324 Ry
     estimated scf accuracy    <       0.81800643 Ry

     total magnetization       =     0.59 Bohr mag/cell
     absolute magnetization    =    10.34 Bohr mag/cell
[tb_dev] Currently allocated     2.68E+01 Mbytes, locked:    0 /  13
[tb_pin] Currently allocated     0.00E+00 Mbytes, locked:    0 /   0

     iteration # 51     ecut=    50.00 Ry     beta= 0.40
     Davidson diagonalization with overlap

---- Real-time Memory Report at c_bands before calling an iterative solver
          7930 MiB given to the printing process from OS
         -1221 MiB allocation reported by mallinfo(arena+hblkhd)
         51978 MiB available memory on the node where the printing process lives
     GPU memory used/free/total (MiB): 5134 / 11146 / 16280
------------------
     ethr =  5.76E-04,  avg # of iterations =  1.0

     negative rho (up, down):  4.020E+00 1.084E+00

     total cpu time spent up to now is     1623.5 secs

     total energy              =   -4445.39183962 Ry
     estimated scf accuracy    <       0.52847372 Ry

     total magnetization       =     0.63 Bohr mag/cell
     absolute magnetization    =    10.95 Bohr mag/cell
[tb_dev] Currently allocated     2.68E+01 Mbytes, locked:    0 /  13
[tb_pin] Currently allocated     0.00E+00 Mbytes, locked:    0 /   0

     iteration # 52     ecut=    50.00 Ry     beta= 0.40
     Davidson diagonalization with overlap

---- Real-time Memory Report at c_bands before calling an iterative solver
          7930 MiB given to the printing process from OS
         -1202 MiB allocation reported by mallinfo(arena+hblkhd)
         51954 MiB available memory on the node where the printing process lives
     GPU memory used/free/total (MiB): 5134 / 11146 / 16280
------------------
     ethr =  3.72E-04,  avg # of iterations =  2.6

     negative rho (up, down):  4.013E+00 1.111E+00

     total cpu time spent up to now is     1655.5 secs

     total energy              =   -4445.41903050 Ry
     estimated scf accuracy    <       0.37963612 Ry

     total magnetization       =     0.58 Bohr mag/cell
     absolute magnetization    =    10.71 Bohr mag/cell
[tb_dev] Currently allocated     2.68E+01 Mbytes, locked:    0 /  13
[tb_pin] Currently allocated     0.00E+00 Mbytes, locked:    0 /   0

     iteration # 53     ecut=    50.00 Ry     beta= 0.40
     Davidson diagonalization with overlap

---- Real-time Memory Report at c_bands before calling an iterative solver
          7930 MiB given to the printing process from OS
         -1184 MiB allocation reported by mallinfo(arena+hblkhd)
         51926 MiB available memory on the node where the printing process lives
     GPU memory used/free/total (MiB): 5134 / 11146 / 16280
------------------
     ethr =  2.67E-04,  avg # of iterations =  1.4

     negative rho (up, down):  3.963E+00 1.163E+00

     total cpu time spent up to now is     1685.4 secs

     total energy              =   -4445.40231056 Ry
     estimated scf accuracy    <       0.86252585 Ry

     total magnetization       =     0.58 Bohr mag/cell
     absolute magnetization    =    10.55 Bohr mag/cell
[tb_dev] Currently allocated     2.68E+01 Mbytes, locked:    0 /  13
[tb_pin] Currently allocated     0.00E+00 Mbytes, locked:    0 /   0

     iteration # 54     ecut=    50.00 Ry     beta= 0.40
     Davidson diagonalization with overlap

---- Real-time Memory Report at c_bands before calling an iterative solver
          7936 MiB given to the printing process from OS
         -1165 MiB allocation reported by mallinfo(arena+hblkhd)
         51911 MiB available memory on the node where the printing process lives
     GPU memory used/free/total (MiB): 5134 / 11146 / 16280
------------------
     ethr =  2.67E-04,  avg # of iterations =  1.4

     negative rho (up, down):  3.964E+00 1.176E+00

     total cpu time spent up to now is     1715.8 secs

     total energy              =   -4445.40604954 Ry
     estimated scf accuracy    <       0.35970829 Ry

     total magnetization       =     0.57 Bohr mag/cell
     absolute magnetization    =     9.60 Bohr mag/cell
[tb_dev] Currently allocated     2.68E+01 Mbytes, locked:    0 /  13
[tb_pin] Currently allocated     0.00E+00 Mbytes, locked:    0 /   0

     iteration # 55     ecut=    50.00 Ry     beta= 0.40
     Davidson diagonalization with overlap

---- Real-time Memory Report at c_bands before calling an iterative solver
          7954 MiB given to the printing process from OS
         -1146 MiB allocation reported by mallinfo(arena+hblkhd)
         51893 MiB available memory on the node where the printing process lives
     GPU memory used/free/total (MiB): 5134 / 11146 / 16280
------------------
     ethr =  2.53E-04,  avg # of iterations =  1.0

     negative rho (up, down):  3.929E+00 1.169E+00

     total cpu time spent up to now is     1745.4 secs

     total energy              =   -4445.40698828 Ry
     estimated scf accuracy    <       0.27847104 Ry

     total magnetization       =     0.53 Bohr mag/cell
     absolute magnetization    =     9.56 Bohr mag/cell
[tb_dev] Currently allocated     2.68E+01 Mbytes, locked:    0 /  13
[tb_pin] Currently allocated     0.00E+00 Mbytes, locked:    0 /   0

     iteration # 56     ecut=    50.00 Ry     beta= 0.40
     Davidson diagonalization with overlap

---- Real-time Memory Report at c_bands before calling an iterative solver
          7973 MiB given to the printing process from OS
         -1119 MiB allocation reported by mallinfo(arena+hblkhd)
         51866 MiB available memory on the node where the printing process lives
     GPU memory used/free/total (MiB): 5134 / 11146 / 16280
------------------
     ethr =  1.96E-04,  avg # of iterations =  2.8

     negative rho (up, down):  3.948E+00 1.137E+00

     total cpu time spent up to now is     1778.1 secs

     total energy              =   -4445.40062364 Ry
     estimated scf accuracy    <       0.89150350 Ry

     total magnetization       =     0.52 Bohr mag/cell
     absolute magnetization    =     8.78 Bohr mag/cell
[tb_dev] Currently allocated     2.68E+01 Mbytes, locked:    0 /  13
[tb_pin] Currently allocated     0.00E+00 Mbytes, locked:    0 /   0

     iteration # 57     ecut=    50.00 Ry     beta= 0.40
     Davidson diagonalization with overlap

---- Real-time Memory Report at c_bands before calling an iterative solver
          7993 MiB given to the printing process from OS
         -1100 MiB allocation reported by mallinfo(arena+hblkhd)
         51849 MiB available memory on the node where the printing process lives
     GPU memory used/free/total (MiB): 5134 / 11146 / 16280
------------------
     ethr =  1.96E-04,  avg # of iterations =  2.8

     negative rho (up, down):  3.949E+00 1.136E+00

     total cpu time spent up to now is     1810.5 secs

     total energy              =   -4445.41627011 Ry
     estimated scf accuracy    <       0.42769451 Ry

     total magnetization       =     0.49 Bohr mag/cell
     absolute magnetization    =     9.26 Bohr mag/cell
[tb_dev] Currently allocated     2.68E+01 Mbytes, locked:    0 /  13
[...]
     estimated scf accuracy    <       0.13689989 Ry

     total magnetization       =     0.41 Bohr mag/cell
     absolute magnetization    =     9.91 Bohr mag/cell
[tb_dev] Currently allocated     2.68E+01 Mbytes, locked:    0 /  13
[tb_pin] Currently allocated     0.00E+00 Mbytes, locked:    0 /   0

     iteration # 66     ecut=    50.00 Ry     beta= 0.40
     Davidson diagonalization with overlap

---- Real-time Memory Report at c_bands before calling an iterative solver
          8173 MiB given to the printing process from OS
          -922 MiB allocation reported by mallinfo(arena+hblkhd)
         51662 MiB available memory on the node where the printing process lives
     GPU memory used/free/total (MiB): 5134 / 11146 / 16280
------------------
     ethr =  9.64E-05,  avg # of iterations =  1.5

     negative rho (up, down):  3.927E+00 1.207E+00

     total cpu time spent up to now is     2088.2 secs

     total energy              =   -4445.40811276 Ry
     estimated scf accuracy    <       0.15181397 Ry

     total magnetization       =     0.39 Bohr mag/cell
     absolute magnetization    =    10.10 Bohr mag/cell
[tb_dev] Currently allocated     2.68E+01 Mbytes, locked:    0 /  13
[tb_pin] Currently allocated     0.00E+00 Mbytes, locked:    0 /   0

     iteration # 67     ecut=    50.00 Ry     beta= 0.40
     Davidson diagonalization with overlap

---- Real-time Memory Report at c_bands before calling an iterative solver
          8193 MiB given to the printing process from OS
          -933 MiB allocation reported by mallinfo(arena+hblkhd)
         51655 MiB available memory on the node where the printing process lives
     GPU memory used/free/total (MiB): 5134 / 11146 / 16280
------------------
     ethr =  9.64E-05,  avg # of iterations =  2.5

     negative rho (up, down):  3.918E+00 1.171E+00

     total cpu time spent up to now is     2120.3 secs

     total energy              =   -4445.40955144 Ry
     estimated scf accuracy    <       0.18449684 Ry

     total magnetization       =     0.38 Bohr mag/cell
     absolute magnetization    =     9.76 Bohr mag/cell
[tb_dev] Currently allocated     2.68E+01 Mbytes, locked:    0 /  13
[tb_pin] Currently allocated     0.00E+00 Mbytes, locked:    0 /   0

     iteration # 68     ecut=    50.00 Ry     beta= 0.40
     Davidson diagonalization with overlap

---- Real-time Memory Report at c_bands before calling an iterative solver
          8210 MiB given to the printing process from OS
          -914 MiB allocation reported by mallinfo(arena+hblkhd)
         51636 MiB available memory on the node where the printing process lives
     GPU memory used/free/total (MiB): 5134 / 11146 / 16280
------------------
     ethr =  9.64E-05,  avg # of iterations =  2.4

     negative rho (up, down):  3.927E+00 1.173E+00

     total cpu time spent up to now is     2151.8 secs

     total energy              =   -4445.40727796 Ry
     estimated scf accuracy    <       0.15039490 Ry

     total magnetization       =     0.39 Bohr mag/cell
     absolute magnetization    =     9.11 Bohr mag/cell
[tb_dev] Currently allocated     2.68E+01 Mbytes, locked:    0 /  13
[tb_pin] Currently allocated     0.00E+00 Mbytes, locked:    0 /   0

     iteration # 69     ecut=    50.00 Ry     beta= 0.40
     Davidson diagonalization with overlap

---- Real-time Memory Report at c_bands before calling an iterative solver
          8236 MiB given to the printing process from OS
          -895 MiB allocation reported by mallinfo(arena+hblkhd)
         51618 MiB available memory on the node where the printing process lives
     GPU memory used/free/total (MiB): 5134 / 11146 / 16280
------------------
     ethr =  9.64E-05,  avg # of iterations =  1.5

     negative rho (up, down):  3.934E+00 1.186E+00

     total cpu time spent up to now is     2181.9 secs

     total energy              =   -4445.40804861 Ry
     estimated scf accuracy    <       0.09021744 Ry

     total magnetization       =     0.41 Bohr mag/cell
     absolute magnetization    =     9.14 Bohr mag/cell
[tb_dev] Currently allocated     2.68E+01 Mbytes, locked:    0 /  13
[tb_pin] Currently allocated     0.00E+00 Mbytes, locked:    0 /   0

     iteration # 70     ecut=    50.00 Ry     beta= 0.40
     Davidson diagonalization with overlap

---- Real-time Memory Report at c_bands before calling an iterative solver
          8255 MiB given to the printing process from OS
          -876 MiB allocation reported by mallinfo(arena+hblkhd)
         51601 MiB available memory on the node where the printing process lives
     GPU memory used/free/total (MiB): 5134 / 11146 / 16280
------------------
     ethr =  6.35E-05,  avg # of iterations =  1.6

     negative rho (up, down):  3.924E+00 1.180E+00

     total cpu time spent up to now is     2212.4 secs

     total energy              =   -4445.40926625 Ry
     estimated scf accuracy    <       0.07599849 Ry

     total magnetization       =     0.40 Bohr mag/cell
     absolute magnetization    =     9.57 Bohr mag/cell
[tb_dev] Currently allocated     2.68E+01 Mbytes, locked:    0 /  13
[tb_pin] Currently allocated     0.00E+00 Mbytes, locked:    0 /   0

     iteration # 71     ecut=    50.00 Ry     beta= 0.40
     Davidson diagonalization with overlap

---- Real-time Memory Report at c_bands before calling an iterative solver
          8273 MiB given to the printing process from OS
          -857 MiB allocation reported by mallinfo(arena+hblkhd)
         51581 MiB available memory on the node where the printing process lives
     GPU memory used/free/total (MiB): 5134 / 11146 / 16280
------------------
     ethr =  5.35E-05,  avg # of iterations =  1.4

     negative rho (up, down):  3.910E+00 1.186E+00

     total cpu time spent up to now is     2242.3 secs

     total energy              =   -4445.41006042 Ry
     estimated scf accuracy    <       0.06723935 Ry

     total magnetization       =     0.37 Bohr mag/cell
     absolute magnetization    =     9.25 Bohr mag/cell
[tb_dev] Currently allocated     2.68E+01 Mbytes, locked:    0 /  13
[tb_pin] Currently allocated     0.00E+00 Mbytes, locked:    0 /   0

     iteration # 72     ecut=    50.00 Ry     beta= 0.40
     Davidson diagonalization with overlap

---- Real-time Memory Report at c_bands before calling an iterative solver
          8292 MiB given to the printing process from OS
          -822 MiB allocation reported by mallinfo(arena+hblkhd)
         51562 MiB available memory on the node where the printing process lives
     GPU memory used/free/total (MiB): 5134 / 11146 / 16280
------------------
     ethr =  4.74E-05,  avg # of iterations =  1.1

     negative rho (up, down):  3.917E+00 1.191E+00

     total cpu time spent up to now is     2271.5 secs

     total energy              =   -4445.41039699 Ry
     estimated scf accuracy    <       0.05245657 Ry

     total magnetization       =     0.35 Bohr mag/cell
     absolute magnetization    =     9.21 Bohr mag/cell
[tb_dev] Currently allocated     2.68E+01 Mbytes, locked:    0 /  13
[tb_pin] Currently allocated     0.00E+00 Mbytes, locked:    0 /   0

     iteration # 73     ecut=    50.00 Ry     beta= 0.40
     Davidson diagonalization with overlap

---- Real-time Memory Report at c_bands before calling an iterative solver
          8312 MiB given to the printing process from OS
          -803 MiB allocation reported by mallinfo(arena+hblkhd)
         51543 MiB available memory on the node where the printing process lives
     GPU memory used/free/total (MiB): 5134 / 11146 / 16280
------------------
     ethr =  3.69E-05,  avg # of iterations =  1.2

     negative rho (up, down):  3.917E+00 1.203E+00

     total cpu time spent up to now is     2301.0 secs

     total energy              =   -4445.41179665 Ry
     estimated scf accuracy    <       0.07957049 Ry

     total magnetization       =     0.33 Bohr mag/cell
     absolute magnetization    =     8.95 Bohr mag/cell
[tb_dev] Currently allocated     2.68E+01 Mbytes, locked:    0 /  13
[tb_pin] Currently allocated     0.00E+00 Mbytes, locked:    0 /   0

     iteration # 74     ecut=    50.00 Ry     beta= 0.40
     Davidson diagonalization with overlap

---- Real-time Memory Report at c_bands before calling an iterative solver
          8329 MiB given to the printing process from OS
          -785 MiB allocation reported by mallinfo(arena+hblkhd)
         51529 MiB available memory on the node where the printing process lives
     GPU memory used/free/total (MiB): 5134 / 11146 / 16280
------------------
     ethr =  3.69E-05,  avg # of iterations =  3.3

     negative rho (up, down):  3.918E+00 1.200E+00

     total cpu time spent up to now is     2336.4 secs

     total energy              =   -4445.41879423 Ry
     estimated scf accuracy    <       0.37459256 Ry

     total magnetization       =     0.25 Bohr mag/cell
     absolute magnetization    =    10.84 Bohr mag/cell
[tb_dev] Currently allocated     2.68E+01 Mbytes, locked:    0 /  13
[tb_pin] Currently allocated     0.00E+00 Mbytes, locked:    0 /   0

     iteration # 75     ecut=    50.00 Ry     beta= 0.40
     Davidson diagonalization with overlap

---- Real-time Memory Report at c_bands before calling an iterative solver
          8349 MiB given to the printing process from OS
          -766 MiB allocation reported by mallinfo(arena+hblkhd)
         51481 MiB available memory on the node where the printing process lives
     GPU memory used/free/total (MiB): 5134 / 11146 / 16280
------------------
     ethr =  3.69E-05,  avg # of iterations =  1.0

     negative rho (up, down):  3.919E+00 1.203E+00

     total cpu time spent up to now is     2365.6 secs

     total energy              =   -4445.41489312 Ry
     estimated scf accuracy    <       0.43097626 Ry

     total magnetization       =     0.26 Bohr mag/cell
     absolute magnetization    =    10.95 Bohr mag/cell
[tb_dev] Currently allocated     2.68E+01 Mbytes, locked:    0 /  13
[tb_pin] Currently allocated     0.00E+00 Mbytes, locked:    0 /   0

     iteration # 76     ecut=    50.00 Ry     beta= 0.40
     Davidson diagonalization with overlap

---- Real-time Memory Report at c_bands before calling an iterative solver
          8373 MiB given to the printing process from OS
          -747 MiB allocation reported by mallinfo(arena+hblkhd)
         51467 MiB available memory on the node where the printing process lives
     GPU memory used/free/total (MiB): 5134 / 11146 / 16280
------------------
     ethr =  3.69E-05,  avg # of iterations =  1.6

     negative rho (up, down):  3.880E+00 1.205E+00

     total cpu time spent up to now is     2396.1 secs

     total energy              =   -4445.41533232 Ry
     estimated scf accuracy    <       0.37725217 Ry

     total magnetization       =     0.26 Bohr mag/cell
     absolute magnetization    =    10.29 Bohr mag/cell
[tb_dev] Currently allocated     2.68E+01 Mbytes, locked:    0 /  13
[tb_pin] Currently allocated     0.00E+00 Mbytes, locked:    0 /   0

     iteration # 77     ecut=    50.00 Ry     beta= 0.40
     Davidson diagonalization with overlap

---- Real-time Memory Report at c_bands before calling an iterative solver
          8392 MiB given to the printing process from OS
          -728 MiB allocation reported by mallinfo(arena+hblkhd)
         51452 MiB available memory on the node where the printing process lives
     GPU memory used/free/total (MiB): 5134 / 11146 / 16280
------------------
     ethr =  3.69E-05,  avg # of iterations =  2.0

     negative rho (up, down):  3.916E+00 1.169E+00

     total cpu time spent up to now is     2427.0 secs

     total energy              =   -4445.40782654 Ry
     estimated scf accuracy    <       0.32650652 Ry

     total magnetization       =     0.22 Bohr mag/cell
     absolute magnetization    =    10.76 Bohr mag/cell
[tb_dev] Currently allocated     2.68E+01 Mbytes, locked:    0 /  13
[tb_pin] Currently allocated     0.00E+00 Mbytes, locked:    0 /   0

     iteration # 78     ecut=    50.00 Ry     beta= 0.40
     Davidson diagonalization with overlap

---- Real-time Memory Report at c_bands before calling an iterative solver
          8417 MiB given to the printing process from OS
          -709 MiB allocation reported by mallinfo(arena+hblkhd)
         51436 MiB available memory on the node where the printing process lives
     GPU memory used/free/total (MiB): 5134 / 11146 / 16280
------------------
     ethr =  3.69E-05,  avg # of iterations =  3.0

     negative rho (up, down):  3.927E+00 1.164E+00

     total cpu time spent up to now is     2461.3 secs

     total energy              =   -4445.41594050 Ry
     estimated scf accuracy    <       0.37289229 Ry

     total magnetization       =     0.29 Bohr mag/cell
     absolute magnetization    =     9.32 Bohr mag/cell
[tb_dev] Currently allocated     2.68E+01 Mbytes, locked:    0 /  13
[tb_pin] Currently allocated     0.00E+00 Mbytes, locked:    0 /   0

     iteration # 79     ecut=    50.00 Ry     beta= 0.40
     Davidson diagonalization with overlap

---- Real-time Memory Report at c_bands before calling an iterative solver
          8437 MiB given to the printing process from OS
          -690 MiB allocation reported by mallinfo(arena+hblkhd)
         51416 MiB available memory on the node where the printing process lives
     GPU memory used/free/total (MiB): 5134 / 11146 / 16280
------------------
     ethr =  3.69E-05,  avg # of iterations =  2.3

     negative rho (up, down):  3.927E+00 1.165E+00

     total cpu time spent up to now is     2493.2 secs

     total energy              =   -4445.41835497 Ry
     estimated scf accuracy    <       0.45762876 Ry

     total magnetization       =     0.42 Bohr mag/cell
     absolute magnetization    =     9.70 Bohr mag/cell
[tb_dev] Currently allocated     2.68E+01 Mbytes, locked:    0 /  13
[tb_pin] Currently allocated     0.00E+00 Mbytes, locked:    0 /   0

     iteration # 80     ecut=    50.00 Ry     beta= 0.40
     Davidson diagonalization with overlap

---- Real-time Memory Report at c_bands before calling an iterative solver
          8454 MiB given to the printing process from OS
          -658 MiB allocation reported by mallinfo(arena+hblkhd)
         51395 MiB available memory on the node where the printing process lives
     GPU memory used/free/total (MiB): 5134 / 11146 / 16280
------------------
     ethr =  3.69E-05,  avg # of iterations =  1.6

     negative rho (up, down):  3.944E+00 1.173E+00

     total cpu time spent up to now is     2523.4 secs

     total energy              =   -4445.41371877 Ry
     estimated scf accuracy    <       0.50345305 Ry

     total magnetization       =     0.38 Bohr mag/cell
     absolute magnetization    =    10.13 Bohr mag/cell

     End of self-consistent calculation

     convergence NOT achieved after  80 iterations: stopping

     Writing config to output data dir ./out/aiida.save/
 
     init_run     :     68.84s CPU     20.37s WALL (       1 calls)
     electrons    :   5367.01s CPU   2502.34s WALL (       1 calls)

     Called by init_run:
     wfcinit      :     10.66s CPU     13.22s WALL (       1 calls)
                                       13.22s GPU  (       1 calls)
     wfcinit:atom :      0.08s CPU      0.21s WALL (     156 calls)
                                        0.21s GPU  (     156 calls)
     wfcinit:wfcr :      8.54s CPU      9.42s WALL (     156 calls)
                                        9.42s GPU  (     156 calls)
     potinit      :     42.91s CPU      3.92s WALL (       1 calls)
     hinit0       :      8.01s CPU      1.94s WALL (       1 calls)

     Called by electrons:
     c_bands      :   1724.77s CPU   1771.37s WALL (      80 calls)
     sum_band     :    420.85s CPU    436.22s WALL (      80 calls)
     v_of_rho     :    108.03s CPU     11.03s WALL (      81 calls)
     v_h          :     19.73s CPU      1.85s WALL (      81 calls)
     v_xc         :     88.29s CPU      9.18s WALL (      81 calls)
     newd         :    145.38s CPU     13.43s WALL (      81 calls)
                                       13.43s GPU  (      81 calls)
     PAW_pot      :   2846.12s CPU    257.47s WALL (      81 calls)
     mix_rho      :    105.57s CPU     11.04s WALL (      80 calls)

     Called by c_bands:
     init_us_2    :     53.26s CPU     69.59s WALL (   25116 calls)
     init_us_2:gp :     52.72s CPU     69.07s WALL (   25116 calls)
     cegterg      :   1412.57s CPU   1454.01s WALL (   12480 calls)

     Called by sum_band:
     sum_band:wei :      1.16s CPU      1.16s WALL (      80 calls)
                                        1.16s GPU  (      80 calls)
     sum_band:loo :    402.09s CPU    417.26s WALL (      80 calls)
                                      417.27s GPU  (      80 calls)
     sum_band:buf :    121.18s CPU    122.65s WALL (   12480 calls)
                                      122.56s GPU  (   12480 calls)
     sum_band:ini :     24.65s CPU     31.24s WALL (   12480 calls)
                                       31.16s GPU  (   12480 calls)
     sum_band:cal :      0.56s CPU     16.49s WALL (   12480 calls)
                                       14.00s GPU  (   12480 calls)
     sum_band:bec :      4.75s CPU      5.03s WALL (   12480 calls)
                                        4.95s GPU  (   12480 calls)
     addusdens    :     11.88s CPU     12.05s WALL (      80 calls)
                                       12.05s GPU  (      80 calls)
     addusd:skk   :      0.07s CPU      0.07s WALL (     160 calls)
                                        0.07s GPU  (     160 calls)

     Called by *egterg:
     cdiaghg      :    210.83s CPU    239.83s WALL (   36476 calls)
                                      239.57s GPU  (   36476 calls)
     cegterg:over :     26.76s CPU     27.29s WALL (   23996 calls)
     cegterg:upda :     27.81s CPU     28.79s WALL (   23996 calls)
     cegterg:last :     24.39s CPU     24.69s WALL (   18760 calls)
     h_psi        :   1054.58s CPU   1065.33s WALL (   36632 calls)
                                     1063.65s GPU  (   36632 calls)
     s_psi        :     10.83s CPU     44.97s WALL (   36632 calls)
                                       41.48s GPU  (   36632 calls)
     g_psi        :      0.19s CPU      3.22s WALL (   23996 calls)
                                        3.06s GPU  (   23996 calls)

     Called by h_psi:
     h_psi:calbec :      1.37s CPU     34.12s WALL (   36632 calls)
                                       33.88s GPU  (   36632 calls)
     vloc_psi     :    971.20s CPU    980.38s WALL (   36632 calls)
                                      980.16s GPU  (   36632 calls)
     add_vuspsi   :     11.69s CPU     43.61s WALL (   36632 calls)
                                       43.37s GPU  (   36632 calls)

     General routines
     calbec       :      1.45s CPU      1.49s WALL (   49112 calls)
     fft          :      6.32s CPU      1.43s WALL (    2023 calls)
                                        1.03s GPU  (    1861 calls)
     ffts         :      0.38s CPU      0.16s WALL (     322 calls)
                                        0.03s GPU  (     160 calls)
     fftw         :      7.82s CPU    881.72s WALL (  403366 calls)
                                      877.39s GPU  (  403366 calls)
     interpolate  :     23.49s CPU      2.09s WALL (     162 calls)
     davcio       :      0.12s CPU      3.35s WALL (     174 calls)
 
     Parallel routines

     PAW routines
     PAW_pot      :   2846.12s CPU    257.47s WALL (      81 calls)
     PAW_symme    :      1.18s CPU      0.19s WALL (     161 calls)
 
     PWSCF        :      1h30m CPU  42m 7.74s WALL

 
   This run was terminated on:   0:50:39  23Oct2023            

=------------------------------------------------------------------------------=
   JOB DONE.
=------------------------------------------------------------------------------=
