
     Program PWSCF v.7.2 starts on 23Oct2023 at 18:16:37 

     This program is part of the open-source Quantum ESPRESSO suite
     for quantum simulation of materials; please cite
         "P. Giannozzi et al., J. Phys.:Condens. Matter 21 395502 (2009);
         "P. Giannozzi et al., J. Phys.:Condens. Matter 29 465901 (2017);
         "P. Giannozzi et al., J. Chem. Phys. 152 154105 (2020);
          URL http://www.quantum-espresso.org", 
     in publications or presentations arising from this work. More details at
     http://www.quantum-espresso.org/quote

     Parallel version (MPI & OpenMP), running on      12 processor cores
     Number of MPI processes:                 1
     Threads/MPI process:                    12

     MPI processes distributed on     1 nodes
     60524 MiB available memory on the printing compute node when the environment starts
 
     Reading input from aiida.in

     Current dimensions of program PWSCF are:
     Max number of different atomic species (ntypx) = 10
     Max number of k-points (npk) =  40000
     Max angular momentum in pseudopotentials (lmaxx) =  4
     Message from routine setup:
     using ibrav=0 with symmetry is DISCOURAGED, use correct ibrav instead
 
     Subspace diagonalization in iterative solution of the eigenvalue problem:
     a serial algorithm will be used

 
     G-vector sticks info
     --------------------
     sticks:   dense  smooth     PW     G-vecs:    dense   smooth      PW
     Sum        1573     793    241                41151    14553    2445
 
     Using Slab Decomposition
 


     bravais-lattice index     =            0
     lattice parameter (alat)  =       8.4584  a.u.
     unit-cell volume          =     427.9054 (a.u.)^3
     number of atoms/cell      =            4
     number of atomic types    =            4
     number of electrons       =        52.00
     number of Kohn-Sham states=           31
     kinetic-energy cutoff     =      40.0000  Ry
     charge density cutoff     =     320.0000  Ry
     scf convergence threshold =      8.0E-10
     mixing beta               =       0.1000
     number of iterations used =            8  plain     mixing
     Exchange-correlation= SLA  PW   PSX  PSC
                           (   1   4  10   8   0   0   0)

     GPU acceleration is ACTIVE.


     GPU used by master process:

        Device Number: 0
        Device name: Tesla P100-PCIE-16GB
        Compute capability : 60
        Ratio of single to double precision performance  : 2
        Memory Clock Rate (KHz): 715000
        Memory Bus Width (bits): 4096
        Peak Memory Bandwidth (GB/s): 732.16

     celldm(1)=   8.458388  celldm(2)=   0.000000  celldm(3)=   0.000000
     celldm(4)=   0.000000  celldm(5)=   0.000000  celldm(6)=   0.000000

     crystal axes: (cart. coord. in units of alat)
               a(1) = (   0.000000   0.707107   0.707107 )  
               a(2) = (   0.707107   0.000000   0.707107 )  
               a(3) = (   0.707107   0.707107   0.000000 )  

     reciprocal axes: (cart. coord. in units 2 pi/alat)
               b(1) = ( -0.707107  0.707107  0.707107 )  
               b(2) = (  0.707107 -0.707107  0.707107 )  
               b(3) = (  0.707107  0.707107 -0.707107 )  


     PseudoPot. # 1 for Cr read from file:
     ./pseudo/cr_pbesol_v1.5.uspp.F.UPF
     MD5 check sum: a621641e0be27168676a837af8893d0f
     Pseudo is Ultrasoft + core correction, Zval = 14.0
     Generated by new atomic code, or converted to UPF format
     Using radial grid of  857 points,  6 beta functions with: 
                l(1) =   0
                l(2) =   0
                l(3) =   1
                l(4) =   1
                l(5) =   2
                l(6) =   2
     Q(r) pseudized with  8 coefficients,  rinner =    0.950   0.950   0.950
                                                       0.950   0.950

     PseudoPot. # 2 for Ge read from file:
     ./pseudo/ge_pbesol_v1.4.uspp.F.UPF
     MD5 check sum: 7bed0412183f5e553a4d27ec7023354d
     Pseudo is Ultrasoft + core correction, Zval = 14.0
     Generated by new atomic code, or converted to UPF format
     Using radial grid of  873 points,  6 beta functions with: 
                l(1) =   0
                l(2) =   0
                l(3) =   1
                l(4) =   1
                l(5) =   2
                l(6) =   2
     Q(r) pseudized with  8 coefficients,  rinner =    1.400   1.400   1.400
                                                       1.400   1.400

     PseudoPot. # 3 for V  read from file:
     ./pseudo/v_pbesol_v1.4.uspp.F.UPF
     MD5 check sum: 72fa7d0034c41d8adc50bbc8c632b9f9
     Pseudo is Ultrasoft + core correction, Zval = 13.0
     Generated by new atomic code, or converted to UPF format
     Using radial grid of  853 points,  6 beta functions with: 
                l(1) =   0
                l(2) =   0
                l(3) =   1
                l(4) =   1
                l(5) =   2
                l(6) =   2
     Q(r) pseudized with  8 coefficients,  rinner =    1.100   1.100   1.100
                                                       1.100   1.100

     PseudoPot. # 4 for Y  read from file:
     ./pseudo/y_pbesol_v1.4.uspp.F.UPF
     MD5 check sum: dac24993bfd4491f22c7b9129ad9e93d
     Pseudo is Ultrasoft + core correction, Zval = 11.0
     Generated by new atomic code, or converted to UPF format
     Using radial grid of  885 points,  6 beta functions with: 
                l(1) =   0
                l(2) =   0
                l(3) =   1
                l(4) =   1
                l(5) =   2
                l(6) =   2
     Q(r) pseudized with  8 coefficients,  rinner =    1.200   1.200   1.200
                                                       1.200   1.200

     atomic species   valence    mass     pseudopotential
        Cr            14.00    51.99610     Cr( 1.00)
        Ge            14.00    72.64000     Ge( 1.00)
        V             13.00    50.94150     V ( 1.00)
        Y             11.00    88.90585     Y ( 1.00)

     Starting magnetic structure 
     atomic species   magnetization
        Cr           0.357
        Ge           0.100
        V            0.385
        Y            0.455

     24 Sym. Ops. (no inversion) found


                                    s                        frac. trans.

      isym =  1     identity                                     

 cryst.   s( 1) = (     1          0          0      )
                  (     0          1          0      )
                  (     0          0          1      )

 cart.    s( 1) = (  1.0000000 -0.0000000  0.0000000 )
                  ( -0.0000000  1.0000000  0.0000000 )
                  ( -0.0000000  0.0000000  1.0000000 )


      isym =  2     180 deg rotation - cart. axis [0,0,1]        

 cryst.   s( 2) = (     0          1         -1      )
                  (     1          0         -1      )
                  (     0          0         -1      )

 cart.    s( 2) = ( -1.0000000  0.0000000  0.0000000 )
                  (  0.0000000 -1.0000000  0.0000000 )
                  (  0.0000000 -0.0000000  1.0000000 )


      isym =  3     180 deg rotation - cart. axis [0,1,0]        

 cryst.   s( 3) = (     0         -1          1      )
                  (     0         -1          0      )
                  (     1         -1          0      )

 cart.    s( 3) = ( -1.0000000 -0.0000000 -0.0000000 )
                  (  0.0000000  1.0000000 -0.0000000 )
                  (  0.0000000  0.0000000 -1.0000000 )


      isym =  4     180 deg rotation - cart. axis [1,0,0]        

 cryst.   s( 4) = (    -1          0          0      )
                  (    -1          0          1      )
                  (    -1          1          0      )

 cart.    s( 4) = (  1.0000000  0.0000000 -0.0000000 )
                  ( -0.0000000 -1.0000000 -0.0000000 )
                  ( -0.0000000 -0.0000000 -1.0000000 )


      isym =  5     120 deg rotation - cart. axis [-1,-1,-1]     

 cryst.   s( 5) = (     0          0          1      )
                  (     1          0          0      )
                  (     0          1          0      )

 cart.    s( 5) = (  0.0000000  1.0000000 -0.0000000 )
                  (  0.0000000 -0.0000000  1.0000000 )
                  (  1.0000000 -0.0000000  0.0000000 )


      isym =  6     120 deg rotation - cart. axis [-1,1,1]       

 cryst.   s( 6) = (     1         -1          0      )
                  (     0         -1          1      )
                  (     0         -1          0      )

 cart.    s( 6) = ( -0.0000000 -1.0000000 -0.0000000 )
                  ( -0.0000000  0.0000000  1.0000000 )
                  ( -1.0000000  0.0000000  0.0000000 )


      isym =  7     120 deg rotation - cart. axis [1,1,-1]       

 cryst.   s( 7) = (    -1          1          0      )
                  (    -1          0          0      )
                  (    -1          0          1      )

 cart.    s( 7) = ( -0.0000000  1.0000000  0.0000000 )
                  ( -0.0000000 -0.0000000 -1.0000000 )
                  ( -1.0000000 -0.0000000 -0.0000000 )


      isym =  8     120 deg rotation - cart. axis [1,-1,1]       

 cryst.   s( 8) = (     0          0         -1      )
                  (     0          1         -1      )
                  (     1          0         -1      )

 cart.    s( 8) = (  0.0000000 -1.0000000  0.0000000 )
                  (  0.0000000  0.0000000 -1.0000000 )
                  (  1.0000000  0.0000000 -0.0000000 )


      isym =  9     120 deg rotation - cart. axis [1,1,1]        

 cryst.   s( 9) = (     0          1          0      )
                  (     0          0          1      )
                  (     1          0          0      )

 cart.    s( 9) = ( -0.0000000  0.0000000  1.0000000 )
                  (  1.0000000  0.0000000 -0.0000000 )
                  (  0.0000000  1.0000000 -0.0000000 )


      isym = 10     120 deg rotation - cart. axis [-1,1,-1]      

 cryst.   s(10) = (    -1          0          1      )
                  (    -1          1          0      )
                  (    -1          0          0      )

 cart.    s(10) = (  0.0000000 -0.0000000  1.0000000 )
                  ( -1.0000000 -0.0000000 -0.0000000 )
                  ( -0.0000000 -1.0000000 -0.0000000 )


      isym = 11     120 deg rotation - cart. axis [1,-1,-1]      

 cryst.   s(11) = (     1          0         -1      )
                  (     0          0         -1      )
                  (     0          1         -1      )

 cart.    s(11) = (  0.0000000  0.0000000 -1.0000000 )
                  ( -1.0000000  0.0000000  0.0000000 )
                  ( -0.0000000  1.0000000  0.0000000 )


      isym = 12     120 deg rotation - cart. axis [-1,-1,1]      

 cryst.   s(12) = (     0         -1          0      )
                  (     1         -1          0      )
                  (     0         -1          1      )

 cart.    s(12) = ( -0.0000000 -0.0000000 -1.0000000 )
                  (  1.0000000 -0.0000000  0.0000000 )
                  (  0.0000000 -1.0000000  0.0000000 )


      isym = 13     inv. 180 deg rotation - cart. axis [1,1,0]   

 cryst.   s(13) = (     1          0         -1      )
                  (     0          1         -1      )
                  (     0          0         -1      )

 cart.    s(13) = (  0.0000000 -1.0000000  0.0000000 )
                  ( -1.0000000  0.0000000  0.0000000 )
                  ( -0.0000000  0.0000000  1.0000000 )


      isym = 14     inv. 180 deg rotation - cart. axis [1,-1,0]  

 cryst.   s(14) = (     0          1          0      )
                  (     1          0          0      )
                  (     0          0          1      )

 cart.    s(14) = ( -0.0000000  1.0000000  0.0000000 )
                  (  1.0000000 -0.0000000  0.0000000 )
                  (  0.0000000 -0.0000000  1.0000000 )


      isym = 15     inv.  90 deg rotation - cart. axis [0,0,-1]  

 cryst.   s(15) = (     0         -1          0      )
                  (     0         -1          1      )
                  (     1         -1          0      )

 cart.    s(15) = ( -0.0000000 -1.0000000 -0.0000000 )
                  (  1.0000000  0.0000000 -0.0000000 )
                  (  0.0000000  0.0000000 -1.0000000 )


      isym = 16     inv.  90 deg rotation - cart. axis [0,0,1]   

 cryst.   s(16) = (    -1          0          1      )
                  (    -1          0          0      )
                  (    -1          1          0      )

 cart.    s(16) = (  0.0000000  1.0000000 -0.0000000 )
                  ( -1.0000000 -0.0000000 -0.0000000 )
                  ( -0.0000000 -0.0000000 -1.0000000 )


      isym = 17     inv. 180 deg rotation - cart. axis [1,0,1]   

 cryst.   s(17) = (     1         -1          0      )
                  (     0         -1          0      )
                  (     0         -1          1      )

 cart.    s(17) = ( -0.0000000 -0.0000000 -1.0000000 )
                  ( -0.0000000  1.0000000  0.0000000 )
                  ( -1.0000000  0.0000000  0.0000000 )


      isym = 18     inv. 180 deg rotation - cart. axis [-1,0,1]  

 cryst.   s(18) = (     0          0          1      )
                  (     0          1          0      )
                  (     1          0          0      )

 cart.    s(18) = (  0.0000000 -0.0000000  1.0000000 )
                  (  0.0000000  1.0000000 -0.0000000 )
                  (  1.0000000  0.0000000 -0.0000000 )


      isym = 19     inv.  90 deg rotation - cart. axis [0,1,0]   

 cryst.   s(19) = (     0          0         -1      )
                  (     1          0         -1      )
                  (     0          1         -1      )

 cart.    s(19) = (  0.0000000  0.0000000 -1.0000000 )
                  (  0.0000000 -1.0000000  0.0000000 )
                  (  1.0000000 -0.0000000  0.0000000 )


      isym = 20     inv.  90 deg rotation - cart. axis [0,-1,0]  

 cryst.   s(20) = (    -1          1          0      )
                  (    -1          0          1      )
                  (    -1          0          0      )

 cart.    s(20) = ( -0.0000000  0.0000000  1.0000000 )
                  ( -0.0000000 -1.0000000 -0.0000000 )
                  ( -1.0000000 -0.0000000 -0.0000000 )


      isym = 21     inv. 180 deg rotation - cart. axis [0,1,1]   

 cryst.   s(21) = (    -1          0          0      )
                  (    -1          1          0      )
                  (    -1          0          1      )

 cart.    s(21) = (  1.0000000 -0.0000000  0.0000000 )
                  ( -0.0000000 -0.0000000 -1.0000000 )
                  ( -0.0000000 -1.0000000 -0.0000000 )


      isym = 22     inv. 180 deg rotation - cart. axis [0,1,-1]  

 cryst.   s(22) = (     1          0          0      )
                  (     0          0          1      )
                  (     0          1          0      )

 cart.    s(22) = (  1.0000000  0.0000000 -0.0000000 )
                  ( -0.0000000  0.0000000  1.0000000 )
                  ( -0.0000000  1.0000000  0.0000000 )


      isym = 23     inv.  90 deg rotation - cart. axis [-1,0,0]  

 cryst.   s(23) = (     0          1         -1      )
                  (     0          0         -1      )
                  (     1          0         -1      )

 cart.    s(23) = ( -1.0000000  0.0000000  0.0000000 )
                  (  0.0000000  0.0000000 -1.0000000 )
                  (  0.0000000  1.0000000 -0.0000000 )


      isym = 24     inv.  90 deg rotation - cart. axis [1,0,0]   

 cryst.   s(24) = (     0         -1          1      )
                  (     1         -1          0      )
                  (     0         -1          0      )

 cart.    s(24) = ( -1.0000000 -0.0000000 -0.0000000 )
                  (  0.0000000 -0.0000000  1.0000000 )
                  (  0.0000000 -1.0000000  0.0000000 )


   Cartesian axes

     site n.     atom                  positions (alat units)
         1           Y   tau(   1) = (   0.3535534   0.3535534   0.3535534  )
         2           V   tau(   2) = (   0.7071068   0.0000000   0.0000000  )
         3           Cr  tau(   3) = (   0.0000000   0.0000000   0.0000000  )
         4           Ge  tau(   4) = (   0.3535534   0.3535534   1.0606602  )

   Crystallographic axes

     site n.     atom                  positions (cryst. coord.)
         1           Y   tau(   1) = (  0.2500000  0.2500000  0.2500000  )
         2           V   tau(   2) = ( -0.5000000  0.5000000  0.5000000  )
         3           Cr  tau(   3) = (  0.0000000  0.0000000  0.0000000  )
         4           Ge  tau(   4) = (  0.7500000  0.7500000 -0.2500000  )

     number of k points=    72  Marzari-Vanderbilt smearing, width (Ry)=  0.0100
                       cart. coord. in units 2pi/alat
        k(    1) = (   0.0000000   0.0000000   0.0000000), wk =   0.0005787
        k(    2) = (   0.0589256   0.0589256  -0.0589256), wk =   0.0046296
        k(    3) = (   0.1178511   0.1178511  -0.1178511), wk =   0.0046296
        k(    4) = (   0.1767767   0.1767767  -0.1767767), wk =   0.0046296
        k(    5) = (   0.2357023   0.2357023  -0.2357023), wk =   0.0046296
        k(    6) = (   0.2946278   0.2946278  -0.2946278), wk =   0.0046296
        k(    7) = (  -0.3535534  -0.3535534   0.3535534), wk =   0.0023148
        k(    8) = (   0.1178511   0.0000000  -0.0000000), wk =   0.0034722
        k(    9) = (   0.1767767   0.0589256  -0.0589256), wk =   0.0138889
        k(   10) = (   0.2357023   0.1178511  -0.1178511), wk =   0.0138889
        k(   11) = (   0.2946278   0.1767767  -0.1767767), wk =   0.0138889
        k(   12) = (   0.3535534   0.2357023  -0.2357023), wk =   0.0138889
        k(   13) = (  -0.2946278  -0.4124790   0.4124790), wk =   0.0138889
        k(   14) = (  -0.2357023  -0.3535534   0.3535534), wk =   0.0138889
        k(   15) = (  -0.1767767  -0.2946278   0.2946278), wk =   0.0138889
        k(   16) = (  -0.1178511  -0.2357023   0.2357023), wk =   0.0138889
        k(   17) = (  -0.0589256  -0.1767767   0.1767767), wk =   0.0138889
        k(   18) = (  -0.0000000  -0.1178511   0.1178511), wk =   0.0069444
        k(   19) = (   0.2357023   0.0000000  -0.0000000), wk =   0.0034722
        k(   20) = (   0.2946278   0.0589256  -0.0589256), wk =   0.0138889
        k(   21) = (   0.3535534   0.1178511  -0.1178511), wk =   0.0138889
        k(   22) = (   0.4124790   0.1767767  -0.1767767), wk =   0.0138889
        k(   23) = (  -0.2357023  -0.4714045   0.4714045), wk =   0.0138889
        k(   24) = (  -0.1767767  -0.4124790   0.4124790), wk =   0.0138889
        k(   25) = (  -0.1178511  -0.3535534   0.3535534), wk =   0.0138889
        k(   26) = (  -0.0589256  -0.2946278   0.2946278), wk =   0.0138889
        k(   27) = (   0.0000000  -0.2357023   0.2357023), wk =   0.0069444
        k(   28) = (   0.3535534   0.0000000   0.0000000), wk =   0.0034722
        k(   29) = (   0.4124790   0.0589256  -0.0589256), wk =   0.0138889
        k(   30) = (   0.4714045   0.1178511  -0.1178511), wk =   0.0138889
        k(   31) = (  -0.1767767  -0.5303301   0.5303301), wk =   0.0138889
        k(   32) = (  -0.1178511  -0.4714045   0.4714045), wk =   0.0138889
        k(   33) = (  -0.0589256  -0.4124790   0.4124790), wk =   0.0138889
        k(   34) = (   0.0000000  -0.3535534   0.3535534), wk =   0.0069444
        k(   35) = (   0.4714045   0.0000000  -0.0000000), wk =   0.0034722
        k(   36) = (   0.5303301   0.0589256  -0.0589256), wk =   0.0138889
        k(   37) = (  -0.1178511  -0.5892557   0.5892557), wk =   0.0138889
        k(   38) = (  -0.0589256  -0.5303301   0.5303301), wk =   0.0138889
        k(   39) = (  -0.0000000  -0.4714045   0.4714045), wk =   0.0069444
        k(   40) = (   0.5892557   0.0000000  -0.0000000), wk =   0.0034722
        k(   41) = (  -0.0589256  -0.6481812   0.6481812), wk =   0.0138889
        k(   42) = (   0.0000000  -0.5892557   0.5892557), wk =   0.0069444
        k(   43) = (  -0.7071068   0.0000000   0.0000000), wk =   0.0017361
        k(   44) = (   0.2357023   0.1178511   0.0000000), wk =   0.0138889
        k(   45) = (   0.2946278   0.1767767  -0.0589256), wk =   0.0277778
        k(   46) = (   0.3535534   0.2357023  -0.1178511), wk =   0.0277778
        k(   47) = (  -0.2946278  -0.4124790   0.5303301), wk =   0.0277778
        k(   48) = (  -0.2357023  -0.3535534   0.4714045), wk =   0.0138889
        k(   49) = (   0.3535534   0.1178511  -0.0000000), wk =   0.0138889
        k(   50) = (   0.4124790   0.1767767  -0.0589256), wk =   0.0277778
        k(   51) = (  -0.2357023  -0.4714045   0.5892557), wk =   0.0277778
        k(   52) = (  -0.1767767  -0.4124790   0.5303301), wk =   0.0277778
        k(   53) = (  -0.1178511  -0.3535534   0.4714045), wk =   0.0277778
        k(   54) = (  -0.0589256  -0.2946278   0.4124790), wk =   0.0277778
        k(   55) = (   0.0000000  -0.2357023   0.3535534), wk =   0.0138889
        k(   56) = (   0.4714045   0.1178511  -0.0000000), wk =   0.0138889
        k(   57) = (  -0.1767767  -0.5303301   0.6481812), wk =   0.0277778
        k(   58) = (  -0.1178511  -0.4714045   0.5892557), wk =   0.0277778
        k(   59) = (  -0.0589256  -0.4124790   0.5303301), wk =   0.0277778
        k(   60) = (   0.0000000  -0.3535534   0.4714045), wk =   0.0138889
        k(   61) = (  -0.1178511  -0.5892557   0.7071068), wk =   0.0138889
        k(   62) = (  -0.0589256  -0.5303301   0.6481812), wk =   0.0277778
        k(   63) = (  -0.0000000  -0.4714045   0.5892557), wk =   0.0138889
        k(   64) = (  -0.7071068   0.1178511  -0.0000000), wk =   0.0069444
        k(   65) = (  -0.2357023  -0.4714045   0.7071068), wk =   0.0138889
        k(   66) = (  -0.1767767  -0.4124790   0.6481812), wk =   0.0277778
        k(   67) = (  -0.1178511  -0.3535534   0.5892557), wk =   0.0138889
        k(   68) = (  -0.1178511  -0.4714045   0.7071068), wk =   0.0138889
        k(   69) = (  -0.0589256  -0.4124790   0.6481812), wk =   0.0277778
        k(   70) = (   0.0000000  -0.3535534   0.5892557), wk =   0.0138889
        k(   71) = (  -0.7071068   0.2357023   0.0000000), wk =   0.0069444
        k(   72) = (  -0.7071068   0.3535534   0.0000000), wk =   0.0034722

                       cryst. coord.
        k(    1) = (   0.0000000   0.0000000   0.0000000), wk =   0.0005787
        k(    2) = (   0.0000000   0.0000000   0.0833333), wk =   0.0046296
        k(    3) = (   0.0000000   0.0000000   0.1666667), wk =   0.0046296
        k(    4) = (   0.0000000   0.0000000   0.2500000), wk =   0.0046296
        k(    5) = (   0.0000000   0.0000000   0.3333333), wk =   0.0046296
        k(    6) = (  -0.0000000  -0.0000000   0.4166667), wk =   0.0046296
        k(    7) = (  -0.0000000  -0.0000000  -0.5000000), wk =   0.0023148
        k(    8) = (  -0.0000000   0.0833333   0.0833333), wk =   0.0034722
        k(    9) = (   0.0000000   0.0833333   0.1666667), wk =   0.0138889
        k(   10) = (  -0.0000000   0.0833333   0.2500000), wk =   0.0138889
        k(   11) = (   0.0000000   0.0833333   0.3333333), wk =   0.0138889
        k(   12) = (  -0.0000000   0.0833333   0.4166667), wk =   0.0138889
        k(   13) = (  -0.0000000   0.0833333  -0.5000000), wk =   0.0138889
        k(   14) = (   0.0000000   0.0833333  -0.4166667), wk =   0.0138889
        k(   15) = (  -0.0000000   0.0833333  -0.3333333), wk =   0.0138889
        k(   16) = (  -0.0000000   0.0833333  -0.2500000), wk =   0.0138889
        k(   17) = (   0.0000000   0.0833333  -0.1666667), wk =   0.0138889
        k(   18) = (   0.0000000   0.0833333  -0.0833333), wk =   0.0069444
        k(   19) = (  -0.0000000   0.1666667   0.1666667), wk =   0.0034722
        k(   20) = (  -0.0000000   0.1666667   0.2500000), wk =   0.0138889
        k(   21) = (   0.0000000   0.1666667   0.3333333), wk =   0.0138889
        k(   22) = (   0.0000000   0.1666667   0.4166667), wk =   0.0138889
        k(   23) = (  -0.0000000   0.1666667  -0.5000000), wk =   0.0138889
        k(   24) = (  -0.0000000   0.1666667  -0.4166667), wk =   0.0138889
        k(   25) = (  -0.0000000   0.1666667  -0.3333333), wk =   0.0138889
        k(   26) = (   0.0000000   0.1666667  -0.2500000), wk =   0.0138889
        k(   27) = (   0.0000000   0.1666667  -0.1666667), wk =   0.0069444
        k(   28) = (   0.0000000   0.2500000   0.2500000), wk =   0.0034722
        k(   29) = (  -0.0000000   0.2500000   0.3333333), wk =   0.0138889
        k(   30) = (  -0.0000000   0.2500000   0.4166667), wk =   0.0138889
        k(   31) = (   0.0000000   0.2500000  -0.5000000), wk =   0.0138889
        k(   32) = (  -0.0000000   0.2500000  -0.4166667), wk =   0.0138889
        k(   33) = (  -0.0000000   0.2500000  -0.3333333), wk =   0.0138889
        k(   34) = (  -0.0000000   0.2500000  -0.2500000), wk =   0.0069444
        k(   35) = (  -0.0000000   0.3333333   0.3333333), wk =   0.0034722
        k(   36) = (  -0.0000000   0.3333333   0.4166667), wk =   0.0138889
        k(   37) = (   0.0000000   0.3333333  -0.5000000), wk =   0.0138889
        k(   38) = (  -0.0000000   0.3333333  -0.4166667), wk =   0.0138889
        k(   39) = (   0.0000000   0.3333333  -0.3333333), wk =   0.0069444
        k(   40) = (   0.0000000   0.4166667   0.4166667), wk =   0.0034722
        k(   41) = (   0.0000000   0.4166667  -0.5000000), wk =   0.0138889
        k(   42) = (   0.0000000   0.4166667  -0.4166667), wk =   0.0069444
        k(   43) = (   0.0000000  -0.5000000  -0.5000000), wk =   0.0017361
        k(   44) = (   0.0833333   0.1666667   0.2500000), wk =   0.0138889
        k(   45) = (   0.0833333   0.1666667   0.3333333), wk =   0.0277778
        k(   46) = (   0.0833333   0.1666667   0.4166667), wk =   0.0277778
        k(   47) = (   0.0833333   0.1666667  -0.5000000), wk =   0.0277778
        k(   48) = (   0.0833333   0.1666667  -0.4166667), wk =   0.0138889
        k(   49) = (   0.0833333   0.2500000   0.3333333), wk =   0.0138889
        k(   50) = (   0.0833333   0.2500000   0.4166667), wk =   0.0277778
        k(   51) = (   0.0833333   0.2500000  -0.5000000), wk =   0.0277778
        k(   52) = (   0.0833333   0.2500000  -0.4166667), wk =   0.0277778
        k(   53) = (   0.0833333   0.2500000  -0.3333333), wk =   0.0277778
        k(   54) = (   0.0833333   0.2500000  -0.2500000), wk =   0.0277778
        k(   55) = (   0.0833333   0.2500000  -0.1666667), wk =   0.0138889
        k(   56) = (   0.0833333   0.3333333   0.4166667), wk =   0.0138889
        k(   57) = (   0.0833333   0.3333333  -0.5000000), wk =   0.0277778
        k(   58) = (   0.0833333   0.3333333  -0.4166667), wk =   0.0277778
        k(   59) = (   0.0833333   0.3333333  -0.3333333), wk =   0.0277778
        k(   60) = (   0.0833333   0.3333333  -0.2500000), wk =   0.0138889
        k(   61) = (   0.0833333   0.4166667  -0.5000000), wk =   0.0138889
        k(   62) = (   0.0833333   0.4166667  -0.4166667), wk =   0.0277778
        k(   63) = (   0.0833333   0.4166667  -0.3333333), wk =   0.0138889
        k(   64) = (   0.0833333  -0.5000000  -0.4166667), wk =   0.0069444
        k(   65) = (   0.1666667   0.3333333  -0.5000000), wk =   0.0138889
        k(   66) = (   0.1666667   0.3333333  -0.4166667), wk =   0.0277778
        k(   67) = (   0.1666667   0.3333333  -0.3333333), wk =   0.0138889
        k(   68) = (   0.1666667   0.4166667  -0.4166667), wk =   0.0138889
        k(   69) = (   0.1666667   0.4166667  -0.3333333), wk =   0.0277778
        k(   70) = (   0.1666667   0.4166667  -0.2500000), wk =   0.0138889
        k(   71) = (   0.1666667  -0.5000000  -0.3333333), wk =   0.0069444
        k(   72) = (   0.2500000  -0.5000000  -0.2500000), wk =   0.0034722

     Dense  grid:    41151 G-vectors     FFT dimensions: (  50,  50,  50)

     Smooth grid:    14553 G-vectors     FFT dimensions: (  36,  36,  36)

     Dynamical RAM for                 wfc:       0.86 MB

     Dynamical RAM for     wfc (w. buffer):     125.38 MB

     Dynamical RAM for           str. fact:       2.51 MB

     Dynamical RAM for           local pot:       0.00 MB

     Dynamical RAM for          nlocal pot:       2.01 MB

     Dynamical RAM for                qrad:       5.74 MB

     Dynamical RAM for          rho,v,vnew:       9.49 MB

     Dynamical RAM for               rhoin:       3.16 MB

     Dynamical RAM for            rho*nmix:      20.09 MB

     Dynamical RAM for           G-vectors:       2.47 MB

     Dynamical RAM for          h,s,v(r/c):       0.18 MB

     Dynamical RAM for          <psi|beta>:       0.03 MB

     Dynamical RAM for                 psi:       1.73 MB

     Dynamical RAM for                hpsi:       1.73 MB

     Dynamical RAM for                spsi:       1.73 MB

     Dynamical RAM for      wfcinit/wfcrot:       1.75 MB

     Dynamical RAM for           addusdens:     118.05 MB

     Dynamical RAM for          addusforce:     118.06 MB

     Dynamical RAM for         addusstress:     127.15 MB

     Estimated static dynamical RAM per process >     159.62 MB

     Estimated max dynamical RAM per process >     306.87 MB

     Atomic positions and unit cell read from directory:
     ./out/aiida.save/
 

     Check: negative core charge=   -0.000004
     Generating pointlists ...
     new r_m :   0.2526 (alat units)  2.1366 (a.u.) for type    1
     new r_m :   0.2526 (alat units)  2.1366 (a.u.) for type    2
     new r_m :   0.2526 (alat units)  2.1366 (a.u.) for type    3
     new r_m :   0.2526 (alat units)  2.1366 (a.u.) for type    4

     The initial density is read from file :
     ./out/aiida.save/charge-density


     negative rho (up, down):  1.694E-04 1.550E-03
     Starting wfcs from file

     total cpu time spent up to now is        3.3 secs

     per-process dynamical memory:   400.8 Mb

     Self-consistent Calculation
[tb_dev] Currently allocated     3.05E-05 Mbytes, locked:    0 /   2
[tb_pin] Currently allocated     0.00E+00 Mbytes, locked:    0 /   0

     iteration #  1     ecut=    40.00 Ry     beta= 0.10
     Davidson diagonalization with overlap

---- Real-time Memory Report at c_bands before calling an iterative solver
           504 MiB given to the printing process from OS
           391 MiB allocation reported by mallinfo(arena+hblkhd)
         59889 MiB available memory on the node where the printing process lives
     GPU memory used/free/total (MiB): 598 / 15682 / 16280
------------------
     ethr =  1.00E-05,  avg # of iterations =  1.0

     Threshold (ethr) on eigenvalues was too large:
     Diagonalizing with lowered threshold

     Davidson diagonalization with overlap

---- Real-time Memory Report at c_bands before calling an iterative solver
           987 MiB given to the printing process from OS
           827 MiB allocation reported by mallinfo(arena+hblkhd)
         58913 MiB available memory on the node where the printing process lives
     GPU memory used/free/total (MiB): 892 / 15388 / 16280
------------------
     ethr =  4.08E-09,  avg # of iterations =  1.5

     negative rho (up, down):  1.696E-04 1.550E-03

     total cpu time spent up to now is        8.6 secs

     total energy              =    -626.13780462 Ry
     estimated scf accuracy    <       0.00000210 Ry

     total magnetization       =     3.59 Bohr mag/cell
     absolute magnetization    =     3.76 Bohr mag/cell
[tb_dev] Currently allocated     1.53E+00 Mbytes, locked:    0 /  11
[tb_pin] Currently allocated     0.00E+00 Mbytes, locked:    0 /   0

     iteration #  2     ecut=    40.00 Ry     beta= 0.10
     Davidson diagonalization with overlap

---- Real-time Memory Report at c_bands before calling an iterative solver
          1021 MiB given to the printing process from OS
           838 MiB allocation reported by mallinfo(arena+hblkhd)
         58897 MiB available memory on the node where the printing process lives
     GPU memory used/free/total (MiB): 908 / 15372 / 16280
------------------
     ethr =  4.05E-09,  avg # of iterations =  1.5

     negative rho (up, down):  1.697E-04 1.550E-03

     total cpu time spent up to now is       10.9 secs

     total energy              =    -626.13780482 Ry
     estimated scf accuracy    <       0.00000160 Ry

     total magnetization       =     3.59 Bohr mag/cell
     absolute magnetization    =     3.76 Bohr mag/cell
[tb_dev] Currently allocated     1.53E+00 Mbytes, locked:    0 /  11
[tb_pin] Currently allocated     0.00E+00 Mbytes, locked:    0 /   0

     iteration #  3     ecut=    40.00 Ry     beta= 0.10
     Davidson diagonalization with overlap

---- Real-time Memory Report at c_bands before calling an iterative solver
          1024 MiB given to the printing process from OS
           838 MiB allocation reported by mallinfo(arena+hblkhd)
         58895 MiB available memory on the node where the printing process lives
     GPU memory used/free/total (MiB): 908 / 15372 / 16280
------------------
     ethr =  3.07E-09,  avg # of iterations =  1.0

     negative rho (up, down):  1.702E-04 1.549E-03

     total cpu time spent up to now is       13.0 secs

     total energy              =    -626.13780562 Ry
     estimated scf accuracy    <       0.00000114 Ry

     total magnetization       =     3.58 Bohr mag/cell
     absolute magnetization    =     3.76 Bohr mag/cell
[tb_dev] Currently allocated     1.53E+00 Mbytes, locked:    0 /  11
[tb_pin] Currently allocated     0.00E+00 Mbytes, locked:    0 /   0

     iteration #  4     ecut=    40.00 Ry     beta= 0.10
     Davidson diagonalization with overlap

---- Real-time Memory Report at c_bands before calling an iterative solver
          1027 MiB given to the printing process from OS
           838 MiB allocation reported by mallinfo(arena+hblkhd)
         58896 MiB available memory on the node where the printing process lives
     GPU memory used/free/total (MiB): 908 / 15372 / 16280
------------------
     ethr =  2.20E-09,  avg # of iterations =  2.8

     negative rho (up, down):  1.698E-04 1.549E-03

     total cpu time spent up to now is       16.0 secs

     total energy              =    -626.13780501 Ry
     estimated scf accuracy    <       0.00000091 Ry

     total magnetization       =     3.58 Bohr mag/cell
     absolute magnetization    =     3.75 Bohr mag/cell
[tb_dev] Currently allocated     1.53E+00 Mbytes, locked:    0 /  11
[tb_pin] Currently allocated     0.00E+00 Mbytes, locked:    0 /   0

     iteration #  5     ecut=    40.00 Ry     beta= 0.10
     Davidson diagonalization with overlap

---- Real-time Memory Report at c_bands before calling an iterative solver
          1027 MiB given to the printing process from OS
           838 MiB allocation reported by mallinfo(arena+hblkhd)
         58898 MiB available memory on the node where the printing process lives
     GPU memory used/free/total (MiB): 926 / 15354 / 16280
------------------
     ethr =  1.74E-09,  avg # of iterations =  1.1

     negative rho (up, down):  1.722E-04 1.547E-03

     total cpu time spent up to now is       18.1 secs

     total energy              =    -626.13780607 Ry
     estimated scf accuracy    <       0.00000138 Ry

     total magnetization       =     3.58 Bohr mag/cell
     absolute magnetization    =     3.76 Bohr mag/cell
[tb_dev] Currently allocated     1.53E+00 Mbytes, locked:    0 /  11
[tb_pin] Currently allocated     0.00E+00 Mbytes, locked:    0 /   0

     iteration #  6     ecut=    40.00 Ry     beta= 0.10
     Davidson diagonalization with overlap

---- Real-time Memory Report at c_bands before calling an iterative solver
          1029 MiB given to the printing process from OS
           838 MiB allocation reported by mallinfo(arena+hblkhd)
         58897 MiB available memory on the node where the printing process lives
     GPU memory used/free/total (MiB): 926 / 15354 / 16280
------------------
     ethr =  1.74E-09,  avg # of iterations =  5.5

     negative rho (up, down):  1.725E-04 1.547E-03

     total cpu time spent up to now is       22.9 secs

     total energy              =    -626.13781004 Ry
     estimated scf accuracy    <       0.00000890 Ry

     total magnetization       =     3.57 Bohr mag/cell
     absolute magnetization    =     3.74 Bohr mag/cell
[tb_dev] Currently allocated     1.53E+00 Mbytes, locked:    0 /  11
[tb_pin] Currently allocated     0.00E+00 Mbytes, locked:    0 /   0

     iteration #  7     ecut=    40.00 Ry     beta= 0.10
     Davidson diagonalization with overlap

---- Real-time Memory Report at c_bands before calling an iterative solver
          1029 MiB given to the printing process from OS
           839 MiB allocation reported by mallinfo(arena+hblkhd)
         58898 MiB available memory on the node where the printing process lives
     GPU memory used/free/total (MiB): 970 / 15310 / 16280
------------------
     ethr =  1.74E-09,  avg # of iterations =  1.1

     negative rho (up, down):  1.726E-04 1.547E-03

     total cpu time spent up to now is       25.1 secs

     total energy              =    -626.13781028 Ry
     estimated scf accuracy    <       0.00000812 Ry

     total magnetization       =     3.57 Bohr mag/cell
     absolute magnetization    =     3.74 Bohr mag/cell
[tb_dev] Currently allocated     1.53E+00 Mbytes, locked:    0 /  11
[tb_pin] Currently allocated     0.00E+00 Mbytes, locked:    0 /   0

     iteration #  8     ecut=    40.00 Ry     beta= 0.10
     Davidson diagonalization with overlap

---- Real-time Memory Report at c_bands before calling an iterative solver
          1033 MiB given to the printing process from OS
           840 MiB allocation reported by mallinfo(arena+hblkhd)
         58896 MiB available memory on the node where the printing process lives
     GPU memory used/free/total (MiB): 970 / 15310 / 16280
------------------
     ethr =  1.74E-09,  avg # of iterations =  1.0

     negative rho (up, down):  1.726E-04 1.547E-03

     total cpu time spent up to now is       27.2 secs

     total energy              =    -626.13781030 Ry
     estimated scf accuracy    <       0.00000818 Ry

     total magnetization       =     3.57 Bohr mag/cell
     absolute magnetization    =     3.74 Bohr mag/cell
[tb_dev] Currently allocated     1.53E+00 Mbytes, locked:    0 /  11
[tb_pin] Currently allocated     0.00E+00 Mbytes, locked:    0 /   0

     iteration #  9     ecut=    40.00 Ry     beta= 0.10
     Davidson diagonalization with overlap

---- Real-time Memory Report at c_bands before calling an iterative solver
          1034 MiB given to the printing process from OS
           841 MiB allocation reported by mallinfo(arena+hblkhd)
         58894 MiB available memory on the node where the printing process lives
     GPU memory used/free/total (MiB): 970 / 15310 / 16280
------------------
     ethr =  1.74E-09,  avg # of iterations =  1.0

     negative rho (up, down):  1.754E-04 1.545E-03

     total cpu time spent up to now is       29.4 secs

     total energy              =    -626.13781005 Ry
     estimated scf accuracy    <       0.00000821 Ry

     total magnetization       =     3.57 Bohr mag/cell
     absolute magnetization    =     3.74 Bohr mag/cell
[tb_dev] Currently allocated     1.53E+00 Mbytes, locked:    0 /  11
[tb_pin] Currently allocated     0.00E+00 Mbytes, locked:    0 /   0

     iteration # 10     ecut=    40.00 Ry     beta= 0.10
     Davidson diagonalization with overlap

---- Real-time Memory Report at c_bands before calling an iterative solver
          1037 MiB given to the printing process from OS
           842 MiB allocation reported by mallinfo(arena+hblkhd)
         58892 MiB available memory on the node where the printing process lives
     GPU memory used/free/total (MiB): 970 / 15310 / 16280
------------------
     ethr =  1.74E-09,  avg # of iterations =  5.3

     negative rho (up, down):  1.750E-04 1.545E-03

     total cpu time spent up to now is       34.1 secs

     total energy              =    -626.13781171 Ry
     estimated scf accuracy    <       0.00001532 Ry

     total magnetization       =     3.55 Bohr mag/cell
     absolute magnetization    =     3.72 Bohr mag/cell
[tb_dev] Currently allocated     1.53E+00 Mbytes, locked:    0 /  11
[tb_pin] Currently allocated     0.00E+00 Mbytes, locked:    0 /   0

     iteration # 11     ecut=    40.00 Ry     beta= 0.10
     Davidson diagonalization with overlap

---- Real-time Memory Report at c_bands before calling an iterative solver
          1037 MiB given to the printing process from OS
           849 MiB allocation reported by mallinfo(arena+hblkhd)
         58893 MiB available memory on the node where the printing process lives
     GPU memory used/free/total (MiB): 980 / 15300 / 16280
------------------
     ethr =  1.74E-09,  avg # of iterations =  5.2

     negative rho (up, down):  1.722E-04 1.547E-03

     total cpu time spent up to now is       38.6 secs

     total energy              =    -626.13780370 Ry
     estimated scf accuracy    <       0.00000068 Ry

     total magnetization       =     3.55 Bohr mag/cell
     absolute magnetization    =     3.72 Bohr mag/cell
[tb_dev] Currently allocated     1.53E+00 Mbytes, locked:    0 /  11
[tb_pin] Currently allocated     0.00E+00 Mbytes, locked:    0 /   0

     iteration # 12     ecut=    40.00 Ry     beta= 0.10
     Davidson diagonalization with overlap

---- Real-time Memory Report at c_bands before calling an iterative solver
          1038 MiB given to the printing process from OS
           849 MiB allocation reported by mallinfo(arena+hblkhd)
         58893 MiB available memory on the node where the printing process lives
     GPU memory used/free/total (MiB): 980 / 15300 / 16280
------------------
     ethr =  1.30E-09,  avg # of iterations =  5.2

     negative rho (up, down):  1.717E-04 1.547E-03

     total cpu time spent up to now is       43.2 secs

     total energy              =    -626.13780843 Ry
     estimated scf accuracy    <       0.00000293 Ry

     total magnetization       =     3.57 Bohr mag/cell
     absolute magnetization    =     3.74 Bohr mag/cell
[tb_dev] Currently allocated     1.53E+00 Mbytes, locked:    0 /  11
[tb_pin] Currently allocated     0.00E+00 Mbytes, locked:    0 /   0

     iteration # 13     ecut=    40.00 Ry     beta= 0.10
     Davidson diagonalization with overlap

---- Real-time Memory Report at c_bands before calling an iterative solver
          1038 MiB given to the printing process from OS
           849 MiB allocation reported by mallinfo(arena+hblkhd)
         58888 MiB available memory on the node where the printing process lives
     GPU memory used/free/total (MiB): 980 / 15300 / 16280
------------------
     ethr =  1.30E-09,  avg # of iterations =  1.9

     negative rho (up, down):  1.799E-04 1.541E-03

     total cpu time spent up to now is       45.7 secs

     total energy              =    -626.13777594 Ry
     estimated scf accuracy    <       0.00000375 Ry

     total magnetization       =     3.57 Bohr mag/cell
     absolute magnetization    =     3.74 Bohr mag/cell
[tb_dev] Currently allocated     1.53E+00 Mbytes, locked:    0 /  11
[tb_pin] Currently allocated     0.00E+00 Mbytes, locked:    0 /   0

     iteration # 14     ecut=    40.00 Ry     beta= 0.10
     Davidson diagonalization with overlap

---- Real-time Memory Report at c_bands before calling an iterative solver
          1038 MiB given to the printing process from OS
           849 MiB allocation reported by mallinfo(arena+hblkhd)
         58889 MiB available memory on the node where the printing process lives
     GPU memory used/free/total (MiB): 980 / 15300 / 16280
------------------
     ethr =  1.30E-09,  avg # of iterations =  7.7

     negative rho (up, down):  1.243E-04 1.579E-03

     total cpu time spent up to now is       51.7 secs

     total energy              =    -626.13575672 Ry
     estimated scf accuracy    <       0.00000137 Ry

     total magnetization       =     3.51 Bohr mag/cell
     absolute magnetization    =     3.68 Bohr mag/cell
[tb_dev] Currently allocated     1.53E+00 Mbytes, locked:    0 /  11
[tb_pin] Currently allocated     0.00E+00 Mbytes, locked:    0 /   0

     iteration # 15     ecut=    40.00 Ry     beta= 0.10
     Davidson diagonalization with overlap

---- Real-time Memory Report at c_bands before calling an iterative solver
          1038 MiB given to the printing process from OS
           849 MiB allocation reported by mallinfo(arena+hblkhd)
         58892 MiB available memory on the node where the printing process lives
     GPU memory used/free/total (MiB): 980 / 15300 / 16280
------------------
     ethr =  1.30E-09,  avg # of iterations = 11.7

     negative rho (up, down):  1.998E-04 1.528E-03

     total cpu time spent up to now is       60.5 secs

     total energy              =    -626.13445307 Ry
     estimated scf accuracy    <       0.00001752 Ry

     total magnetization       =     3.85 Bohr mag/cell
     absolute magnetization    =     4.03 Bohr mag/cell
[tb_dev] Currently allocated     1.53E+00 Mbytes, locked:    0 /  11
[tb_pin] Currently allocated     0.00E+00 Mbytes, locked:    0 /   0

     iteration # 16     ecut=    40.00 Ry     beta= 0.10
     Davidson diagonalization with overlap

---- Real-time Memory Report at c_bands before calling an iterative solver
          1038 MiB given to the printing process from OS
           849 MiB allocation reported by mallinfo(arena+hblkhd)
         58893 MiB available memory on the node where the printing process lives
     GPU memory used/free/total (MiB): 980 / 15300 / 16280
------------------
     ethr =  1.30E-09,  avg # of iterations = 12.0

     negative rho (up, down):  1.929E-04 1.533E-03

     total cpu time spent up to now is       69.6 secs

     total energy              =    -626.13780322 Ry
     estimated scf accuracy    <       0.00000473 Ry

     total magnetization       =     3.38 Bohr mag/cell
     absolute magnetization    =     3.55 Bohr mag/cell
[tb_dev] Currently allocated     1.53E+00 Mbytes, locked:    0 /  11
[tb_pin] Currently allocated     0.00E+00 Mbytes, locked:    0 /   0

     iteration # 17     ecut=    40.00 Ry     beta= 0.10
     Davidson diagonalization with overlap

---- Real-time Memory Report at c_bands before calling an iterative solver
          1038 MiB given to the printing process from OS
           849 MiB allocation reported by mallinfo(arena+hblkhd)
         58894 MiB available memory on the node where the printing process lives
     GPU memory used/free/total (MiB): 980 / 15300 / 16280
------------------
     ethr =  1.30E-09,  avg # of iterations =  7.0

     negative rho (up, down):  1.694E-04 1.550E-03

     total cpu time spent up to now is       75.2 secs

     total energy              =    -626.13744582 Ry
     estimated scf accuracy    <       0.00000372 Ry

     total magnetization       =     3.43 Bohr mag/cell
     absolute magnetization    =     3.60 Bohr mag/cell
[tb_dev] Currently allocated     1.53E+00 Mbytes, locked:    0 /  11
[tb_pin] Currently allocated     0.00E+00 Mbytes, locked:    0 /   0

     iteration # 18     ecut=    40.00 Ry     beta= 0.10
     Davidson diagonalization with overlap

---- Real-time Memory Report at c_bands before calling an iterative solver
          1038 MiB given to the printing process from OS
           849 MiB allocation reported by mallinfo(arena+hblkhd)
         58894 MiB available memory on the node where the printing process lives
     GPU memory used/free/total (MiB): 980 / 15300 / 16280
------------------
     ethr =  1.30E-09,  avg # of iterations =  9.5

     negative rho (up, down):  1.672E-04 1.551E-03

     total cpu time spent up to now is       82.5 secs

     total energy              =    -626.13779777 Ry
     estimated scf accuracy    <       0.00000228 Ry

     total magnetization       =     3.58 Bohr mag/cell
     absolute magnetization    =     3.76 Bohr mag/cell
[tb_dev] Currently allocated     1.53E+00 Mbytes, locked:    0 /  11
[tb_pin] Currently allocated     0.00E+00 Mbytes, locked:    0 /   0

     iteration # 19     ecut=    40.00 Ry     beta= 0.10
     Davidson diagonalization with overlap

---- Real-time Memory Report at c_bands before calling an iterative solver
          1038 MiB given to the printing process from OS
           849 MiB allocation reported by mallinfo(arena+hblkhd)
         58894 MiB available memory on the node where the printing process lives
     GPU memory used/free/total (MiB): 980 / 15300 / 16280
------------------
     ethr =  1.30E-09,  avg # of iterations =  5.1

     negative rho (up, down):  1.663E-04 1.552E-03

     total cpu time spent up to now is       87.0 secs

     total energy              =    -626.13779853 Ry
     estimated scf accuracy    <       0.00000353 Ry

     total magnetization       =     3.60 Bohr mag/cell
     absolute magnetization    =     3.77 Bohr mag/cell
[tb_dev] Currently allocated     1.53E+00 Mbytes, locked:    0 /  11
[tb_pin] Currently allocated     0.00E+00 Mbytes, locked:    0 /   0

     iteration # 20     ecut=    40.00 Ry     beta= 0.10
     Davidson diagonalization with overlap

---- Real-time Memory Report at c_bands before calling an iterative solver
          1038 MiB given to the printing process from OS
           849 MiB allocation reported by mallinfo(arena+hblkhd)
         58895 MiB available memory on the node where the printing process lives
     GPU memory used/free/total (MiB): 980 / 15300 / 16280
------------------
     ethr =  1.30E-09,  avg # of iterations =  2.8

     negative rho (up, down):  1.581E-04 1.558E-03

     total cpu time spent up to now is       90.0 secs

     total energy              =    -626.13773849 Ry
     estimated scf accuracy    <       0.00000274 Ry

     total magnetization       =     3.60 Bohr mag/cell
     absolute magnetization    =     3.78 Bohr mag/cell
[tb_dev] Currently allocated     1.53E+00 Mbytes, locked:    0 /  11
[tb_pin] Currently allocated     0.00E+00 Mbytes, locked:    0 /   0

     iteration # 21     ecut=    40.00 Ry     beta= 0.10
     Davidson diagonalization with overlap

---- Real-time Memory Report at c_bands before calling an iterative solver
          1038 MiB given to the printing process from OS
           849 MiB allocation reported by mallinfo(arena+hblkhd)
         58895 MiB available memory on the node where the printing process lives
     GPU memory used/free/total (MiB): 980 / 15300 / 16280
------------------
     ethr =  1.30E-09,  avg # of iterations =  7.8

     negative rho (up, down):  1.609E-04 1.555E-03

     total cpu time spent up to now is       96.0 secs

     total energy              =    -626.13778277 Ry
     estimated scf accuracy    <       0.00000402 Ry

     total magnetization       =     3.65 Bohr mag/cell
     absolute magnetization    =     3.83 Bohr mag/cell
[tb_dev] Currently allocated     1.53E+00 Mbytes, locked:    0 /  11
[tb_pin] Currently allocated     0.00E+00 Mbytes, locked:    0 /   0

     iteration # 22     ecut=    40.00 Ry     beta= 0.10
     Davidson diagonalization with overlap

---- Real-time Memory Report at c_bands before calling an iterative solver
          1038 MiB given to the printing process from OS
           849 MiB allocation reported by mallinfo(arena+hblkhd)
         58895 MiB available memory on the node where the printing process lives
     GPU memory used/free/total (MiB): 980 / 15300 / 16280
------------------
     ethr =  1.30E-09,  avg # of iterations =  5.3

     negative rho (up, down):  1.628E-04 1.555E-03

     total cpu time spent up to now is      100.7 secs

     total energy              =    -626.13778953 Ry
     estimated scf accuracy    <       0.00000318 Ry

     total magnetization       =     3.64 Bohr mag/cell
     absolute magnetization    =     3.81 Bohr mag/cell
[tb_dev] Currently allocated     1.53E+00 Mbytes, locked:    0 /  11
[tb_pin] Currently allocated     0.00E+00 Mbytes, locked:    0 /   0

     iteration # 23     ecut=    40.00 Ry     beta= 0.10
     Davidson diagonalization with overlap

---- Real-time Memory Report at c_bands before calling an iterative solver
          1038 MiB given to the printing process from OS
           849 MiB allocation reported by mallinfo(arena+hblkhd)
         58896 MiB available memory on the node where the printing process lives
     GPU memory used/free/total (MiB): 980 / 15300 / 16280
------------------
     ethr =  1.30E-09,  avg # of iterations =  5.1

     negative rho (up, down):  1.624E-04 1.555E-03

     total cpu time spent up to now is      105.0 secs

     total energy              =    -626.13779067 Ry
     estimated scf accuracy    <       0.00000317 Ry

     total magnetization       =     3.63 Bohr mag/cell
     absolute magnetization    =     3.80 Bohr mag/cell
[tb_dev] Currently allocated     1.53E+00 Mbytes, locked:    0 /  11
[tb_pin] Currently allocated     0.00E+00 Mbytes, locked:    0 /   0

     iteration # 24     ecut=    40.00 Ry     beta= 0.10
     Davidson diagonalization with overlap

---- Real-time Memory Report at c_bands before calling an iterative solver
          1038 MiB given to the printing process from OS
           849 MiB allocation reported by mallinfo(arena+hblkhd)
         58896 MiB available memory on the node where the printing process lives
     GPU memory used/free/total (MiB): 980 / 15300 / 16280
------------------
     ethr =  1.30E-09,  avg # of iterations =  1.5

     negative rho (up, down):  1.529E-04 1.562E-03

     total cpu time spent up to now is      107.4 secs

     total energy              =    -626.13771017 Ry
     estimated scf accuracy    <       0.00000363 Ry

     total magnetization       =     3.63 Bohr mag/cell
     absolute magnetization    =     3.80 Bohr mag/cell
[tb_dev] Currently allocated     1.53E+00 Mbytes, locked:    0 /  11
[tb_pin] Currently allocated     0.00E+00 Mbytes, locked:    0 /   0

     iteration # 25     ecut=    40.00 Ry     beta= 0.10
     Davidson diagonalization with overlap

---- Real-time Memory Report at c_bands before calling an iterative solver
          1038 MiB given to the printing process from OS
           849 MiB allocation reported by mallinfo(arena+hblkhd)
         58896 MiB available memory on the node where the printing process lives
     GPU memory used/free/total (MiB): 980 / 15300 / 16280
------------------
     ethr =  1.30E-09,  avg # of iterations =  7.8

     negative rho (up, down):  1.865E-04 1.537E-03

     total cpu time spent up to now is      113.8 secs

     total energy              =    -626.13714306 Ry
     estimated scf accuracy    <       0.00000618 Ry

     total magnetization       =     3.69 Bohr mag/cell
     absolute magnetization    =     3.86 Bohr mag/cell
[tb_dev] Currently allocated     1.53E+00 Mbytes, locked:    0 /  11
[tb_pin] Currently allocated     0.00E+00 Mbytes, locked:    0 /   0

     iteration # 26     ecut=    40.00 Ry     beta= 0.10
     Davidson diagonalization with overlap

---- Real-time Memory Report at c_bands before calling an iterative solver
          1038 MiB given to the printing process from OS
           849 MiB allocation reported by mallinfo(arena+hblkhd)
         58896 MiB available memory on the node where the printing process lives
     GPU memory used/free/total (MiB): 980 / 15300 / 16280
------------------
     ethr =  1.30E-09,  avg # of iterations = 10.8

     negative rho (up, down):  1.920E-04 1.534E-03

     total cpu time spent up to now is      121.9 secs

     total energy              =    -626.13781392 Ry
     estimated scf accuracy    <       0.00000056 Ry

     total magnetization       =     3.47 Bohr mag/cell
     absolute magnetization    =     3.64 Bohr mag/cell
[tb_dev] Currently allocated     1.53E+00 Mbytes, locked:    0 /  11
[tb_pin] Currently allocated     0.00E+00 Mbytes, locked:    0 /   0

     iteration # 27     ecut=    40.00 Ry     beta= 0.10
     Davidson diagonalization with overlap

---- Real-time Memory Report at c_bands before calling an iterative solver
          1038 MiB given to the printing process from OS
           849 MiB allocation reported by mallinfo(arena+hblkhd)
         58896 MiB available memory on the node where the printing process lives
     GPU memory used/free/total (MiB): 980 / 15300 / 16280
------------------
     ethr =  1.08E-09,  avg # of iterations =  7.1

     negative rho (up, down):  1.608E-04 1.556E-03

     total cpu time spent up to now is      127.6 secs

     total energy              =    -626.13716267 Ry
     estimated scf accuracy    <       0.00000084 Ry

     total magnetization       =     3.44 Bohr mag/cell
     absolute magnetization    =     3.61 Bohr mag/cell
[tb_dev] Currently allocated     1.53E+00 Mbytes, locked:    0 /  11
[tb_pin] Currently allocated     0.00E+00 Mbytes, locked:    0 /   0

     iteration # 28     ecut=    40.00 Ry     beta= 0.10
     Davidson diagonalization with overlap

---- Real-time Memory Report at c_bands before calling an iterative solver
          1038 MiB given to the printing process from OS
           849 MiB allocation reported by mallinfo(arena+hblkhd)
         58897 MiB available memory on the node where the printing process lives
     GPU memory used/free/total (MiB): 980 / 15300 / 16280
------------------
     ethr =  1.08E-09,  avg # of iterations = 10.9

     negative rho (up, down):  1.601E-04 1.556E-03

     total cpu time spent up to now is      135.8 secs

     total energy              =    -626.13778555 Ry
     estimated scf accuracy    <       0.00000420 Ry

     total magnetization       =     3.64 Bohr mag/cell
     absolute magnetization    =     3.81 Bohr mag/cell
[tb_dev] Currently allocated     1.53E+00 Mbytes, locked:    0 /  11
[tb_pin] Currently allocated     0.00E+00 Mbytes, locked:    0 /   0

     iteration # 29     ecut=    40.00 Ry     beta= 0.10
     Davidson diagonalization with overlap

---- Real-time Memory Report at c_bands before calling an iterative solver
          1038 MiB given to the printing process from OS
           849 MiB allocation reported by mallinfo(arena+hblkhd)
         58897 MiB available memory on the node where the printing process lives
     GPU memory used/free/total (MiB): 980 / 15300 / 16280
------------------
     ethr =  1.08E-09,  avg # of iterations =  2.7

     negative rho (up, down):  1.680E-04 1.551E-03

     total cpu time spent up to now is      138.9 secs

     total energy              =    -626.13776507 Ry
     estimated scf accuracy    <       0.00000397 Ry

     total magnetization       =     3.64 Bohr mag/cell
     absolute magnetization    =     3.81 Bohr mag/cell
[tb_dev] Currently allocated     1.53E+00 Mbytes, locked:    0 /  11
[tb_pin] Currently allocated     0.00E+00 Mbytes, locked:    0 /   0

     iteration # 30     ecut=    40.00 Ry     beta= 0.10
     Davidson diagonalization with overlap

---- Real-time Memory Report at c_bands before calling an iterative solver
          1038 MiB given to the printing process from OS
           849 MiB allocation reported by mallinfo(arena+hblkhd)
         58897 MiB available memory on the node where the printing process lives
     GPU memory used/free/total (MiB): 980 / 15300 / 16280
------------------
     ethr =  1.08E-09,  avg # of iterations =  7.5

     negative rho (up, down):  1.618E-04 1.555E-03

     total cpu time spent up to now is      144.9 secs

     total energy              =    -626.13776683 Ry
     estimated scf accuracy    <       0.00000230 Ry

     total magnetization       =     3.59 Bohr mag/cell
     absolute magnetization    =     3.77 Bohr mag/cell
[tb_dev] Currently allocated     1.53E+00 Mbytes, locked:    0 /  11
[tb_pin] Currently allocated     0.00E+00 Mbytes, locked:    0 /   0

     iteration # 31     ecut=    40.00 Ry     beta= 0.10
     Davidson diagonalization with overlap

---- Real-time Memory Report at c_bands before calling an iterative solver
          1038 MiB given to the printing process from OS
           849 MiB allocation reported by mallinfo(arena+hblkhd)
         58898 MiB available memory on the node where the printing process lives
     GPU memory used/free/total (MiB): 980 / 15300 / 16280
------------------
     ethr =  1.08E-09,  avg # of iterations =  6.8

     negative rho (up, down):  1.668E-04 1.552E-03

     total cpu time spent up to now is      150.4 secs

     total energy              =    -626.13778479 Ry
     estimated scf accuracy    <       0.00000382 Ry

     total magnetization       =     3.63 Bohr mag/cell
     absolute magnetization    =     3.80 Bohr mag/cell
[tb_dev] Currently allocated     1.53E+00 Mbytes, locked:    0 /  11
[tb_pin] Currently allocated     0.00E+00 Mbytes, locked:    0 /   0

     iteration # 32     ecut=    40.00 Ry     beta= 0.10
     Davidson diagonalization with overlap

---- Real-time Memory Report at c_bands before calling an iterative solver
          1038 MiB given to the printing process from OS
           849 MiB allocation reported by mallinfo(arena+hblkhd)
         58897 MiB available memory on the node where the printing process lives
     GPU memory used/free/total (MiB): 980 / 15300 / 16280
------------------
     ethr =  1.08E-09,  avg # of iterations =  6.4

     negative rho (up, down):  1.785E-04 1.543E-03

     total cpu time spent up to now is      155.9 secs

     total energy              =    -626.13773435 Ry
     estimated scf accuracy    <       0.00000289 Ry

     total magnetization       =     3.60 Bohr mag/cell
     absolute magnetization    =     3.77 Bohr mag/cell
[tb_dev] Currently allocated     1.53E+00 Mbytes, locked:    0 /  11
[tb_pin] Currently allocated     0.00E+00 Mbytes, locked:    0 /   0

     iteration # 33     ecut=    40.00 Ry     beta= 0.10
     Davidson diagonalization with overlap

---- Real-time Memory Report at c_bands before calling an iterative solver
          1038 MiB given to the printing process from OS
           849 MiB allocation reported by mallinfo(arena+hblkhd)
         58897 MiB available memory on the node where the printing process lives
     GPU memory used/free/total (MiB): 980 / 15300 / 16280
------------------
     ethr =  1.08E-09,  avg # of iterations =  8.0

     negative rho (up, down):  1.830E-04 1.540E-03

     total cpu time spent up to now is      162.1 secs

     total energy              =    -626.13781009 Ry
     estimated scf accuracy    <       0.00000086 Ry

     total magnetization       =     3.53 Bohr mag/cell
     absolute magnetization    =     3.70 Bohr mag/cell
[tb_dev] Currently allocated     1.53E+00 Mbytes, locked:    0 /  11
[tb_pin] Currently allocated     0.00E+00 Mbytes, locked:    0 /   0

     iteration # 34     ecut=    40.00 Ry     beta= 0.10
     Davidson diagonalization with overlap

---- Real-time Memory Report at c_bands before calling an iterative solver
          1038 MiB given to the printing process from OS
           849 MiB allocation reported by mallinfo(arena+hblkhd)
         58897 MiB available memory on the node where the printing process lives
     GPU memory used/free/total (MiB): 980 / 15300 / 16280
------------------
     ethr =  1.08E-09,  avg # of iterations =  6.5

     negative rho (up, down):  1.821E-04 1.541E-03

     total cpu time spent up to now is      167.5 secs

     total energy              =    -626.13782158 Ry
     estimated scf accuracy    <       0.00000071 Ry

     total magnetization       =     3.50 Bohr mag/cell
     absolute magnetization    =     3.67 Bohr mag/cell
[tb_dev] Currently allocated     1.53E+00 Mbytes, locked:    0 /  11
[tb_pin] Currently allocated     0.00E+00 Mbytes, locked:    0 /   0

     iteration # 35     ecut=    40.00 Ry     beta= 0.10
     Davidson diagonalization with overlap

---- Real-time Memory Report at c_bands before calling an iterative solver
          1038 MiB given to the printing process from OS
           849 MiB allocation reported by mallinfo(arena+hblkhd)
         58898 MiB available memory on the node where the printing process lives
     GPU memory used/free/total (MiB): 980 / 15300 / 16280
------------------
     ethr =  1.08E-09,  avg # of iterations =  3.4

     negative rho (up, down):  1.905E-04 1.535E-03

     total cpu time spent up to now is      170.7 secs

     total energy              =    -626.13778677 Ry
     estimated scf accuracy    <       0.00000075 Ry

     total magnetization       =     3.50 Bohr mag/cell
     absolute magnetization    =     3.67 Bohr mag/cell
[tb_dev] Currently allocated     1.53E+00 Mbytes, locked:    0 /  11
[tb_pin] Currently allocated     0.00E+00 Mbytes, locked:    0 /   0

     iteration # 36     ecut=    40.00 Ry     beta= 0.10
     Davidson diagonalization with overlap

---- Real-time Memory Report at c_bands before calling an iterative solver
          1038 MiB given to the printing process from OS
           849 MiB allocation reported by mallinfo(arena+hblkhd)
         58897 MiB available memory on the node where the printing process lives
     GPU memory used/free/total (MiB): 980 / 15300 / 16280
------------------
     ethr =  1.08E-09,  avg # of iterations =  7.7

     negative rho (up, down):  1.932E-04 1.533E-03

     total cpu time spent up to now is      176.7 secs

     total energy              =    -626.13783089 Ry
     estimated scf accuracy    <       0.00000092 Ry

     total magnetization       =     3.45 Bohr mag/cell
     absolute magnetization    =     3.62 Bohr mag/cell
[tb_dev] Currently allocated     1.53E+00 Mbytes, locked:    0 /  11
[tb_pin] Currently allocated     0.00E+00 Mbytes, locked:    0 /   0

     iteration # 37     ecut=    40.00 Ry     beta= 0.10
     Davidson diagonalization with overlap

---- Real-time Memory Report at c_bands before calling an iterative solver
          1038 MiB given to the printing process from OS
           849 MiB allocation reported by mallinfo(arena+hblkhd)
         58897 MiB available memory on the node where the printing process lives
     GPU memory used/free/total (MiB): 980 / 15300 / 16280
------------------
     ethr =  1.08E-09,  avg # of iterations =  5.6

     negative rho (up, down):  1.842E-04 1.539E-03

     total cpu time spent up to now is      181.5 secs

     total energy              =    -626.13777063 Ry
     estimated scf accuracy    <       0.00000112 Ry

     total magnetization       =     3.43 Bohr mag/cell
     absolute magnetization    =     3.60 Bohr mag/cell
[tb_dev] Currently allocated     1.53E+00 Mbytes, locked:    0 /  11
[tb_pin] Currently allocated     0.00E+00 Mbytes, locked:    0 /   0

     iteration # 38     ecut=    40.00 Ry     beta= 0.10
     Davidson diagonalization with overlap

---- Real-time Memory Report at c_bands before calling an iterative solver
          1038 MiB given to the printing process from OS
           849 MiB allocation reported by mallinfo(arena+hblkhd)
         58898 MiB available memory on the node where the printing process lives
     GPU memory used/free/total (MiB): 980 / 15300 / 16280
------------------
     ethr =  1.08E-09,  avg # of iterations =  7.9

     negative rho (up, down):  1.728E-04 1.547E-03

     total cpu time spent up to now is      187.6 secs

     total energy              =    -626.13772647 Ry
     estimated scf accuracy    <       0.00000085 Ry

     total magnetization       =     3.49 Bohr mag/cell
     absolute magnetization    =     3.66 Bohr mag/cell
[tb_dev] Currently allocated     1.53E+00 Mbytes, locked:    0 /  11
[tb_pin] Currently allocated     0.00E+00 Mbytes, locked:    0 /   0

     iteration # 39     ecut=    40.00 Ry     beta= 0.10
     Davidson diagonalization with overlap

---- Real-time Memory Report at c_bands before calling an iterative solver
          1038 MiB given to the printing process from OS
           849 MiB allocation reported by mallinfo(arena+hblkhd)
         58898 MiB available memory on the node where the printing process lives
     GPU memory used/free/total (MiB): 980 / 15300 / 16280
------------------
     ethr =  1.08E-09,  avg # of iterations =  8.2

     negative rho (up, down):  1.751E-04 1.546E-03

     total cpu time spent up to now is      194.0 secs

     total energy              =    -626.13780994 Ry
     estimated scf accuracy    <       0.00000145 Ry

     total magnetization       =     3.56 Bohr mag/cell
     absolute magnetization    =     3.74 Bohr mag/cell
[tb_dev] Currently allocated     1.53E+00 Mbytes, locked:    0 /  11
[tb_pin] Currently allocated     0.00E+00 Mbytes, locked:    0 /   0

     iteration # 40     ecut=    40.00 Ry     beta= 0.10
     Davidson diagonalization with overlap

---- Real-time Memory Report at c_bands before calling an iterative solver
          1038 MiB given to the printing process from OS
           849 MiB allocation reported by mallinfo(arena+hblkhd)
         58898 MiB available memory on the node where the printing process lives
     GPU memory used/free/total (MiB): 980 / 15300 / 16280
------------------
     ethr =  1.08E-09,  avg # of iterations =  5.1

     negative rho (up, down):  1.700E-04 1.549E-03

     total cpu time spent up to now is      198.4 secs

     total energy              =    -626.13778972 Ry
     estimated scf accuracy    <       0.00000135 Ry

     total magnetization       =     3.55 Bohr mag/cell
     absolute magnetization    =     3.72 Bohr mag/cell
[tb_dev] Currently allocated     1.53E+00 Mbytes, locked:    0 /  11
[tb_pin] Currently allocated     0.00E+00 Mbytes, locked:    0 /   0

     iteration # 41     ecut=    40.00 Ry     beta= 0.10
     Davidson diagonalization with overlap

---- Real-time Memory Report at c_bands before calling an iterative solver
          1038 MiB given to the printing process from OS
           849 MiB allocation reported by mallinfo(arena+hblkhd)
         58898 MiB available memory on the node where the printing process lives
     GPU memory used/free/total (MiB): 980 / 15300 / 16280
------------------
     ethr =  1.08E-09,  avg # of iterations =  6.6

     negative rho (up, down):  1.793E-04 1.543E-03

     total cpu time spent up to now is      203.8 secs

     total energy              =    -626.13776523 Ry
     estimated scf accuracy    <       0.00000194 Ry

     total magnetization       =     3.58 Bohr mag/cell
     absolute magnetization    =     3.75 Bohr mag/cell
[tb_dev] Currently allocated     1.53E+00 Mbytes, locked:    0 /  11
[tb_pin] Currently allocated     0.00E+00 Mbytes, locked:    0 /   0

     iteration # 42     ecut=    40.00 Ry     beta= 0.10
     Davidson diagonalization with overlap

---- Real-time Memory Report at c_bands before calling an iterative solver
          1038 MiB given to the printing process from OS
           849 MiB allocation reported by mallinfo(arena+hblkhd)
         58898 MiB available memory on the node where the printing process lives
     GPU memory used/free/total (MiB): 980 / 15300 / 16280
------------------
     ethr =  1.08E-09,  avg # of iterations =  7.8

     negative rho (up, down):  1.695E-04 1.550E-03

     total cpu time spent up to now is      209.9 secs

     total energy              =    -626.13774378 Ry
     estimated scf accuracy    <       0.00000094 Ry

     total magnetization       =     3.52 Bohr mag/cell
     absolute magnetization    =     3.69 Bohr mag/cell
[tb_dev] Currently allocated     1.53E+00 Mbytes, locked:    0 /  11
[tb_pin] Currently allocated     0.00E+00 Mbytes, locked:    0 /   0

     iteration # 43     ecut=    40.00 Ry     beta= 0.10
     Davidson diagonalization with overlap

---- Real-time Memory Report at c_bands before calling an iterative solver
          1038 MiB given to the printing process from OS
           849 MiB allocation reported by mallinfo(arena+hblkhd)
         58898 MiB available memory on the node where the printing process lives
     GPU memory used/free/total (MiB): 980 / 15300 / 16280
------------------
     ethr =  1.08E-09,  avg # of iterations =  8.0

     negative rho (up, down):  1.818E-04 1.541E-03

     total cpu time spent up to now is      216.1 secs

     total energy              =    -626.13772730 Ry
     estimated scf accuracy    <       0.00000188 Ry

     total magnetization       =     3.58 Bohr mag/cell
     absolute magnetization    =     3.76 Bohr mag/cell
[tb_dev] Currently allocated     1.53E+00 Mbytes, locked:    0 /  11
[tb_pin] Currently allocated     0.00E+00 Mbytes, locked:    0 /   0

     iteration # 44     ecut=    40.00 Ry     beta= 0.10
     Davidson diagonalization with overlap

---- Real-time Memory Report at c_bands before calling an iterative solver
          1038 MiB given to the printing process from OS
           849 MiB allocation reported by mallinfo(arena+hblkhd)
         58898 MiB available memory on the node where the printing process lives
     GPU memory used/free/total (MiB): 980 / 15300 / 16280
------------------
     ethr =  1.08E-09,  avg # of iterations =  8.2

     negative rho (up, down):  1.912E-04 1.535E-03

     total cpu time spent up to now is      222.9 secs

     total energy              =    -626.13777586 Ry
     estimated scf accuracy    <       0.00000089 Ry

     total magnetization       =     3.51 Bohr mag/cell
     absolute magnetization    =     3.68 Bohr mag/cell
[tb_dev] Currently allocated     1.53E+00 Mbytes, locked:    0 /  11
[tb_pin] Currently allocated     0.00E+00 Mbytes, locked:    0 /   0

     iteration # 45     ecut=    40.00 Ry     beta= 0.10
     Davidson diagonalization with overlap

---- Real-time Memory Report at c_bands before calling an iterative solver
          1038 MiB given to the printing process from OS
           849 MiB allocation reported by mallinfo(arena+hblkhd)
         58898 MiB available memory on the node where the printing process lives
     GPU memory used/free/total (MiB): 980 / 15300 / 16280
------------------
     ethr =  1.08E-09,  avg # of iterations =  7.9

     negative rho (up, down):  1.723E-04 1.548E-03

     total cpu time spent up to now is      229.0 secs

     total energy              =    -626.13757705 Ry
     estimated scf accuracy    <       0.00000105 Ry

     total magnetization       =     3.44 Bohr mag/cell
     absolute magnetization    =     3.61 Bohr mag/cell
[tb_dev] Currently allocated     1.53E+00 Mbytes, locked:    0 /  11
[tb_pin] Currently allocated     0.00E+00 Mbytes, locked:    0 /   0

     iteration # 46     ecut=    40.00 Ry     beta= 0.10
     Davidson diagonalization with overlap

---- Real-time Memory Report at c_bands before calling an iterative solver
          1038 MiB given to the printing process from OS
           849 MiB allocation reported by mallinfo(arena+hblkhd)
         58898 MiB available memory on the node where the printing process lives
     GPU memory used/free/total (MiB): 980 / 15300 / 16280
------------------
     ethr =  1.08E-09,  avg # of iterations =  9.3

     negative rho (up, down):  1.878E-04 1.537E-03

     total cpu time spent up to now is      236.2 secs

     total energy              =    -626.13767603 Ry
     estimated scf accuracy    <       0.00000150 Ry

     total magnetization       =     3.57 Bohr mag/cell
     absolute magnetization    =     3.74 Bohr mag/cell
[tb_dev] Currently allocated     1.53E+00 Mbytes, locked:    0 /  11
[tb_pin] Currently allocated     0.00E+00 Mbytes, locked:    0 /   0

     iteration # 47     ecut=    40.00 Ry     beta= 0.10
     Davidson diagonalization with overlap

---- Real-time Memory Report at c_bands before calling an iterative solver
          1038 MiB given to the printing process from OS
           849 MiB allocation reported by mallinfo(arena+hblkhd)
         58898 MiB available memory on the node where the printing process lives
     GPU memory used/free/total (MiB): 980 / 15300 / 16280
------------------
     ethr =  1.08E-09,  avg # of iterations =  8.8

     negative rho (up, down):  2.165E-04 1.553E-03

     total cpu time spent up to now is      243.6 secs

     total energy              =    -626.13732733 Ry
     estimated scf accuracy    <       0.00000095 Ry

     total magnetization       =     3.47 Bohr mag/cell
     absolute magnetization    =     3.64 Bohr mag/cell
[tb_dev] Currently allocated     1.53E+00 Mbytes, locked:    0 /  11
[tb_pin] Currently allocated     0.00E+00 Mbytes, locked:    0 /   0

     iteration # 48     ecut=    40.00 Ry     beta= 0.10
     Davidson diagonalization with overlap

---- Real-time Memory Report at c_bands before calling an iterative solver
          1038 MiB given to the printing process from OS
           849 MiB allocation reported by mallinfo(arena+hblkhd)
         58899 MiB available memory on the node where the printing process lives
     GPU memory used/free/total (MiB): 980 / 15300 / 16280
------------------
     ethr =  1.08E-09,  avg # of iterations = 10.8

     negative rho (up, down):  1.967E-04 1.531E-03

     total cpu time spent up to now is      251.6 secs

     total energy              =    -626.13755047 Ry
     estimated scf accuracy    <       0.00001502 Ry

     total magnetization       =     3.25 Bohr mag/cell
     absolute magnetization    =     3.42 Bohr mag/cell
[tb_dev] Currently allocated     1.53E+00 Mbytes, locked:    0 /  11
[tb_pin] Currently allocated     0.00E+00 Mbytes, locked:    0 /   0

     iteration # 49     ecut=    40.00 Ry     beta= 0.10
     Davidson diagonalization with overlap

---- Real-time Memory Report at c_bands before calling an iterative solver
          1038 MiB given to the printing process from OS
           849 MiB allocation reported by mallinfo(arena+hblkhd)
         58899 MiB available memory on the node where the printing process lives
     GPU memory used/free/total (MiB): 980 / 15300 / 16280
------------------
     ethr =  1.08E-09,  avg # of iterations =  9.4

     negative rho (up, down):  1.974E-04 1.531E-03

     total cpu time spent up to now is      259.2 secs

     total energy              =    -626.13784189 Ry
     estimated scf accuracy    <       0.00000182 Ry

     total magnetization       =     3.40 Bohr mag/cell
     absolute magnetization    =     3.57 Bohr mag/cell
[tb_dev] Currently allocated     1.53E+00 Mbytes, locked:    0 /  11
[tb_pin] Currently allocated     0.00E+00 Mbytes, locked:    0 /   0

     iteration # 50     ecut=    40.00 Ry     beta= 0.10
     Davidson diagonalization with overlap

---- Real-time Memory Report at c_bands before calling an iterative solver
          1038 MiB given to the printing process from OS
           849 MiB allocation reported by mallinfo(arena+hblkhd)
         58899 MiB available memory on the node where the printing process lives
     GPU memory used/free/total (MiB): 980 / 15300 / 16280
------------------
     ethr =  1.08E-09,  avg # of iterations =  2.2

     negative rho (up, down):  1.821E-04 1.541E-03

     total cpu time spent up to now is      261.9 secs

     total energy              =    -626.13766626 Ry
     estimated scf accuracy    <       0.00000202 Ry

     total magnetization       =     3.40 Bohr mag/cell
     absolute magnetization    =     3.57 Bohr mag/cell
[tb_dev] Currently allocated     1.53E+00 Mbytes, locked:    0 /  11
[tb_pin] Currently allocated     0.00E+00 Mbytes, locked:    0 /   0

     iteration # 51     ecut=    40.00 Ry     beta= 0.10
     Davidson diagonalization with overlap

---- Real-time Memory Report at c_bands before calling an iterative solver
          1038 MiB given to the printing process from OS
           849 MiB allocation reported by mallinfo(arena+hblkhd)
         58899 MiB available memory on the node where the printing process lives
     GPU memory used/free/total (MiB): 980 / 15300 / 16280
------------------
     ethr =  1.08E-09,  avg # of iterations =  8.9

     negative rho (up, down):  1.780E-04 1.544E-03

     total cpu time spent up to now is      268.8 secs

[...]
          1038 MiB given to the printing process from OS
           849 MiB allocation reported by mallinfo(arena+hblkhd)
         58897 MiB available memory on the node where the printing process lives
     GPU memory used/free/total (MiB): 980 / 15300 / 16280
------------------
     ethr =  1.08E-09,  avg # of iterations =  8.2

     negative rho (up, down):  1.828E-04 1.541E-03

     total cpu time spent up to now is      340.3 secs

     total energy              =    -626.13782277 Ry
     estimated scf accuracy    <       0.00000102 Ry

     total magnetization       =     3.50 Bohr mag/cell
     absolute magnetization    =     3.67 Bohr mag/cell
[tb_dev] Currently allocated     1.53E+00 Mbytes, locked:    0 /  11
[tb_pin] Currently allocated     0.00E+00 Mbytes, locked:    0 /   0

     iteration # 66     ecut=    40.00 Ry     beta= 0.10
     Davidson diagonalization with overlap

---- Real-time Memory Report at c_bands before calling an iterative solver
          1038 MiB given to the printing process from OS
           849 MiB allocation reported by mallinfo(arena+hblkhd)
         58898 MiB available memory on the node where the printing process lives
     GPU memory used/free/total (MiB): 980 / 15300 / 16280
------------------
     ethr =  1.08E-09,  avg # of iterations =  2.4

     negative rho (up, down):  1.739E-04 1.547E-03

     total cpu time spent up to now is      343.1 secs

     total energy              =    -626.13776174 Ry
     estimated scf accuracy    <       0.00000100 Ry

     total magnetization       =     3.50 Bohr mag/cell
     absolute magnetization    =     3.67 Bohr mag/cell
[tb_dev] Currently allocated     1.53E+00 Mbytes, locked:    0 /  11
[tb_pin] Currently allocated     0.00E+00 Mbytes, locked:    0 /   0

     iteration # 67     ecut=    40.00 Ry     beta= 0.10
     Davidson diagonalization with overlap

---- Real-time Memory Report at c_bands before calling an iterative solver
          1038 MiB given to the printing process from OS
           849 MiB allocation reported by mallinfo(arena+hblkhd)
         58898 MiB available memory on the node where the printing process lives
     GPU memory used/free/total (MiB): 980 / 15300 / 16280
------------------
     ethr =  1.08E-09,  avg # of iterations =  7.7

     negative rho (up, down):  1.865E-04 1.538E-03

     total cpu time spent up to now is      349.1 secs

     total energy              =    -626.13772604 Ry
     estimated scf accuracy    <       0.00000150 Ry

     total magnetization       =     3.56 Bohr mag/cell
     absolute magnetization    =     3.73 Bohr mag/cell
[tb_dev] Currently allocated     1.53E+00 Mbytes, locked:    0 /  11
[tb_pin] Currently allocated     0.00E+00 Mbytes, locked:    0 /   0

     iteration # 68     ecut=    40.00 Ry     beta= 0.10
     Davidson diagonalization with overlap

---- Real-time Memory Report at c_bands before calling an iterative solver
          1038 MiB given to the printing process from OS
           849 MiB allocation reported by mallinfo(arena+hblkhd)
         58898 MiB available memory on the node where the printing process lives
     GPU memory used/free/total (MiB): 980 / 15300 / 16280
------------------
     ethr =  1.08E-09,  avg # of iterations =  8.4

     negative rho (up, down):  2.171E-04 1.557E-03

     total cpu time spent up to now is      355.9 secs

     total energy              =    -626.13725671 Ry
     estimated scf accuracy    <       0.00000094 Ry

     total magnetization       =     3.47 Bohr mag/cell
     absolute magnetization    =     3.64 Bohr mag/cell
[tb_dev] Currently allocated     1.53E+00 Mbytes, locked:    0 /  11
[tb_pin] Currently allocated     0.00E+00 Mbytes, locked:    0 /   0

     iteration # 69     ecut=    40.00 Ry     beta= 0.10
     Davidson diagonalization with overlap

---- Real-time Memory Report at c_bands before calling an iterative solver
          1038 MiB given to the printing process from OS
           849 MiB allocation reported by mallinfo(arena+hblkhd)
         58898 MiB available memory on the node where the printing process lives
     GPU memory used/free/total (MiB): 980 / 15300 / 16280
------------------
     ethr =  1.08E-09,  avg # of iterations = 11.0

     negative rho (up, down):  1.829E-04 1.541E-03

     total cpu time spent up to now is      364.1 secs

     total energy              =    -626.13697614 Ry
     estimated scf accuracy    <       0.00001571 Ry

     total magnetization       =     3.24 Bohr mag/cell
     absolute magnetization    =     3.41 Bohr mag/cell
[tb_dev] Currently allocated     1.53E+00 Mbytes, locked:    0 /  11
[tb_pin] Currently allocated     0.00E+00 Mbytes, locked:    0 /   0

     iteration # 70     ecut=    40.00 Ry     beta= 0.10
     Davidson diagonalization with overlap

---- Real-time Memory Report at c_bands before calling an iterative solver
          1038 MiB given to the printing process from OS
           849 MiB allocation reported by mallinfo(arena+hblkhd)
         58898 MiB available memory on the node where the printing process lives
     GPU memory used/free/total (MiB): 980 / 15300 / 16280
------------------
     ethr =  1.08E-09,  avg # of iterations = 11.3

     negative rho (up, down):  1.809E-04 1.542E-03

     total cpu time spent up to now is      372.4 secs

     total energy              =    -626.13781813 Ry
     estimated scf accuracy    <       0.00000101 Ry

     total magnetization       =     3.50 Bohr mag/cell
     absolute magnetization    =     3.67 Bohr mag/cell
[tb_dev] Currently allocated     1.53E+00 Mbytes, locked:    0 /  11
[tb_pin] Currently allocated     0.00E+00 Mbytes, locked:    0 /   0

     iteration # 71     ecut=    40.00 Ry     beta= 0.10
     Davidson diagonalization with overlap

---- Real-time Memory Report at c_bands before calling an iterative solver
          1038 MiB given to the printing process from OS
           849 MiB allocation reported by mallinfo(arena+hblkhd)
         58898 MiB available memory on the node where the printing process lives
     GPU memory used/free/total (MiB): 980 / 15300 / 16280
------------------
     ethr =  1.08E-09,  avg # of iterations =  5.2

     negative rho (up, down):  1.826E-04 1.541E-03

     total cpu time spent up to now is      376.9 secs

     total energy              =    -626.13782083 Ry
     estimated scf accuracy    <       0.00000107 Ry

     total magnetization       =     3.51 Bohr mag/cell
     absolute magnetization    =     3.68 Bohr mag/cell
[tb_dev] Currently allocated     1.53E+00 Mbytes, locked:    0 /  11
[tb_pin] Currently allocated     0.00E+00 Mbytes, locked:    0 /   0

     iteration # 72     ecut=    40.00 Ry     beta= 0.10
     Davidson diagonalization with overlap

---- Real-time Memory Report at c_bands before calling an iterative solver
          1038 MiB given to the printing process from OS
           849 MiB allocation reported by mallinfo(arena+hblkhd)
         58899 MiB available memory on the node where the printing process lives
     GPU memory used/free/total (MiB): 980 / 15300 / 16280
------------------
     ethr =  1.08E-09,  avg # of iterations =  4.8

     negative rho (up, down):  1.806E-04 1.542E-03

     total cpu time spent up to now is      381.2 secs

     total energy              =    -626.13781783 Ry
     estimated scf accuracy    <       0.00000099 Ry

     total magnetization       =     3.50 Bohr mag/cell
     absolute magnetization    =     3.67 Bohr mag/cell
[tb_dev] Currently allocated     1.53E+00 Mbytes, locked:    0 /  11
[tb_pin] Currently allocated     0.00E+00 Mbytes, locked:    0 /   0

     iteration # 73     ecut=    40.00 Ry     beta= 0.10
     Davidson diagonalization with overlap

---- Real-time Memory Report at c_bands before calling an iterative solver
          1038 MiB given to the printing process from OS
           849 MiB allocation reported by mallinfo(arena+hblkhd)
         58898 MiB available memory on the node where the printing process lives
     GPU memory used/free/total (MiB): 980 / 15300 / 16280
------------------
     ethr =  1.08E-09,  avg # of iterations =  4.9

     negative rho (up, down):  1.581E-04 1.558E-03

     total cpu time spent up to now is      385.4 secs

     total energy              =    -626.13746273 Ry
     estimated scf accuracy    <       0.00000110 Ry

     total magnetization       =     3.51 Bohr mag/cell
     absolute magnetization    =     3.68 Bohr mag/cell
[tb_dev] Currently allocated     1.53E+00 Mbytes, locked:    0 /  11
[tb_pin] Currently allocated     0.00E+00 Mbytes, locked:    0 /   0

     iteration # 74     ecut=    40.00 Ry     beta= 0.10
     Davidson diagonalization with overlap

---- Real-time Memory Report at c_bands before calling an iterative solver
          1038 MiB given to the printing process from OS
           849 MiB allocation reported by mallinfo(arena+hblkhd)
         58899 MiB available memory on the node where the printing process lives
     GPU memory used/free/total (MiB): 980 / 15300 / 16280
------------------
     ethr =  1.08E-09,  avg # of iterations =  9.7

     negative rho (up, down):  1.693E-04 1.550E-03

     total cpu time spent up to now is      392.9 secs

     total energy              =    -626.13772777 Ry
     estimated scf accuracy    <       0.00000448 Ry

     total magnetization       =     3.65 Bohr mag/cell
     absolute magnetization    =     3.83 Bohr mag/cell
[tb_dev] Currently allocated     1.53E+00 Mbytes, locked:    0 /  11
[tb_pin] Currently allocated     0.00E+00 Mbytes, locked:    0 /   0

     iteration # 75     ecut=    40.00 Ry     beta= 0.10
     Davidson diagonalization with overlap

---- Real-time Memory Report at c_bands before calling an iterative solver
          1038 MiB given to the printing process from OS
           849 MiB allocation reported by mallinfo(arena+hblkhd)
         58899 MiB available memory on the node where the printing process lives
     GPU memory used/free/total (MiB): 980 / 15300 / 16280
------------------
     ethr =  1.08E-09,  avg # of iterations =  8.0

     negative rho (up, down):  1.608E-04 1.556E-03

     total cpu time spent up to now is      399.3 secs

     total energy              =    -626.13774287 Ry
     estimated scf accuracy    <       0.00000214 Ry

     total magnetization       =     3.59 Bohr mag/cell
     absolute magnetization    =     3.76 Bohr mag/cell
[tb_dev] Currently allocated     1.53E+00 Mbytes, locked:    0 /  11
[tb_pin] Currently allocated     0.00E+00 Mbytes, locked:    0 /   0

     iteration # 76     ecut=    40.00 Ry     beta= 0.10
     Davidson diagonalization with overlap

---- Real-time Memory Report at c_bands before calling an iterative solver
          1038 MiB given to the printing process from OS
           849 MiB allocation reported by mallinfo(arena+hblkhd)
         58899 MiB available memory on the node where the printing process lives
     GPU memory used/free/total (MiB): 980 / 15300 / 16280
------------------
     ethr =  1.08E-09,  avg # of iterations =  7.7

     negative rho (up, down):  1.688E-04 1.550E-03

     total cpu time spent up to now is      405.3 secs

     total energy              =    -626.13776495 Ry
     estimated scf accuracy    <       0.00000386 Ry

     total magnetization       =     3.64 Bohr mag/cell
     absolute magnetization    =     3.81 Bohr mag/cell
[tb_dev] Currently allocated     1.53E+00 Mbytes, locked:    0 /  11
[tb_pin] Currently allocated     0.00E+00 Mbytes, locked:    0 /   0

     iteration # 77     ecut=    40.00 Ry     beta= 0.10
     Davidson diagonalization with overlap

---- Real-time Memory Report at c_bands before calling an iterative solver
          1038 MiB given to the printing process from OS
           849 MiB allocation reported by mallinfo(arena+hblkhd)
         58899 MiB available memory on the node where the printing process lives
     GPU memory used/free/total (MiB): 980 / 15300 / 16280
------------------
     ethr =  1.08E-09,  avg # of iterations =  7.5

     negative rho (up, down):  1.633E-04 1.554E-03

     total cpu time spent up to now is      411.3 secs

     total energy              =    -626.13777507 Ry
     estimated scf accuracy    <       0.00000219 Ry

     total magnetization       =     3.59 Bohr mag/cell
     absolute magnetization    =     3.76 Bohr mag/cell
[tb_dev] Currently allocated     1.53E+00 Mbytes, locked:    0 /  11
[tb_pin] Currently allocated     0.00E+00 Mbytes, locked:    0 /   0

     iteration # 78     ecut=    40.00 Ry     beta= 0.10
     Davidson diagonalization with overlap

---- Real-time Memory Report at c_bands before calling an iterative solver
          1038 MiB given to the printing process from OS
           849 MiB allocation reported by mallinfo(arena+hblkhd)
         58899 MiB available memory on the node where the printing process lives
     GPU memory used/free/total (MiB): 980 / 15300 / 16280
------------------
     ethr =  1.08E-09,  avg # of iterations =  6.6

     negative rho (up, down):  2.053E-04 1.529E-03

     total cpu time spent up to now is      416.7 secs

     total energy              =    -626.13674212 Ry
     estimated scf accuracy    <       0.00000335 Ry

     total magnetization       =     3.62 Bohr mag/cell
     absolute magnetization    =     3.79 Bohr mag/cell
[tb_dev] Currently allocated     1.53E+00 Mbytes, locked:    0 /  11
[tb_pin] Currently allocated     0.00E+00 Mbytes, locked:    0 /   0

     iteration # 79     ecut=    40.00 Ry     beta= 0.10
     Davidson diagonalization with overlap

---- Real-time Memory Report at c_bands before calling an iterative solver
          1038 MiB given to the printing process from OS
           849 MiB allocation reported by mallinfo(arena+hblkhd)
         58898 MiB available memory on the node where the printing process lives
     GPU memory used/free/total (MiB): 980 / 15300 / 16280
------------------
     ethr =  1.08E-09,  avg # of iterations = 11.6

     negative rho (up, down):  1.595E-04 1.557E-03

     total cpu time spent up to now is      425.5 secs

     total energy              =    -626.13638329 Ry
     estimated scf accuracy    <       0.00000429 Ry

     total magnetization       =     3.34 Bohr mag/cell
     absolute magnetization    =     3.51 Bohr mag/cell
[tb_dev] Currently allocated     1.53E+00 Mbytes, locked:    0 /  11
[tb_pin] Currently allocated     0.00E+00 Mbytes, locked:    0 /   0

     iteration # 80     ecut=    40.00 Ry     beta= 0.10
     Davidson diagonalization with overlap

---- Real-time Memory Report at c_bands before calling an iterative solver
          1038 MiB given to the printing process from OS
           849 MiB allocation reported by mallinfo(arena+hblkhd)
         58899 MiB available memory on the node where the printing process lives
     GPU memory used/free/total (MiB): 980 / 15300 / 16280
------------------
     ethr =  1.08E-09,  avg # of iterations = 11.7

     negative rho (up, down):  1.597E-04 1.556E-03

     total cpu time spent up to now is      434.1 secs

     total energy              =    -626.13778459 Ry
     estimated scf accuracy    <       0.00000415 Ry

     total magnetization       =     3.65 Bohr mag/cell
     absolute magnetization    =     3.82 Bohr mag/cell

     End of self-consistent calculation

     convergence NOT achieved after  80 iterations: stopping

     Writing config to output data dir ./out/aiida.save/
 
     init_run     :     10.00s CPU      2.11s WALL (       1 calls)
     electrons    :    544.19s CPU    430.84s WALL (       1 calls)

     Called by init_run:
     wfcinit      :      0.24s CPU      0.24s WALL (       1 calls)
                                        0.24s GPU  (       1 calls)
     potinit      :      0.35s CPU      0.05s WALL (       1 calls)
     hinit0       :      7.14s CPU      1.28s WALL (       1 calls)

     Called by electrons:
     c_bands      :    470.25s CPU    393.50s WALL (      81 calls)
     sum_band     :     26.41s CPU     32.84s WALL (      81 calls)
     v_of_rho     :      7.67s CPU      0.70s WALL (      81 calls)
     v_h          :      1.17s CPU      0.11s WALL (      81 calls)
     v_xc         :      6.50s CPU      0.59s WALL (      81 calls)
     newd         :     25.52s CPU      2.62s WALL (      81 calls)
                                        2.62s GPU  (      81 calls)
     mix_rho      :      8.15s CPU      0.80s WALL (      81 calls)

     Called by c_bands:
     init_us_2    :     26.69s CPU     26.54s WALL (   23328 calls)
     init_us_2:gp :     26.25s CPU     26.15s WALL (   23328 calls)
     cegterg      :    434.76s CPU    361.38s WALL (   11664 calls)

     Called by sum_band:
     sum_band:wei :      0.33s CPU      0.34s WALL (      81 calls)
                                        0.34s GPU  (      81 calls)
     sum_band:loo :     23.03s CPU     29.04s WALL (      81 calls)
                                       29.04s GPU  (      81 calls)
     sum_band:buf :      2.78s CPU      3.47s WALL (   11664 calls)
                                        3.40s GPU  (   11664 calls)
     sum_band:ini :      9.93s CPU     13.06s WALL (   11664 calls)
                                       13.00s GPU  (   11664 calls)
     sum_band:cal :      0.34s CPU      0.80s WALL (   11664 calls)
                                        0.73s GPU  (   11664 calls)
     sum_band:bec :      2.06s CPU      2.62s WALL (   11664 calls)
                                        2.54s GPU  (   11664 calls)
     addusdens    :      2.60s CPU      2.98s WALL (      81 calls)
                                        2.98s GPU  (      81 calls)
     addusd:skk   :      0.01s CPU      0.02s WALL (     324 calls)
                                        0.01s GPU  (     324 calls)

     Called by *egterg:
     cdiaghg      :    247.37s CPU    210.22s WALL (   85414 calls)
                                      209.66s GPU  (   85414 calls)
     cegterg:over :     10.53s CPU      8.66s WALL (   74038 calls)
     cegterg:upda :     23.40s CPU     19.47s WALL (   74038 calls)
     cegterg:last :      4.54s CPU      3.91s WALL (   37558 calls)
     h_psi        :    108.97s CPU     88.50s WALL (   85702 calls)
                                       88.03s GPU  (   85702 calls)
     s_psi        :      8.58s CPU     10.25s WALL (   85702 calls)
                                        9.66s GPU  (   85702 calls)
     g_psi        :      0.65s CPU      1.48s WALL (   74038 calls)
                                        1.01s GPU  (   74038 calls)

     Called by h_psi:
     h_psi:calbec :      3.44s CPU      6.78s WALL (   85702 calls)
                                        6.26s GPU  (   85702 calls)
     vloc_psi     :     79.92s CPU     65.21s WALL (   85702 calls)
                                       64.71s GPU  (   85702 calls)
     add_vuspsi   :     11.45s CPU     11.38s WALL (   85702 calls)
                                       10.87s GPU  (   85702 calls)

     General routines
     calbec       :      2.86s CPU      2.43s WALL (   97366 calls)
     fft          :      3.12s CPU      0.35s WALL (    2025 calls)
                                        0.22s GPU  (    1863 calls)
     ffts         :      0.79s CPU      0.09s WALL (     324 calls)
                                        0.01s GPU  (     162 calls)
     fftw         :      6.25s CPU     35.59s WALL (  258138 calls)
                                       34.16s GPU  (  258138 calls)
     interpolate  :      2.88s CPU      0.26s WALL (     162 calls)
     davcio       :      1.30s CPU      0.44s WALL (     306 calls)
 
     Parallel routines
 
     PWSCF        :   9m18.66s CPU   7m14.46s WALL

 
   This run was terminated on:  18:23:52  23Oct2023            

=------------------------------------------------------------------------------=
   JOB DONE.
=------------------------------------------------------------------------------=
