
     Program PWSCF v.7.2 starts on 22Oct2023 at 23:24:22 

     This program is part of the open-source Quantum ESPRESSO suite
     for quantum simulation of materials; please cite
         "P. Giannozzi et al., J. Phys.:Condens. Matter 21 395502 (2009);
         "P. Giannozzi et al., J. Phys.:Condens. Matter 29 465901 (2017);
         "P. Giannozzi et al., J. Chem. Phys. 152 154105 (2020);
          URL http://www.quantum-espresso.org", 
     in publications or presentations arising from this work. More details at
     http://www.quantum-espresso.org/quote

     Parallel version (MPI & OpenMP), running on      12 processor cores
     Number of MPI processes:                 1
     Threads/MPI process:                    12

     MPI processes distributed on     1 nodes
     60308 MiB available memory on the printing compute node when the environment starts
 
     Reading input from aiida.in

     Current dimensions of program PWSCF are:
     Max number of different atomic species (ntypx) = 10
     Max number of k-points (npk) =  40000
     Max angular momentum in pseudopotentials (lmaxx) =  4
     file Fe.pbesol-spn-kjpaw_psl.0.2.1.UPF: wavefunction(s)  3D renormalized
     file Ga.pbesol-dn-kjpaw_psl.1.0.0.UPF: wavefunction(s)  4S renormalized
     Message from routine setup:
     using ibrav=0 with symmetry is DISCOURAGED, use correct ibrav instead
 
     Subspace diagonalization in iterative solution of the eigenvalue problem:
     a serial algorithm will be used

 
     G-vector sticks info
     --------------------
     sticks:   dense  smooth     PW     G-vecs:    dense   smooth      PW
     Sum        4507    1507    433               199705    38517    5985
 
     Using Slab Decomposition
 


     bravais-lattice index     =            0
     lattice parameter (alat)  =       7.7823  a.u.
     unit-cell volume          =     333.2734 (a.u.)^3
     number of atoms/cell      =            4
     number of atomic types    =            3
     number of electrons       =        59.00
     number of Kohn-Sham states=           36
     kinetic-energy cutoff     =      90.0000  Ry
     charge density cutoff     =    1080.0000  Ry
     scf convergence threshold =      8.0E-10
     mixing beta               =       0.4000
     number of iterations used =            8  plain     mixing
     Exchange-correlation= SLA  PW   PSX  PSC
                           (   1   4  10   8   0   0   0)

     GPU acceleration is ACTIVE.


     GPU used by master process:

        Device Number: 0
        Device name: Tesla P100-PCIE-16GB
        Compute capability : 60
        Ratio of single to double precision performance  : 2
        Memory Clock Rate (KHz): 715000
        Memory Bus Width (bits): 4096
        Peak Memory Bandwidth (GB/s): 732.16

     celldm(1)=   7.782251  celldm(2)=   0.000000  celldm(3)=   0.000000
     celldm(4)=   0.000000  celldm(5)=   0.000000  celldm(6)=   0.000000

     crystal axes: (cart. coord. in units of alat)
               a(1) = (   0.000000   0.707107   0.707107 )  
               a(2) = (   0.707107   0.000000   0.707107 )  
               a(3) = (   0.707107   0.707107   0.000000 )  

     reciprocal axes: (cart. coord. in units 2 pi/alat)
               b(1) = ( -0.707107  0.707107  0.707107 )  
               b(2) = (  0.707107 -0.707107  0.707107 )  
               b(3) = (  0.707107  0.707107 -0.707107 )  


     PseudoPot. # 1 for Cr read from file:
     ./pseudo/cr_pbesol_v1.5.uspp.F.UPF
     MD5 check sum: a621641e0be27168676a837af8893d0f
     Pseudo is Ultrasoft + core correction, Zval = 14.0
     Generated by new atomic code, or converted to UPF format
     Using radial grid of  857 points,  6 beta functions with: 
                l(1) =   0
                l(2) =   0
                l(3) =   1
                l(4) =   1
                l(5) =   2
                l(6) =   2
     Q(r) pseudized with  8 coefficients,  rinner =    0.950   0.950   0.950
                                                       0.950   0.950

     PseudoPot. # 2 for Fe read from file:
     ./pseudo/Fe.pbesol-spn-kjpaw_psl.0.2.1.UPF
     MD5 check sum: 4d7ec5aa2156491519a4322664fbbf52
     Pseudo is Projector augmented-wave + core cor, Zval = 16.0
     Generated using "atomic" code by A. Dal Corso  v.6.0 svn rev. 13079
     Shape of augmentation charge: PSQ
     Using radial grid of 1191 points,  6 beta functions with: 
                l(1) =   0
                l(2) =   0
                l(3) =   1
                l(4) =   1
                l(5) =   2
                l(6) =   2
     Q(r) pseudized with 0 coefficients 


     PseudoPot. # 3 for Ga read from file:
     ./pseudo/Ga.pbesol-dn-kjpaw_psl.1.0.0.UPF
     MD5 check sum: 2a7819223b42fad6ccd7f29fc9cbee49
     Pseudo is Projector augmented-wave + core cor, Zval = 13.0
     Generated using "atomic" code by A. Dal Corso  v.6.0 svn rev. 13079
     Shape of augmentation charge: PSQ
     Using radial grid of 1205 points,  6 beta functions with: 
                l(1) =   0
                l(2) =   0
                l(3) =   1
                l(4) =   1
                l(5) =   2
                l(6) =   2
     Q(r) pseudized with 0 coefficients 


     atomic species   valence    mass     pseudopotential
        Cr            14.00    51.99610     Cr( 1.00)
        Fe            16.00    55.84500     Fe( 1.00)
        Ga            13.00    69.72300     Ga( 1.00)

     Starting magnetic structure 
     atomic species   magnetization
        Cr           0.357
        Fe           0.313
        Ga           0.100

     48 Sym. Ops., with inversion, found


                                    s                        frac. trans.

      isym =  1     identity                                     

 cryst.   s( 1) = (     1          0          0      )
                  (     0          1          0      )
                  (     0          0          1      )

 cart.    s( 1) = (  1.0000000 -0.0000000  0.0000000 )
                  ( -0.0000000  1.0000000  0.0000000 )
                  ( -0.0000000  0.0000000  1.0000000 )


      isym =  2     180 deg rotation - cart. axis [0,0,1]        

 cryst.   s( 2) = (     0          1         -1      )
                  (     1          0         -1      )
                  (     0          0         -1      )

 cart.    s( 2) = ( -1.0000000  0.0000000  0.0000000 )
                  (  0.0000000 -1.0000000  0.0000000 )
                  (  0.0000000 -0.0000000  1.0000000 )


      isym =  3     180 deg rotation - cart. axis [0,1,0]        

 cryst.   s( 3) = (     0         -1          1      )
                  (     0         -1          0      )
                  (     1         -1          0      )

 cart.    s( 3) = ( -1.0000000 -0.0000000 -0.0000000 )
                  (  0.0000000  1.0000000 -0.0000000 )
                  (  0.0000000  0.0000000 -1.0000000 )


      isym =  4     180 deg rotation - cart. axis [1,0,0]        

 cryst.   s( 4) = (    -1          0          0      )
                  (    -1          0          1      )
                  (    -1          1          0      )

 cart.    s( 4) = (  1.0000000  0.0000000 -0.0000000 )
                  ( -0.0000000 -1.0000000 -0.0000000 )
                  ( -0.0000000 -0.0000000 -1.0000000 )


      isym =  5     180 deg rotation - cart. axis [1,1,0]        

 cryst.   s( 5) = (    -1          0          1      )
                  (     0         -1          1      )
                  (     0          0          1      )

 cart.    s( 5) = ( -0.0000000  1.0000000 -0.0000000 )
                  (  1.0000000 -0.0000000 -0.0000000 )
                  (  0.0000000 -0.0000000 -1.0000000 )


      isym =  6     180 deg rotation - cart. axis [1,-1,0]       

 cryst.   s( 6) = (     0         -1          0      )
                  (    -1          0          0      )
                  (     0          0         -1      )

 cart.    s( 6) = (  0.0000000 -1.0000000 -0.0000000 )
                  ( -1.0000000  0.0000000 -0.0000000 )
                  ( -0.0000000  0.0000000 -1.0000000 )


      isym =  7      90 deg rotation - cart. axis [0,0,-1]       

 cryst.   s( 7) = (     0          1          0      )
                  (     0          1         -1      )
                  (    -1          1          0      )

 cart.    s( 7) = (  0.0000000  1.0000000  0.0000000 )
                  ( -1.0000000 -0.0000000  0.0000000 )
                  ( -0.0000000 -0.0000000  1.0000000 )


      isym =  8      90 deg rotation - cart. axis [0,0,1]        

 cryst.   s( 8) = (     1          0         -1      )
                  (     1          0          0      )
                  (     1         -1          0      )

 cart.    s( 8) = ( -0.0000000 -1.0000000  0.0000000 )
                  (  1.0000000  0.0000000  0.0000000 )
                  (  0.0000000  0.0000000  1.0000000 )


      isym =  9     180 deg rotation - cart. axis [1,0,1]        

 cryst.   s( 9) = (    -1          1          0      )
                  (     0          1          0      )
                  (     0          1         -1      )

 cart.    s( 9) = (  0.0000000  0.0000000  1.0000000 )
                  (  0.0000000 -1.0000000 -0.0000000 )
                  (  1.0000000 -0.0000000 -0.0000000 )


      isym = 10     180 deg rotation - cart. axis [-1,0,1]       

 cryst.   s(10) = (     0          0         -1      )
                  (     0         -1          0      )
                  (    -1          0          0      )

 cart.    s(10) = ( -0.0000000  0.0000000 -1.0000000 )
                  ( -0.0000000 -1.0000000  0.0000000 )
                  ( -1.0000000 -0.0000000  0.0000000 )


      isym = 11      90 deg rotation - cart. axis [0,1,0]        

 cryst.   s(11) = (     0          0          1      )
                  (    -1          0          1      )
                  (     0         -1          1      )

 cart.    s(11) = ( -0.0000000 -0.0000000  1.0000000 )
                  ( -0.0000000  1.0000000 -0.0000000 )
                  ( -1.0000000  0.0000000 -0.0000000 )


      isym = 12      90 deg rotation - cart. axis [0,-1,0]       

 cryst.   s(12) = (     1         -1          0      )
                  (     1          0         -1      )
                  (     1          0          0      )

 cart.    s(12) = (  0.0000000 -0.0000000 -1.0000000 )
                  (  0.0000000  1.0000000  0.0000000 )
                  (  1.0000000  0.0000000  0.0000000 )


      isym = 13     180 deg rotation - cart. axis [0,1,1]        

 cryst.   s(13) = (     1          0          0      )
                  (     1         -1          0      )
                  (     1          0         -1      )

 cart.    s(13) = ( -1.0000000  0.0000000 -0.0000000 )
                  (  0.0000000  0.0000000  1.0000000 )
                  (  0.0000000  1.0000000  0.0000000 )


      isym = 14     180 deg rotation - cart. axis [0,1,-1]       

 cryst.   s(14) = (    -1          0          0      )
                  (     0          0         -1      )
                  (     0         -1          0      )

 cart.    s(14) = ( -1.0000000 -0.0000000  0.0000000 )
                  (  0.0000000 -0.0000000 -1.0000000 )
                  (  0.0000000 -1.0000000 -0.0000000 )


      isym = 15      90 deg rotation - cart. axis [-1,0,0]       

 cryst.   s(15) = (     0         -1          1      )
                  (     0          0          1      )
                  (    -1          0          1      )

 cart.    s(15) = (  1.0000000 -0.0000000 -0.0000000 )
                  ( -0.0000000 -0.0000000  1.0000000 )
                  ( -0.0000000 -1.0000000  0.0000000 )


      isym = 16      90 deg rotation - cart. axis [1,0,0]        

 cryst.   s(16) = (     0          1         -1      )
                  (    -1          1          0      )
                  (     0          1          0      )

 cart.    s(16) = (  1.0000000  0.0000000  0.0000000 )
                  ( -0.0000000  0.0000000 -1.0000000 )
                  ( -0.0000000  1.0000000 -0.0000000 )


      isym = 17     120 deg rotation - cart. axis [-1,-1,-1]     

 cryst.   s(17) = (     0          0          1      )
                  (     1          0          0      )
                  (     0          1          0      )

 cart.    s(17) = (  0.0000000  1.0000000 -0.0000000 )
                  (  0.0000000 -0.0000000  1.0000000 )
                  (  1.0000000 -0.0000000  0.0000000 )


      isym = 18     120 deg rotation - cart. axis [-1,1,1]       

 cryst.   s(18) = (     1         -1          0      )
                  (     0         -1          1      )
                  (     0         -1          0      )

 cart.    s(18) = ( -0.0000000 -1.0000000 -0.0000000 )
                  ( -0.0000000  0.0000000  1.0000000 )
                  ( -1.0000000  0.0000000  0.0000000 )


      isym = 19     120 deg rotation - cart. axis [1,1,-1]       

 cryst.   s(19) = (    -1          1          0      )
                  (    -1          0          0      )
                  (    -1          0          1      )

 cart.    s(19) = ( -0.0000000  1.0000000  0.0000000 )
                  ( -0.0000000 -0.0000000 -1.0000000 )
                  ( -1.0000000 -0.0000000 -0.0000000 )


      isym = 20     120 deg rotation - cart. axis [1,-1,1]       

 cryst.   s(20) = (     0          0         -1      )
                  (     0          1         -1      )
                  (     1          0         -1      )

 cart.    s(20) = (  0.0000000 -1.0000000  0.0000000 )
                  (  0.0000000  0.0000000 -1.0000000 )
                  (  1.0000000  0.0000000 -0.0000000 )


      isym = 21     120 deg rotation - cart. axis [1,1,1]        

 cryst.   s(21) = (     0          1          0      )
                  (     0          0          1      )
                  (     1          0          0      )

 cart.    s(21) = ( -0.0000000  0.0000000  1.0000000 )
                  (  1.0000000  0.0000000 -0.0000000 )
                  (  0.0000000  1.0000000 -0.0000000 )


      isym = 22     120 deg rotation - cart. axis [-1,1,-1]      

 cryst.   s(22) = (    -1          0          1      )
                  (    -1          1          0      )
                  (    -1          0          0      )

 cart.    s(22) = (  0.0000000 -0.0000000  1.0000000 )
                  ( -1.0000000 -0.0000000 -0.0000000 )
                  ( -0.0000000 -1.0000000 -0.0000000 )


      isym = 23     120 deg rotation - cart. axis [1,-1,-1]      

 cryst.   s(23) = (     1          0         -1      )
                  (     0          0         -1      )
                  (     0          1         -1      )

 cart.    s(23) = (  0.0000000  0.0000000 -1.0000000 )
                  ( -1.0000000  0.0000000  0.0000000 )
                  ( -0.0000000  1.0000000  0.0000000 )


      isym = 24     120 deg rotation - cart. axis [-1,-1,1]      

 cryst.   s(24) = (     0         -1          0      )
                  (     1         -1          0      )
                  (     0         -1          1      )

 cart.    s(24) = ( -0.0000000 -0.0000000 -1.0000000 )
                  (  1.0000000 -0.0000000  0.0000000 )
                  (  0.0000000 -1.0000000  0.0000000 )


      isym = 25     inversion                                    

 cryst.   s(25) = (    -1          0          0      )
                  (     0         -1          0      )
                  (     0          0         -1      )

 cart.    s(25) = ( -1.0000000  0.0000000 -0.0000000 )
                  (  0.0000000 -1.0000000 -0.0000000 )
                  (  0.0000000 -0.0000000 -1.0000000 )


      isym = 26     inv. 180 deg rotation - cart. axis [0,0,1]   

 cryst.   s(26) = (     0         -1          1      )
                  (    -1          0          1      )
                  (     0          0          1      )

 cart.    s(26) = (  1.0000000 -0.0000000 -0.0000000 )
                  ( -0.0000000  1.0000000 -0.0000000 )
                  ( -0.0000000  0.0000000 -1.0000000 )


      isym = 27     inv. 180 deg rotation - cart. axis [0,1,0]   

 cryst.   s(27) = (     0          1         -1      )
                  (     0          1          0      )
                  (    -1          1          0      )

 cart.    s(27) = (  1.0000000  0.0000000  0.0000000 )
                  ( -0.0000000 -1.0000000  0.0000000 )
                  ( -0.0000000 -0.0000000  1.0000000 )


      isym = 28     inv. 180 deg rotation - cart. axis [1,0,0]   

 cryst.   s(28) = (     1          0          0      )
                  (     1          0         -1      )
                  (     1         -1          0      )

 cart.    s(28) = ( -1.0000000 -0.0000000  0.0000000 )
                  (  0.0000000  1.0000000  0.0000000 )
                  (  0.0000000  0.0000000  1.0000000 )


      isym = 29     inv. 180 deg rotation - cart. axis [1,1,0]   

 cryst.   s(29) = (     1          0         -1      )
                  (     0          1         -1      )
                  (     0          0         -1      )

 cart.    s(29) = (  0.0000000 -1.0000000  0.0000000 )
                  ( -1.0000000  0.0000000  0.0000000 )
                  ( -0.0000000  0.0000000  1.0000000 )


      isym = 30     inv. 180 deg rotation - cart. axis [1,-1,0]  

 cryst.   s(30) = (     0          1          0      )
                  (     1          0          0      )
                  (     0          0          1      )

 cart.    s(30) = ( -0.0000000  1.0000000  0.0000000 )
                  (  1.0000000 -0.0000000  0.0000000 )
                  (  0.0000000 -0.0000000  1.0000000 )


      isym = 31     inv.  90 deg rotation - cart. axis [0,0,-1]  

 cryst.   s(31) = (     0         -1          0      )
                  (     0         -1          1      )
                  (     1         -1          0      )

 cart.    s(31) = ( -0.0000000 -1.0000000 -0.0000000 )
                  (  1.0000000  0.0000000 -0.0000000 )
                  (  0.0000000  0.0000000 -1.0000000 )


      isym = 32     inv.  90 deg rotation - cart. axis [0,0,1]   

 cryst.   s(32) = (    -1          0          1      )
                  (    -1          0          0      )
                  (    -1          1          0      )

 cart.    s(32) = (  0.0000000  1.0000000 -0.0000000 )
                  ( -1.0000000 -0.0000000 -0.0000000 )
                  ( -0.0000000 -0.0000000 -1.0000000 )


      isym = 33     inv. 180 deg rotation - cart. axis [1,0,1]   

 cryst.   s(33) = (     1         -1          0      )
                  (     0         -1          0      )
                  (     0         -1          1      )

 cart.    s(33) = ( -0.0000000 -0.0000000 -1.0000000 )
                  ( -0.0000000  1.0000000  0.0000000 )
                  ( -1.0000000  0.0000000  0.0000000 )


      isym = 34     inv. 180 deg rotation - cart. axis [-1,0,1]  

 cryst.   s(34) = (     0          0          1      )
                  (     0          1          0      )
                  (     1          0          0      )

 cart.    s(34) = (  0.0000000 -0.0000000  1.0000000 )
                  (  0.0000000  1.0000000 -0.0000000 )
                  (  1.0000000  0.0000000 -0.0000000 )


      isym = 35     inv.  90 deg rotation - cart. axis [0,1,0]   

 cryst.   s(35) = (     0          0         -1      )
                  (     1          0         -1      )
                  (     0          1         -1      )

 cart.    s(35) = (  0.0000000  0.0000000 -1.0000000 )
                  (  0.0000000 -1.0000000  0.0000000 )
                  (  1.0000000 -0.0000000  0.0000000 )


      isym = 36     inv.  90 deg rotation - cart. axis [0,-1,0]  

 cryst.   s(36) = (    -1          1          0      )
                  (    -1          0          1      )
                  (    -1          0          0      )

 cart.    s(36) = ( -0.0000000  0.0000000  1.0000000 )
                  ( -0.0000000 -1.0000000 -0.0000000 )
                  ( -1.0000000 -0.0000000 -0.0000000 )


      isym = 37     inv. 180 deg rotation - cart. axis [0,1,1]   

 cryst.   s(37) = (    -1          0          0      )
                  (    -1          1          0      )
                  (    -1          0          1      )

 cart.    s(37) = (  1.0000000 -0.0000000  0.0000000 )
                  ( -0.0000000 -0.0000000 -1.0000000 )
                  ( -0.0000000 -1.0000000 -0.0000000 )


      isym = 38     inv. 180 deg rotation - cart. axis [0,1,-1]  

 cryst.   s(38) = (     1          0          0      )
                  (     0          0          1      )
                  (     0          1          0      )

 cart.    s(38) = (  1.0000000  0.0000000 -0.0000000 )
                  ( -0.0000000  0.0000000  1.0000000 )
                  ( -0.0000000  1.0000000  0.0000000 )


      isym = 39     inv.  90 deg rotation - cart. axis [-1,0,0]  

 cryst.   s(39) = (     0          1         -1      )
                  (     0          0         -1      )
                  (     1          0         -1      )

 cart.    s(39) = ( -1.0000000  0.0000000  0.0000000 )
                  (  0.0000000  0.0000000 -1.0000000 )
                  (  0.0000000  1.0000000 -0.0000000 )


      isym = 40     inv.  90 deg rotation - cart. axis [1,0,0]   

 cryst.   s(40) = (     0         -1          1      )
                  (     1         -1          0      )
                  (     0         -1          0      )

 cart.    s(40) = ( -1.0000000 -0.0000000 -0.0000000 )
                  (  0.0000000 -0.0000000  1.0000000 )
                  (  0.0000000 -1.0000000  0.0000000 )


      isym = 41     inv. 120 deg rotation - cart. axis [-1,-1,-1]

 cryst.   s(41) = (     0          0         -1      )
                  (    -1          0          0      )
                  (     0         -1          0      )

 cart.    s(41) = ( -0.0000000 -1.0000000  0.0000000 )
                  ( -0.0000000  0.0000000 -1.0000000 )
                  ( -1.0000000  0.0000000 -0.0000000 )


      isym = 42     inv. 120 deg rotation - cart. axis [-1,1,1]  

 cryst.   s(42) = (    -1          1          0      )
                  (     0          1         -1      )
                  (     0          1          0      )

 cart.    s(42) = (  0.0000000  1.0000000  0.0000000 )
                  (  0.0000000 -0.0000000 -1.0000000 )
                  (  1.0000000 -0.0000000 -0.0000000 )


      isym = 43     inv. 120 deg rotation - cart. axis [1,1,-1]  

 cryst.   s(43) = (     1         -1          0      )
                  (     1          0          0      )
                  (     1          0         -1      )

 cart.    s(43) = (  0.0000000 -1.0000000 -0.0000000 )
                  (  0.0000000  0.0000000  1.0000000 )
                  (  1.0000000  0.0000000  0.0000000 )


      isym = 44     inv. 120 deg rotation - cart. axis [1,-1,1]  

 cryst.   s(44) = (     0          0          1      )
                  (     0         -1          1      )
                  (    -1          0          1      )

 cart.    s(44) = ( -0.0000000  1.0000000 -0.0000000 )
                  ( -0.0000000 -0.0000000  1.0000000 )
                  ( -1.0000000 -0.0000000  0.0000000 )


      isym = 45     inv. 120 deg rotation - cart. axis [1,1,1]   

 cryst.   s(45) = (     0         -1          0      )
                  (     0          0         -1      )
                  (    -1          0          0      )

 cart.    s(45) = (  0.0000000 -0.0000000 -1.0000000 )
                  ( -1.0000000 -0.0000000  0.0000000 )
                  ( -0.0000000 -1.0000000  0.0000000 )


      isym = 46     inv. 120 deg rotation - cart. axis [-1,1,-1] 

 cryst.   s(46) = (     1          0         -1      )
                  (     1         -1          0      )
                  (     1          0          0      )

 cart.    s(46) = ( -0.0000000  0.0000000 -1.0000000 )
                  (  1.0000000  0.0000000  0.0000000 )
                  (  0.0000000  1.0000000  0.0000000 )


      isym = 47     inv. 120 deg rotation - cart. axis [1,-1,-1] 

 cryst.   s(47) = (    -1          0          1      )
                  (     0          0          1      )
                  (     0         -1          1      )

 cart.    s(47) = ( -0.0000000 -0.0000000  1.0000000 )
                  (  1.0000000 -0.0000000 -0.0000000 )
                  (  0.0000000 -1.0000000 -0.0000000 )


      isym = 48     inv. 120 deg rotation - cart. axis [-1,-1,1] 

 cryst.   s(48) = (     0          1          0      )
                  (    -1          1          0      )
                  (     0          1         -1      )

 cart.    s(48) = (  0.0000000  0.0000000  1.0000000 )
                  ( -1.0000000  0.0000000 -0.0000000 )
                  ( -0.0000000  1.0000000 -0.0000000 )


   Cartesian axes

     site n.     atom                  positions (alat units)
         1           Cr  tau(   1) = (   0.0000000   0.0000000   0.0000000  )
         2           Ga  tau(   2) = (   0.7071068   0.0000000   0.0000000  )
         3           Fe  tau(   3) = (   0.3535534   0.3535534   1.0606602  )
         4           Fe  tau(   4) = (   0.3535534   1.0606602   1.0606602  )

   Crystallographic axes

     site n.     atom                  positions (cryst. coord.)
         1           Cr  tau(   1) = (  0.0000000  0.0000000  0.0000000  )
         2           Ga  tau(   2) = ( -0.5000000  0.5000000  0.5000000  )
         3           Fe  tau(   3) = (  0.7500000  0.7500000 -0.2500000  )
         4           Fe  tau(   4) = (  1.2500000  0.2500000  0.2500000  )

     number of k points=    84  Marzari-Vanderbilt smearing, width (Ry)=  0.0100
                       cart. coord. in units 2pi/alat
        k(    1) = (   0.0000000   0.0000000   0.0000000), wk =   0.0004552
        k(    2) = (   0.0543928   0.0543928  -0.0543928), wk =   0.0036413
        k(    3) = (   0.1087857   0.1087857  -0.1087857), wk =   0.0036413
        k(    4) = (   0.1631785   0.1631785  -0.1631785), wk =   0.0036413
        k(    5) = (   0.2175713   0.2175713  -0.2175713), wk =   0.0036413
        k(    6) = (   0.2719641   0.2719641  -0.2719641), wk =   0.0036413
        k(    7) = (   0.3263570   0.3263570  -0.3263570), wk =   0.0036413
        k(    8) = (   0.1087857  -0.0000000   0.0000000), wk =   0.0027310
        k(    9) = (   0.1631785   0.0543928  -0.0543928), wk =   0.0109240
        k(   10) = (   0.2175713   0.1087857  -0.1087857), wk =   0.0109240
        k(   11) = (   0.2719641   0.1631785  -0.1631785), wk =   0.0109240
        k(   12) = (   0.3263570   0.2175713  -0.2175713), wk =   0.0109240
        k(   13) = (   0.3807498   0.2719641  -0.2719641), wk =   0.0109240
        k(   14) = (  -0.2719641  -0.3807498   0.3807498), wk =   0.0109240
        k(   15) = (  -0.2175713  -0.3263570   0.3263570), wk =   0.0109240
        k(   16) = (  -0.1631785  -0.2719641   0.2719641), wk =   0.0109240
        k(   17) = (  -0.1087857  -0.2175713   0.2175713), wk =   0.0109240
        k(   18) = (  -0.0543928  -0.1631785   0.1631785), wk =   0.0109240
        k(   19) = (   0.0000000  -0.1087857   0.1087857), wk =   0.0054620
        k(   20) = (   0.2175713  -0.0000000   0.0000000), wk =   0.0027310
        k(   21) = (   0.2719641   0.0543928  -0.0543928), wk =   0.0109240
        k(   22) = (   0.3263570   0.1087857  -0.1087857), wk =   0.0109240
        k(   23) = (   0.3807498   0.1631785  -0.1631785), wk =   0.0109240
        k(   24) = (   0.4351426   0.2175713  -0.2175713), wk =   0.0109240
        k(   25) = (  -0.2175713  -0.4351426   0.4351426), wk =   0.0109240
        k(   26) = (  -0.1631785  -0.3807498   0.3807498), wk =   0.0109240
        k(   27) = (  -0.1087857  -0.3263570   0.3263570), wk =   0.0109240
        k(   28) = (  -0.0543928  -0.2719641   0.2719641), wk =   0.0109240
        k(   29) = (   0.0000000  -0.2175713   0.2175713), wk =   0.0054620
        k(   30) = (   0.3263570  -0.0000000   0.0000000), wk =   0.0027310
        k(   31) = (   0.3807498   0.0543928  -0.0543928), wk =   0.0109240
        k(   32) = (   0.4351426   0.1087857  -0.1087857), wk =   0.0109240
        k(   33) = (   0.4895355   0.1631785  -0.1631785), wk =   0.0109240
        k(   34) = (  -0.1631785  -0.4895355   0.4895355), wk =   0.0109240
        k(   35) = (  -0.1087857  -0.4351426   0.4351426), wk =   0.0109240
        k(   36) = (  -0.0543928  -0.3807498   0.3807498), wk =   0.0109240
        k(   37) = (   0.0000000  -0.3263570   0.3263570), wk =   0.0054620
        k(   38) = (   0.4351426  -0.0000000   0.0000000), wk =   0.0027310
        k(   39) = (   0.4895355   0.0543928  -0.0543928), wk =   0.0109240
        k(   40) = (   0.5439283   0.1087857  -0.1087857), wk =   0.0109240
        k(   41) = (  -0.1087857  -0.5439283   0.5439283), wk =   0.0109240
        k(   42) = (  -0.0543928  -0.4895355   0.4895355), wk =   0.0109240
        k(   43) = (   0.0000000  -0.4351426   0.4351426), wk =   0.0054620
        k(   44) = (   0.5439283  -0.0000000   0.0000000), wk =   0.0027310
        k(   45) = (   0.5983211   0.0543928  -0.0543928), wk =   0.0109240
        k(   46) = (  -0.0543928  -0.5983211   0.5983211), wk =   0.0109240
        k(   47) = (   0.0000000  -0.5439283   0.5439283), wk =   0.0054620
        k(   48) = (   0.6527140  -0.0000000   0.0000000), wk =   0.0027310
        k(   49) = (   0.0000000  -0.6527140   0.6527140), wk =   0.0054620
        k(   50) = (   0.2175713   0.1087857   0.0000000), wk =   0.0109240
        k(   51) = (   0.2719641   0.1631785  -0.0543928), wk =   0.0218480
        k(   52) = (   0.3263570   0.2175713  -0.1087857), wk =   0.0218480
        k(   53) = (   0.3807498   0.2719641  -0.1631785), wk =   0.0218480
        k(   54) = (  -0.2719641  -0.3807498   0.4895355), wk =   0.0218480
        k(   55) = (   0.3263570   0.1087857   0.0000000), wk =   0.0109240
        k(   56) = (   0.3807498   0.1631785  -0.0543928), wk =   0.0218480
        k(   57) = (   0.4351426   0.2175713  -0.1087857), wk =   0.0218480
        k(   58) = (  -0.2175713  -0.4351426   0.5439283), wk =   0.0218480
        k(   59) = (  -0.1631785  -0.3807498   0.4895355), wk =   0.0218480
        k(   60) = (  -0.1087857  -0.3263570   0.4351426), wk =   0.0218480
        k(   61) = (  -0.0543928  -0.2719641   0.3807498), wk =   0.0218480
        k(   62) = (   0.0000000  -0.2175713   0.3263570), wk =   0.0109240
        k(   63) = (   0.4351426   0.1087857   0.0000000), wk =   0.0109240
        k(   64) = (   0.4895355   0.1631785  -0.0543928), wk =   0.0218480
        k(   65) = (  -0.1631785  -0.4895355   0.5983211), wk =   0.0218480
        k(   66) = (  -0.1087857  -0.4351426   0.5439283), wk =   0.0218480
        k(   67) = (  -0.0543928  -0.3807498   0.4895355), wk =   0.0218480
        k(   68) = (   0.0000000  -0.3263570   0.4351426), wk =   0.0109240
        k(   69) = (   0.5439283   0.1087857   0.0000000), wk =   0.0109240
        k(   70) = (  -0.1087857  -0.5439283   0.6527140), wk =   0.0218480
        k(   71) = (  -0.0543928  -0.4895355   0.5983211), wk =   0.0218480
        k(   72) = (   0.0000000  -0.4351426   0.5439283), wk =   0.0109240
        k(   73) = (  -0.0543928  -0.5983211   0.7071068), wk =   0.0109240
        k(   74) = (   0.0000000  -0.5439283   0.6527140), wk =   0.0109240
        k(   75) = (   0.4351426   0.2175713   0.0000000), wk =   0.0109240
        k(   76) = (  -0.2175713  -0.4351426   0.6527140), wk =   0.0218480
        k(   77) = (  -0.1631785  -0.3807498   0.5983211), wk =   0.0218480
        k(   78) = (  -0.1631785  -0.4895355   0.7071068), wk =   0.0109240
        k(   79) = (  -0.1087857  -0.4351426   0.6527140), wk =   0.0218480
        k(   80) = (  -0.0543928  -0.3807498   0.5983211), wk =   0.0218480
        k(   81) = (   0.0000000  -0.3263570   0.5439283), wk =   0.0109240
        k(   82) = (  -0.0543928  -0.4895355   0.7071068), wk =   0.0109240
        k(   83) = (   0.0000000  -0.4351426   0.6527140), wk =   0.0109240
        k(   84) = (  -0.0543928  -0.3807498   0.7071068), wk =   0.0109240

                       cryst. coord.
        k(    1) = (   0.0000000   0.0000000   0.0000000), wk =   0.0004552
        k(    2) = (   0.0000000   0.0000000   0.0769231), wk =   0.0036413
        k(    3) = (   0.0000000   0.0000000   0.1538462), wk =   0.0036413
        k(    4) = (   0.0000000   0.0000000   0.2307692), wk =   0.0036413
        k(    5) = (   0.0000000   0.0000000   0.3076923), wk =   0.0036413
        k(    6) = (   0.0000000   0.0000000   0.3846154), wk =   0.0036413
        k(    7) = (   0.0000000   0.0000000   0.4615385), wk =   0.0036413
        k(    8) = (  -0.0000000   0.0769231   0.0769231), wk =   0.0027310
        k(    9) = (  -0.0000000   0.0769231   0.1538462), wk =   0.0109240
        k(   10) = (   0.0000000   0.0769231   0.2307692), wk =   0.0109240
        k(   11) = (  -0.0000000   0.0769231   0.3076923), wk =   0.0109240
        k(   12) = (   0.0000000   0.0769231   0.3846154), wk =   0.0109240
        k(   13) = (   0.0000000   0.0769231   0.4615385), wk =   0.0109240
        k(   14) = (   0.0000000   0.0769231  -0.4615385), wk =   0.0109240
        k(   15) = (   0.0000000   0.0769231  -0.3846154), wk =   0.0109240
        k(   16) = (  -0.0000000   0.0769231  -0.3076923), wk =   0.0109240
        k(   17) = (  -0.0000000   0.0769231  -0.2307692), wk =   0.0109240
        k(   18) = (  -0.0000000   0.0769231  -0.1538462), wk =   0.0109240
        k(   19) = (  -0.0000000   0.0769231  -0.0769231), wk =   0.0054620
        k(   20) = (  -0.0000000   0.1538462   0.1538462), wk =   0.0027310
        k(   21) = (  -0.0000000   0.1538462   0.2307692), wk =   0.0109240
        k(   22) = (  -0.0000000   0.1538462   0.3076923), wk =   0.0109240
        k(   23) = (  -0.0000000   0.1538462   0.3846154), wk =   0.0109240
        k(   24) = (   0.0000000   0.1538462   0.4615385), wk =   0.0109240
        k(   25) = (  -0.0000000   0.1538462  -0.4615385), wk =   0.0109240
        k(   26) = (   0.0000000   0.1538462  -0.3846154), wk =   0.0109240
        k(   27) = (  -0.0000000   0.1538462  -0.3076923), wk =   0.0109240
        k(   28) = (  -0.0000000   0.1538462  -0.2307692), wk =   0.0109240
        k(   29) = (  -0.0000000   0.1538462  -0.1538462), wk =   0.0054620
        k(   30) = (   0.0000000   0.2307692   0.2307692), wk =   0.0027310
        k(   31) = (   0.0000000   0.2307692   0.3076923), wk =   0.0109240
        k(   32) = (  -0.0000000   0.2307692   0.3846154), wk =   0.0109240
        k(   33) = (  -0.0000000   0.2307692   0.4615385), wk =   0.0109240
        k(   34) = (  -0.0000000   0.2307692  -0.4615385), wk =   0.0109240
        k(   35) = (   0.0000000   0.2307692  -0.3846154), wk =   0.0109240
        k(   36) = (   0.0000000   0.2307692  -0.3076923), wk =   0.0109240
        k(   37) = (   0.0000000   0.2307692  -0.2307692), wk =   0.0054620
        k(   38) = (  -0.0000000   0.3076923   0.3076923), wk =   0.0027310
        k(   39) = (  -0.0000000   0.3076923   0.3846154), wk =   0.0109240
        k(   40) = (  -0.0000000   0.3076923   0.4615385), wk =   0.0109240
        k(   41) = (  -0.0000000   0.3076923  -0.4615385), wk =   0.0109240
        k(   42) = (   0.0000000   0.3076923  -0.3846154), wk =   0.0109240
        k(   43) = (  -0.0000000   0.3076923  -0.3076923), wk =   0.0054620
        k(   44) = (  -0.0000000   0.3846154   0.3846154), wk =   0.0027310
        k(   45) = (  -0.0000000   0.3846154   0.4615385), wk =   0.0109240
        k(   46) = (  -0.0000000   0.3846154  -0.4615385), wk =   0.0109240
        k(   47) = (  -0.0000000   0.3846154  -0.3846154), wk =   0.0054620
        k(   48) = (   0.0000000   0.4615385   0.4615385), wk =   0.0027310
        k(   49) = (  -0.0000000   0.4615385  -0.4615385), wk =   0.0054620
        k(   50) = (   0.0769231   0.1538462   0.2307692), wk =   0.0109240
        k(   51) = (   0.0769231   0.1538462   0.3076923), wk =   0.0218480
        k(   52) = (   0.0769231   0.1538462   0.3846154), wk =   0.0218480
        k(   53) = (   0.0769231   0.1538462   0.4615385), wk =   0.0218480
        k(   54) = (   0.0769231   0.1538462  -0.4615385), wk =   0.0218480
        k(   55) = (   0.0769231   0.2307692   0.3076923), wk =   0.0109240
        k(   56) = (   0.0769231   0.2307692   0.3846154), wk =   0.0218480
        k(   57) = (   0.0769231   0.2307692   0.4615385), wk =   0.0218480
        k(   58) = (   0.0769231   0.2307692  -0.4615385), wk =   0.0218480
        k(   59) = (   0.0769231   0.2307692  -0.3846154), wk =   0.0218480
        k(   60) = (   0.0769231   0.2307692  -0.3076923), wk =   0.0218480
        k(   61) = (   0.0769231   0.2307692  -0.2307692), wk =   0.0218480
        k(   62) = (   0.0769231   0.2307692  -0.1538462), wk =   0.0109240
        k(   63) = (   0.0769231   0.3076923   0.3846154), wk =   0.0109240
        k(   64) = (   0.0769231   0.3076923   0.4615385), wk =   0.0218480
        k(   65) = (   0.0769231   0.3076923  -0.4615385), wk =   0.0218480
        k(   66) = (   0.0769231   0.3076923  -0.3846154), wk =   0.0218480
        k(   67) = (   0.0769231   0.3076923  -0.3076923), wk =   0.0218480
        k(   68) = (   0.0769231   0.3076923  -0.2307692), wk =   0.0109240
        k(   69) = (   0.0769231   0.3846154   0.4615385), wk =   0.0109240
        k(   70) = (   0.0769231   0.3846154  -0.4615385), wk =   0.0218480
        k(   71) = (   0.0769231   0.3846154  -0.3846154), wk =   0.0218480
        k(   72) = (   0.0769231   0.3846154  -0.3076923), wk =   0.0109240
        k(   73) = (   0.0769231   0.4615385  -0.4615385), wk =   0.0109240
        k(   74) = (   0.0769231   0.4615385  -0.3846154), wk =   0.0109240
        k(   75) = (   0.1538462   0.3076923   0.4615385), wk =   0.0109240
        k(   76) = (   0.1538462   0.3076923  -0.4615385), wk =   0.0218480
        k(   77) = (   0.1538462   0.3076923  -0.3846154), wk =   0.0218480
        k(   78) = (   0.1538462   0.3846154  -0.4615385), wk =   0.0109240
        k(   79) = (   0.1538462   0.3846154  -0.3846154), wk =   0.0218480
        k(   80) = (   0.1538462   0.3846154  -0.3076923), wk =   0.0218480
        k(   81) = (   0.1538462   0.3846154  -0.2307692), wk =   0.0109240
        k(   82) = (   0.1538462   0.4615385  -0.3846154), wk =   0.0109240
        k(   83) = (   0.1538462   0.4615385  -0.3076923), wk =   0.0109240
        k(   84) = (   0.2307692   0.4615385  -0.3076923), wk =   0.0109240

     Dense  grid:   199705 G-vectors     FFT dimensions: (  81,  81,  81)

     Smooth grid:    38517 G-vectors     FFT dimensions: (  48,  48,  48)

     Dynamical RAM for                 wfc:       2.64 MB

     Dynamical RAM for     wfc (w. buffer):     446.07 MB

     Dynamical RAM for           str. fact:       9.14 MB

     Dynamical RAM for           local pot:       0.00 MB

     Dynamical RAM for          nlocal pot:       5.28 MB

     Dynamical RAM for                qrad:       7.91 MB

     Dynamical RAM for          rho,v,vnew:      42.61 MB

     Dynamical RAM for               rhoin:      14.20 MB

     Dynamical RAM for            rho*nmix:      97.51 MB

     Dynamical RAM for           G-vectors:      11.72 MB

     Dynamical RAM for          h,s,v(r/c):       0.24 MB

     Dynamical RAM for          <psi|beta>:       0.04 MB

     Dynamical RAM for                 psi:       5.28 MB

     Dynamical RAM for                hpsi:       5.28 MB

     Dynamical RAM for                spsi:       5.28 MB

     Dynamical RAM for      wfcinit/wfcrot:       6.65 MB

     Dynamical RAM for           addusdens:     575.93 MB

     Dynamical RAM for          addusforce:     582.04 MB

     Dynamical RAM for         addusstress:     617.07 MB

     Estimated static dynamical RAM per process >     573.45 MB

     Estimated max dynamical RAM per process >       1.26 GB

     Check: negative core charge=   -0.000006
     Generating pointlists ...
     new r_m :   0.2526 (alat units)  1.9658 (a.u.) for type    1
     new r_m :   0.2526 (alat units)  1.9658 (a.u.) for type    2
     new r_m :   0.2526 (alat units)  1.9658 (a.u.) for type    3

     Initial potential from superposition of free atoms

     starting charge      57.9965, renormalised to      59.0000

     negative rho (up, down):  4.783E-04 2.229E-04
     Starting wfcs are   45 randomized atomic wfcs
     Checking if some PAW data can be deallocated... 

     total cpu time spent up to now is        8.3 secs

     per-process dynamical memory:  1247.6 Mb

     Self-consistent Calculation
[tb_dev] Currently allocated     1.27E+00 Mbytes, locked:    0 /   8
[tb_pin] Currently allocated     0.00E+00 Mbytes, locked:    0 /   0

     iteration #  1     ecut=    90.00 Ry     beta= 0.40
     Davidson diagonalization with overlap

---- Real-time Memory Report at c_bands before calling an iterative solver
          1616 MiB given to the printing process from OS
          1232 MiB allocation reported by mallinfo(arena+hblkhd)
         57694 MiB available memory on the node where the printing process lives
     GPU memory used/free/total (MiB): 1064 / 15216 / 16280
------------------
     ethr =  1.00E-02,  avg # of iterations =  2.0

     negative rho (up, down):  1.134E-05 3.563E-04

     total cpu time spent up to now is       13.7 secs

     total energy              =   -1101.14104488 Ry
     estimated scf accuracy    <       6.00006443 Ry

     total magnetization       =     9.06 Bohr mag/cell
     absolute magnetization    =     9.19 Bohr mag/cell
[tb_dev] Currently allocated     1.27E+00 Mbytes, locked:    0 /   6
[tb_pin] Currently allocated     0.00E+00 Mbytes, locked:    0 /   0

     iteration #  2     ecut=    90.00 Ry     beta= 0.40
     Davidson diagonalization with overlap

---- Real-time Memory Report at c_bands before calling an iterative solver
          1840 MiB given to the printing process from OS
          1286 MiB allocation reported by mallinfo(arena+hblkhd)
         57665 MiB available memory on the node where the printing process lives
     GPU memory used/free/total (MiB): 1756 / 14524 / 16280
------------------
     ethr =  1.00E-02,  avg # of iterations =  5.1

     negative rho (up, down):  3.863E-05 5.945E-04

     total cpu time spent up to now is       22.1 secs

     total energy              =   -1103.12715022 Ry
     estimated scf accuracy    <      30.73515851 Ry

     total magnetization       =     0.93 Bohr mag/cell
     absolute magnetization    =     1.02 Bohr mag/cell
[tb_dev] Currently allocated     1.27E+00 Mbytes, locked:    0 /   6
[tb_pin] Currently allocated     0.00E+00 Mbytes, locked:    0 /   0

     iteration #  3     ecut=    90.00 Ry     beta= 0.40
     Davidson diagonalization with overlap

---- Real-time Memory Report at c_bands before calling an iterative solver
          2000 MiB given to the printing process from OS
          1296 MiB allocation reported by mallinfo(arena+hblkhd)
         57657 MiB available memory on the node where the printing process lives
     GPU memory used/free/total (MiB): 1790 / 14490 / 16280
------------------
     ethr =  1.00E-02,  avg # of iterations =  2.0

     negative rho (up, down):  4.993E-05 6.953E-04

     total cpu time spent up to now is       27.7 secs

     total energy              =   -1103.93533538 Ry
     estimated scf accuracy    <       6.86095966 Ry

     total magnetization       =     3.10 Bohr mag/cell
     absolute magnetization    =     3.50 Bohr mag/cell
[tb_dev] Currently allocated     1.27E+00 Mbytes, locked:    0 /   6
[tb_pin] Currently allocated     0.00E+00 Mbytes, locked:    0 /   0

     iteration #  4     ecut=    90.00 Ry     beta= 0.40
     Davidson diagonalization with overlap

---- Real-time Memory Report at c_bands before calling an iterative solver
          2071 MiB given to the printing process from OS
          1305 MiB allocation reported by mallinfo(arena+hblkhd)
         57646 MiB available memory on the node where the printing process lives
     GPU memory used/free/total (MiB): 1838 / 14442 / 16280
------------------
     ethr =  1.00E-02,  avg # of iterations =  1.7

     negative rho (up, down):  6.758E-05 1.623E-03

     total cpu time spent up to now is       32.9 secs

     total energy              =   -1103.37889802 Ry
     estimated scf accuracy    <       2.88765483 Ry

     total magnetization       =     4.08 Bohr mag/cell
     absolute magnetization    =     4.47 Bohr mag/cell
[tb_dev] Currently allocated     1.27E+00 Mbytes, locked:    0 /   6
[tb_pin] Currently allocated     0.00E+00 Mbytes, locked:    0 /   0

     iteration #  5     ecut=    90.00 Ry     beta= 0.40
     Davidson diagonalization with overlap

---- Real-time Memory Report at c_bands before calling an iterative solver
          2141 MiB given to the printing process from OS
          1315 MiB allocation reported by mallinfo(arena+hblkhd)
         57636 MiB available memory on the node where the printing process lives
     GPU memory used/free/total (MiB): 1838 / 14442 / 16280
------------------
     ethr =  4.89E-03,  avg # of iterations =  4.6

     negative rho (up, down):  6.505E-05 1.430E-03

     total cpu time spent up to now is       40.9 secs

     total energy              =   -1105.05787739 Ry
     estimated scf accuracy    <      16.40062048 Ry

     total magnetization       =     7.70 Bohr mag/cell
     absolute magnetization    =     7.87 Bohr mag/cell
[tb_dev] Currently allocated     1.27E+00 Mbytes, locked:    0 /   6
[tb_pin] Currently allocated     0.00E+00 Mbytes, locked:    0 /   0

     iteration #  6     ecut=    90.00 Ry     beta= 0.40
     Davidson diagonalization with overlap

---- Real-time Memory Report at c_bands before calling an iterative solver
          2201 MiB given to the printing process from OS
          1324 MiB allocation reported by mallinfo(arena+hblkhd)
         57628 MiB available memory on the node where the printing process lives
     GPU memory used/free/total (MiB): 1838 / 14442 / 16280
------------------
     ethr =  4.89E-03,  avg # of iterations =  1.0

     negative rho (up, down):  4.623E-05 1.053E-03

     total cpu time spent up to now is       45.9 secs

     total energy              =   -1103.70424520 Ry
     estimated scf accuracy    <      13.90753258 Ry

     total magnetization       =     7.69 Bohr mag/cell
     absolute magnetization    =     7.88 Bohr mag/cell
[tb_dev] Currently allocated     1.27E+00 Mbytes, locked:    0 /   6
[tb_pin] Currently allocated     0.00E+00 Mbytes, locked:    0 /   0

     iteration #  7     ecut=    90.00 Ry     beta= 0.40
     Davidson diagonalization with overlap

---- Real-time Memory Report at c_bands before calling an iterative solver
          2223 MiB given to the printing process from OS
          1335 MiB allocation reported by mallinfo(arena+hblkhd)
         57616 MiB available memory on the node where the printing process lives
     GPU memory used/free/total (MiB): 1838 / 14442 / 16280
------------------
     ethr =  4.89E-03,  avg # of iterations =  1.7

     negative rho (up, down):  4.801E-05 1.074E-03

     total cpu time spent up to now is       51.1 secs

     total energy              =   -1104.19093551 Ry
     estimated scf accuracy    <       0.11678183 Ry

     total magnetization       =     4.92 Bohr mag/cell
     absolute magnetization    =     5.35 Bohr mag/cell
[tb_dev] Currently allocated     1.27E+00 Mbytes, locked:    0 /   6
[tb_pin] Currently allocated     0.00E+00 Mbytes, locked:    0 /   0

     iteration #  8     ecut=    90.00 Ry     beta= 0.40
     Davidson diagonalization with overlap

---- Real-time Memory Report at c_bands before calling an iterative solver
          2233 MiB given to the printing process from OS
          1344 MiB allocation reported by mallinfo(arena+hblkhd)
         57610 MiB available memory on the node where the printing process lives
     GPU memory used/free/total (MiB): 1838 / 14442 / 16280
------------------
     ethr =  1.98E-04,  avg # of iterations =  4.5

     negative rho (up, down):  4.465E-05 1.053E-03

     total cpu time spent up to now is       58.5 secs

     total energy              =   -1104.17479926 Ry
     estimated scf accuracy    <       0.86852963 Ry

     total magnetization       =     5.72 Bohr mag/cell
     absolute magnetization    =     6.03 Bohr mag/cell
[tb_dev] Currently allocated     1.27E+00 Mbytes, locked:    0 /   6
[tb_pin] Currently allocated     0.00E+00 Mbytes, locked:    0 /   0

     iteration #  9     ecut=    90.00 Ry     beta= 0.40
     Davidson diagonalization with overlap

---- Real-time Memory Report at c_bands before calling an iterative solver
          2244 MiB given to the printing process from OS
          1355 MiB allocation reported by mallinfo(arena+hblkhd)
         57597 MiB available memory on the node where the printing process lives
     GPU memory used/free/total (MiB): 1838 / 14442 / 16280
------------------
     ethr =  1.98E-04,  avg # of iterations =  1.9

     negative rho (up, down):  4.984E-05 9.329E-04

     total cpu time spent up to now is       63.8 secs

     total energy              =   -1104.20597830 Ry
     estimated scf accuracy    <       0.00985926 Ry

     total magnetization       =     4.12 Bohr mag/cell
     absolute magnetization    =     4.67 Bohr mag/cell
[tb_dev] Currently allocated     1.27E+00 Mbytes, locked:    0 /   6
[tb_pin] Currently allocated     0.00E+00 Mbytes, locked:    0 /   0

     iteration # 10     ecut=    90.00 Ry     beta= 0.40
     Davidson diagonalization with overlap

---- Real-time Memory Report at c_bands before calling an iterative solver
          2254 MiB given to the printing process from OS
          1365 MiB allocation reported by mallinfo(arena+hblkhd)
         57590 MiB available memory on the node where the printing process lives
     GPU memory used/free/total (MiB): 1838 / 14442 / 16280
------------------
     c_bands:  1 eigenvalues not converged
     c_bands:  1 eigenvalues not converged
     ethr =  1.67E-05,  avg # of iterations =  8.1

     negative rho (up, down):  5.807E-05 8.980E-04

     total cpu time spent up to now is       74.7 secs

     total energy              =   -1104.16977773 Ry
     estimated scf accuracy    <       0.68952165 Ry

     total magnetization       =     2.72 Bohr mag/cell
     absolute magnetization    =     3.64 Bohr mag/cell
[tb_dev] Currently allocated     1.27E+00 Mbytes, locked:    0 /   6
[tb_pin] Currently allocated     0.00E+00 Mbytes, locked:    0 /   0

     iteration # 11     ecut=    90.00 Ry     beta= 0.40
     Davidson diagonalization with overlap

---- Real-time Memory Report at c_bands before calling an iterative solver
          2261 MiB given to the printing process from OS
          1371 MiB allocation reported by mallinfo(arena+hblkhd)
         57583 MiB available memory on the node where the printing process lives
     GPU memory used/free/total (MiB): 1838 / 14442 / 16280
------------------
     ethr =  1.67E-05,  avg # of iterations =  4.9

     negative rho (up, down):  1.007E-04 7.079E-04

     total cpu time spent up to now is       83.1 secs

     total energy              =   -1104.19551057 Ry
     estimated scf accuracy    <       0.18488045 Ry

     total magnetization       =     4.40 Bohr mag/cell
     absolute magnetization    =     4.86 Bohr mag/cell
[tb_dev] Currently allocated     1.27E+00 Mbytes, locked:    0 /   6
[tb_pin] Currently allocated     0.00E+00 Mbytes, locked:    0 /   0

     iteration # 12     ecut=    90.00 Ry     beta= 0.40
     Davidson diagonalization with overlap

---- Real-time Memory Report at c_bands before calling an iterative solver
          2266 MiB given to the printing process from OS
          1377 MiB allocation reported by mallinfo(arena+hblkhd)
         57580 MiB available memory on the node where the printing process lives
     GPU memory used/free/total (MiB): 1838 / 14442 / 16280
------------------
     ethr =  1.67E-05,  avg # of iterations =  3.2

     negative rho (up, down):  8.112E-05 7.176E-04

     total cpu time spent up to now is       89.7 secs

     total energy              =   -1104.21563855 Ry
     estimated scf accuracy    <       0.16367525 Ry

     total magnetization       =     2.86 Bohr mag/cell
     absolute magnetization    =     3.70 Bohr mag/cell
[tb_dev] Currently allocated     1.27E+00 Mbytes, locked:    0 /   6
[tb_pin] Currently allocated     0.00E+00 Mbytes, locked:    0 /   0

     iteration # 13     ecut=    90.00 Ry     beta= 0.40
     Davidson diagonalization with overlap

---- Real-time Memory Report at c_bands before calling an iterative solver
          2272 MiB given to the printing process from OS
          1383 MiB allocation reported by mallinfo(arena+hblkhd)
         57573 MiB available memory on the node where the printing process lives
     GPU memory used/free/total (MiB): 1838 / 14442 / 16280
------------------
     ethr =  1.67E-05,  avg # of iterations =  1.1

     negative rho (up, down):  1.646E-04 6.376E-04

     total cpu time spent up to now is       94.6 secs

     total energy              =   -1104.21672799 Ry
     estimated scf accuracy    <       0.04993651 Ry

     total magnetization       =     3.19 Bohr mag/cell
     absolute magnetization    =     3.91 Bohr mag/cell
[tb_dev] Currently allocated     1.27E+00 Mbytes, locked:    0 /   6
[tb_pin] Currently allocated     0.00E+00 Mbytes, locked:    0 /   0

     iteration # 14     ecut=    90.00 Ry     beta= 0.40
     Davidson diagonalization with overlap

---- Real-time Memory Report at c_bands before calling an iterative solver
          2278 MiB given to the printing process from OS
          1389 MiB allocation reported by mallinfo(arena+hblkhd)
         57565 MiB available memory on the node where the printing process lives
     GPU memory used/free/total (MiB): 1838 / 14442 / 16280
------------------
     ethr =  1.67E-05,  avg # of iterations =  1.1

     negative rho (up, down):  2.624E-04 5.477E-04

     total cpu time spent up to now is       99.5 secs

     total energy              =   -1104.21713474 Ry
     estimated scf accuracy    <       0.02320738 Ry

     total magnetization       =     3.13 Bohr mag/cell
     absolute magnetization    =     3.87 Bohr mag/cell
[tb_dev] Currently allocated     1.27E+00 Mbytes, locked:    0 /   6
[tb_pin] Currently allocated     0.00E+00 Mbytes, locked:    0 /   0

     iteration # 15     ecut=    90.00 Ry     beta= 0.40
     Davidson diagonalization with overlap

---- Real-time Memory Report at c_bands before calling an iterative solver
          2286 MiB given to the printing process from OS
          1395 MiB allocation reported by mallinfo(arena+hblkhd)
         57557 MiB available memory on the node where the printing process lives
     GPU memory used/free/total (MiB): 1838 / 14442 / 16280
------------------
     ethr =  1.67E-05,  avg # of iterations =  1.2

     negative rho (up, down):  4.490E-04 3.678E-04

     total cpu time spent up to now is      104.4 secs

     total energy              =   -1104.21711776 Ry
     estimated scf accuracy    <       0.00885532 Ry

     total magnetization       =     3.01 Bohr mag/cell
     absolute magnetization    =     3.80 Bohr mag/cell
[tb_dev] Currently allocated     1.27E+00 Mbytes, locked:    0 /   6
[tb_pin] Currently allocated     0.00E+00 Mbytes, locked:    0 /   0

     iteration # 16     ecut=    90.00 Ry     beta= 0.40
     Davidson diagonalization with overlap

---- Real-time Memory Report at c_bands before calling an iterative solver
          2293 MiB given to the printing process from OS
          1401 MiB allocation reported by mallinfo(arena+hblkhd)
         57555 MiB available memory on the node where the printing process lives
     GPU memory used/free/total (MiB): 1838 / 14442 / 16280
------------------
     ethr =  1.50E-05,  avg # of iterations =  1.6

     negative rho (up, down):  4.681E-04 3.502E-04

     total cpu time spent up to now is      109.6 secs

     total energy              =   -1104.21892121 Ry
     estimated scf accuracy    <       0.00069316 Ry

     total magnetization       =     2.69 Bohr mag/cell
     absolute magnetization    =     3.69 Bohr mag/cell
[tb_dev] Currently allocated     1.27E+00 Mbytes, locked:    0 /   6
[tb_pin] Currently allocated     0.00E+00 Mbytes, locked:    0 /   0

     iteration # 17     ecut=    90.00 Ry     beta= 0.40
     Davidson diagonalization with overlap

---- Real-time Memory Report at c_bands before calling an iterative solver
          2298 MiB given to the printing process from OS
          1407 MiB allocation reported by mallinfo(arena+hblkhd)
         57547 MiB available memory on the node where the printing process lives
     GPU memory used/free/total (MiB): 1838 / 14442 / 16280
------------------
     ethr =  1.17E-06,  avg # of iterations =  5.5

     negative rho (up, down):  4.315E-04 3.963E-04

     total cpu time spent up to now is      117.2 secs

     total energy              =   -1104.21865008 Ry
     estimated scf accuracy    <       0.00035014 Ry

     total magnetization       =     2.65 Bohr mag/cell
     absolute magnetization    =     3.68 Bohr mag/cell
[tb_dev] Currently allocated     1.27E+00 Mbytes, locked:    0 /   6
[tb_pin] Currently allocated     0.00E+00 Mbytes, locked:    0 /   0

     iteration # 18     ecut=    90.00 Ry     beta= 0.40
     Davidson diagonalization with overlap

---- Real-time Memory Report at c_bands before calling an iterative solver
          2304 MiB given to the printing process from OS
          1413 MiB allocation reported by mallinfo(arena+hblkhd)
         57543 MiB available memory on the node where the printing process lives
     GPU memory used/free/total (MiB): 1838 / 14442 / 16280
------------------
     ethr =  5.93E-07,  avg # of iterations =  3.6

     negative rho (up, down):  4.834E-04 3.357E-04

     total cpu time spent up to now is      123.9 secs

     total energy              =   -1104.21897934 Ry
     estimated scf accuracy    <       0.00034479 Ry

     total magnetization       =     2.74 Bohr mag/cell
     absolute magnetization    =     3.69 Bohr mag/cell
[tb_dev] Currently allocated     1.27E+00 Mbytes, locked:    0 /   6
[tb_pin] Currently allocated     0.00E+00 Mbytes, locked:    0 /   0

     iteration # 19     ecut=    90.00 Ry     beta= 0.40
     Davidson diagonalization with overlap

---- Real-time Memory Report at c_bands before calling an iterative solver
          2310 MiB given to the printing process from OS
          1419 MiB allocation reported by mallinfo(arena+hblkhd)
         57540 MiB available memory on the node where the printing process lives
     GPU memory used/free/total (MiB): 1838 / 14442 / 16280
------------------
     ethr =  5.84E-07,  avg # of iterations =  2.1

     negative rho (up, down):  5.471E-04 2.931E-04

     total cpu time spent up to now is      129.4 secs

     total energy              =   -1104.21928839 Ry
     estimated scf accuracy    <       0.00031884 Ry

     total magnetization       =     2.63 Bohr mag/cell
     absolute magnetization    =     3.67 Bohr mag/cell
[tb_dev] Currently allocated     1.27E+00 Mbytes, locked:    0 /   6
[tb_pin] Currently allocated     0.00E+00 Mbytes, locked:    0 /   0

     iteration # 20     ecut=    90.00 Ry     beta= 0.40
     Davidson diagonalization with overlap

---- Real-time Memory Report at c_bands before calling an iterative solver
          2317 MiB given to the printing process from OS
          1425 MiB allocation reported by mallinfo(arena+hblkhd)
         57531 MiB available memory on the node where the printing process lives
     GPU memory used/free/total (MiB): 1838 / 14442 / 16280
------------------
     ethr =  5.40E-07,  avg # of iterations =  2.3

     negative rho (up, down):  6.450E-04 1.926E-04

     total cpu time spent up to now is      135.0 secs

     total energy              =   -1104.21950336 Ry
     estimated scf accuracy    <       0.00026496 Ry

     total magnetization       =     2.48 Bohr mag/cell
     absolute magnetization    =     3.63 Bohr mag/cell
[tb_dev] Currently allocated     1.27E+00 Mbytes, locked:    0 /   6
[tb_pin] Currently allocated     0.00E+00 Mbytes, locked:    0 /   0

     iteration # 21     ecut=    90.00 Ry     beta= 0.40
     Davidson diagonalization with overlap

---- Real-time Memory Report at c_bands before calling an iterative solver
          2322 MiB given to the printing process from OS
          1431 MiB allocation reported by mallinfo(arena+hblkhd)
         57527 MiB available memory on the node where the printing process lives
     GPU memory used/free/total (MiB): 1838 / 14442 / 16280
------------------
     ethr =  4.49E-07,  avg # of iterations =  4.3

     negative rho (up, down):  5.995E-04 2.363E-04

     total cpu time spent up to now is      142.6 secs

     total energy              =   -1104.21962884 Ry
     estimated scf accuracy    <       0.00089393 Ry

     total magnetization       =     2.22 Bohr mag/cell
     absolute magnetization    =     3.59 Bohr mag/cell
[tb_dev] Currently allocated     1.27E+00 Mbytes, locked:    0 /   6
[tb_pin] Currently allocated     0.00E+00 Mbytes, locked:    0 /   0

     iteration # 22     ecut=    90.00 Ry     beta= 0.40
     Davidson diagonalization with overlap

---- Real-time Memory Report at c_bands before calling an iterative solver
          2329 MiB given to the printing process from OS
          1437 MiB allocation reported by mallinfo(arena+hblkhd)
         57516 MiB available memory on the node where the printing process lives
     GPU memory used/free/total (MiB): 1838 / 14442 / 16280
------------------
     ethr =  4.49E-07,  avg # of iterations =  1.9

     negative rho (up, down):  5.013E-04 3.247E-04

     total cpu time spent up to now is      147.9 secs

     total energy              =   -1104.21837421 Ry
     estimated scf accuracy    <       0.00100673 Ry

     total magnetization       =     2.38 Bohr mag/cell
     absolute magnetization    =     3.63 Bohr mag/cell
[tb_dev] Currently allocated     1.27E+00 Mbytes, locked:    0 /   6
[tb_pin] Currently allocated     0.00E+00 Mbytes, locked:    0 /   0

     iteration # 23     ecut=    90.00 Ry     beta= 0.40
     Davidson diagonalization with overlap

---- Real-time Memory Report at c_bands before calling an iterative solver
          2336 MiB given to the printing process from OS
          1443 MiB allocation reported by mallinfo(arena+hblkhd)
         57513 MiB available memory on the node where the printing process lives
     GPU memory used/free/total (MiB): 1838 / 14442 / 16280
------------------
     ethr =  4.49E-07,  avg # of iterations =  3.1

     negative rho (up, down):  5.605E-04 2.676E-04

     total cpu time spent up to now is      154.5 secs

     total energy              =   -1104.21929633 Ry
     estimated scf accuracy    <       0.00104468 Ry

     total magnetization       =     2.69 Bohr mag/cell
     absolute magnetization    =     3.72 Bohr mag/cell
[tb_dev] Currently allocated     1.27E+00 Mbytes, locked:    0 /   6
[tb_pin] Currently allocated     0.00E+00 Mbytes, locked:    0 /   0

     iteration # 24     ecut=    90.00 Ry     beta= 0.40
     Davidson diagonalization with overlap

---- Real-time Memory Report at c_bands before calling an iterative solver
          2342 MiB given to the printing process from OS
          1449 MiB allocation reported by mallinfo(arena+hblkhd)
         57506 MiB available memory on the node where the printing process lives
     GPU memory used/free/total (MiB): 1838 / 14442 / 16280
------------------
     ethr =  4.49E-07,  avg # of iterations =  2.3

     negative rho (up, down):  5.612E-04 2.667E-04

     total cpu time spent up to now is      160.1 secs

     total energy              =   -1104.21954250 Ry
     estimated scf accuracy    <       0.00241649 Ry

     total magnetization       =     2.56 Bohr mag/cell
     absolute magnetization    =     3.69 Bohr mag/cell
[tb_dev] Currently allocated     1.27E+00 Mbytes, locked:    0 /   6
[tb_pin] Currently allocated     0.00E+00 Mbytes, locked:    0 /   0

     iteration # 25     ecut=    90.00 Ry     beta= 0.40
     Davidson diagonalization with overlap

---- Real-time Memory Report at c_bands before calling an iterative solver
          2349 MiB given to the printing process from OS
          1455 MiB allocation reported by mallinfo(arena+hblkhd)
         57497 MiB available memory on the node where the printing process lives
     GPU memory used/free/total (MiB): 1838 / 14442 / 16280
------------------
     ethr =  4.49E-07,  avg # of iterations =  1.0

     negative rho (up, down):  5.523E-04 2.719E-04

     total cpu time spent up to now is      165.0 secs

     total energy              =   -1104.21946709 Ry
     estimated scf accuracy    <       0.00268583 Ry

     total magnetization       =     2.55 Bohr mag/cell
     absolute magnetization    =     3.70 Bohr mag/cell
[tb_dev] Currently allocated     1.27E+00 Mbytes, locked:    0 /   6
[tb_pin] Currently allocated     0.00E+00 Mbytes, locked:    0 /   0

     iteration # 26     ecut=    90.00 Ry     beta= 0.40
     Davidson diagonalization with overlap

---- Real-time Memory Report at c_bands before calling an iterative solver
          2355 MiB given to the printing process from OS
          1461 MiB allocation reported by mallinfo(arena+hblkhd)
         57494 MiB available memory on the node where the printing process lives
     GPU memory used/free/total (MiB): 1838 / 14442 / 16280
------------------
     ethr =  4.49E-07,  avg # of iterations =  1.0

     negative rho (up, down):  6.496E-04 1.772E-04

     total cpu time spent up to now is      169.8 secs

     total energy              =   -1104.21930057 Ry
     estimated scf accuracy    <       0.00280742 Ry

     total magnetization       =     2.59 Bohr mag/cell
     absolute magnetization    =     3.71 Bohr mag/cell
[tb_dev] Currently allocated     1.27E+00 Mbytes, locked:    0 /   6
[tb_pin] Currently allocated     0.00E+00 Mbytes, locked:    0 /   0

     iteration # 27     ecut=    90.00 Ry     beta= 0.40
     Davidson diagonalization with overlap

---- Real-time Memory Report at c_bands before calling an iterative solver
          2360 MiB given to the printing process from OS
          1467 MiB allocation reported by mallinfo(arena+hblkhd)
         57489 MiB available memory on the node where the printing process lives
     GPU memory used/free/total (MiB): 1838 / 14442 / 16280
------------------
     ethr =  4.49E-07,  avg # of iterations =  3.1

     negative rho (up, down):  2.384E-04 5.880E-04

     total cpu time spent up to now is      176.4 secs

     total energy              =   -1104.19941707 Ry
     estimated scf accuracy    <       0.00321588 Ry

     total magnetization       =     2.22 Bohr mag/cell
     absolute magnetization    =     3.61 Bohr mag/cell
[tb_dev] Currently allocated     1.27E+00 Mbytes, locked:    0 /   6
[tb_pin] Currently allocated     0.00E+00 Mbytes, locked:    0 /   0

     iteration # 28     ecut=    90.00 Ry     beta= 0.40
     Davidson diagonalization with overlap

---- Real-time Memory Report at c_bands before calling an iterative solver
          2367 MiB given to the printing process from OS
          1473 MiB allocation reported by mallinfo(arena+hblkhd)
         57480 MiB available memory on the node where the printing process lives
     GPU memory used/free/total (MiB): 1838 / 14442 / 16280
------------------
     ethr =  4.49E-07,  avg # of iterations =  7.7

     negative rho (up, down):  7.845E-04 6.702E-05

     total cpu time spent up to now is      187.1 secs

     total energy              =   -1104.19697435 Ry
     estimated scf accuracy    <       0.00742324 Ry

     total magnetization       =     3.58 Bohr mag/cell
     absolute magnetization    =     4.30 Bohr mag/cell
[tb_dev] Currently allocated     1.27E+00 Mbytes, locked:    0 /   6
[tb_pin] Currently allocated     0.00E+00 Mbytes, locked:    0 /   0

     iteration # 29     ecut=    90.00 Ry     beta= 0.40
     Davidson diagonalization with overlap

---- Real-time Memory Report at c_bands before calling an iterative solver
          2374 MiB given to the printing process from OS
          1479 MiB allocation reported by mallinfo(arena+hblkhd)
         57472 MiB available memory on the node where the printing process lives
     GPU memory used/free/total (MiB): 1838 / 14442 / 16280
------------------
     ethr =  4.49E-07,  avg # of iterations =  8.2

     negative rho (up, down):  5.960E-04 2.406E-04

     total cpu time spent up to now is      198.4 secs

     total energy              =   -1104.21580027 Ry
     estimated scf accuracy    <       0.00480672 Ry

     total magnetization       =     1.72 Bohr mag/cell
     absolute magnetization    =     3.53 Bohr mag/cell
[tb_dev] Currently allocated     1.27E+00 Mbytes, locked:    0 /   6
[tb_pin] Currently allocated     0.00E+00 Mbytes, locked:    0 /   0

     iteration # 30     ecut=    90.00 Ry     beta= 0.40
     Davidson diagonalization with overlap

---- Real-time Memory Report at c_bands before calling an iterative solver
          2381 MiB given to the printing process from OS
          1486 MiB allocation reported by mallinfo(arena+hblkhd)
         57467 MiB available memory on the node where the printing process lives
     GPU memory used/free/total (MiB): 1838 / 14442 / 16280
------------------
     ethr =  4.49E-07,  avg # of iterations =  4.5

     negative rho (up, down):  6.302E-04 2.101E-04

     total cpu time spent up to now is      206.4 secs

     total energy              =   -1104.21984377 Ry
     estimated scf accuracy    <       0.00227606 Ry

     total magnetization       =     2.48 Bohr mag/cell
     absolute magnetization    =     3.71 Bohr mag/cell
[tb_dev] Currently allocated     1.27E+00 Mbytes, locked:    0 /   6
[tb_pin] Currently allocated     0.00E+00 Mbytes, locked:    0 /   0

     iteration # 31     ecut=    90.00 Ry     beta= 0.40
     Davidson diagonalization with overlap

---- Real-time Memory Report at c_bands before calling an iterative solver
          2388 MiB given to the printing process from OS
          1492 MiB allocation reported by mallinfo(arena+hblkhd)
         57461 MiB available memory on the node where the printing process lives
     GPU memory used/free/total (MiB): 1838 / 14442 / 16280
------------------
     ethr =  4.49E-07,  avg # of iterations =  1.5

     negative rho (up, down):  3.823E-04 4.533E-04

     total cpu time spent up to now is      211.5 secs

     total energy              =   -1104.21103693 Ry
     estimated scf accuracy    <       0.00218397 Ry

     total magnetization       =     2.37 Bohr mag/cell
     absolute magnetization    =     3.69 Bohr mag/cell
[tb_dev] Currently allocated     1.27E+00 Mbytes, locked:    0 /   6
[tb_pin] Currently allocated     0.00E+00 Mbytes, locked:    0 /   0

     iteration # 32     ecut=    90.00 Ry     beta= 0.40
     Davidson diagonalization with overlap

---- Real-time Memory Report at c_bands before calling an iterative solver
          2394 MiB given to the printing process from OS
          1498 MiB allocation reported by mallinfo(arena+hblkhd)
         57455 MiB available memory on the node where the printing process lives
     GPU memory used/free/total (MiB): 1838 / 14442 / 16280
------------------
     ethr =  4.49E-07,  avg # of iterations =  6.1

     negative rho (up, down):  6.423E-04 2.019E-04

     total cpu time spent up to now is      220.8 secs

     total energy              =   -1104.21385937 Ry
     estimated scf accuracy    <       0.00664538 Ry

     total magnetization       =     3.28 Bohr mag/cell
     absolute magnetization    =     4.13 Bohr mag/cell
[tb_dev] Currently allocated     1.27E+00 Mbytes, locked:    0 /   6
[tb_pin] Currently allocated     0.00E+00 Mbytes, locked:    0 /   0

     iteration # 33     ecut=    90.00 Ry     beta= 0.40
     Davidson diagonalization with overlap

---- Real-time Memory Report at c_bands before calling an iterative solver
          2401 MiB given to the printing process from OS
          1504 MiB allocation reported by mallinfo(arena+hblkhd)
         57447 MiB available memory on the node where the printing process lives
     GPU memory used/free/total (MiB): 1838 / 14442 / 16280
------------------
     ethr =  4.49E-07,  avg # of iterations =  5.6

     negative rho (up, down):  7.995E-04 6.624E-05

     total cpu time spent up to now is      229.7 secs

     total energy              =   -1104.21862373 Ry
     estimated scf accuracy    <       0.00242089 Ry

     total magnetization       =     2.37 Bohr mag/cell
     absolute magnetization    =     3.71 Bohr mag/cell
[tb_dev] Currently allocated     1.27E+00 Mbytes, locked:    0 /   6
[tb_pin] Currently allocated     0.00E+00 Mbytes, locked:    0 /   0

     iteration # 34     ecut=    90.00 Ry     beta= 0.40
     Davidson diagonalization with overlap

---- Real-time Memory Report at c_bands before calling an iterative solver
          2406 MiB given to the printing process from OS
          1510 MiB allocation reported by mallinfo(arena+hblkhd)
         57443 MiB available memory on the node where the printing process lives
     GPU memory used/free/total (MiB): 1838 / 14442 / 16280
------------------
     ethr =  4.49E-07,  avg # of iterations =  5.0

     negative rho (up, down):  8.645E-04 6.153E-05

     total cpu time spent up to now is      238.0 secs

     total energy              =   -1104.22181790 Ry
     estimated scf accuracy    <       0.00607399 Ry

     total magnetization       =     1.69 Bohr mag/cell
     absolute magnetization    =     3.54 Bohr mag/cell
[tb_dev] Currently allocated     1.27E+00 Mbytes, locked:    0 /   6
[tb_pin] Currently allocated     0.00E+00 Mbytes, locked:    0 /   0

     iteration # 35     ecut=    90.00 Ry     beta= 0.40
     Davidson diagonalization with overlap

---- Real-time Memory Report at c_bands before calling an iterative solver
          2415 MiB given to the printing process from OS
          1516 MiB allocation reported by mallinfo(arena+hblkhd)
         57434 MiB available memory on the node where the printing process lives
     GPU memory used/free/total (MiB): 1838 / 14442 / 16280
------------------
     ethr =  4.49E-07,  avg # of iterations =  2.8

     negative rho (up, down):  6.903E-04 1.569E-04

     total cpu time spent up to now is      244.3 secs

     total energy              =   -1104.21637551 Ry
     estimated scf accuracy    <       0.01223242 Ry

     total magnetization       =     1.37 Bohr mag/cell
     absolute magnetization    =     3.48 Bohr mag/cell
[tb_dev] Currently allocated     1.27E+00 Mbytes, locked:    0 /   6
[tb_pin] Currently allocated     0.00E+00 Mbytes, locked:    0 /   0

     iteration # 36     ecut=    90.00 Ry     beta= 0.40
     Davidson diagonalization with overlap

---- Real-time Memory Report at c_bands before calling an iterative solver
          2420 MiB given to the printing process from OS
          1522 MiB allocation reported by mallinfo(arena+hblkhd)
         57427 MiB available memory on the node where the printing process lives
     GPU memory used/free/total (MiB): 1838 / 14442 / 16280
------------------
     ethr =  4.49E-07,  avg # of iterations =  3.9

     negative rho (up, down):  6.571E-04 1.898E-04

     total cpu time spent up to now is      251.7 secs

     total energy              =   -1104.21999660 Ry
     estimated scf accuracy    <       0.00281894 Ry

     total magnetization       =     2.15 Bohr mag/cell
     absolute magnetization    =     3.63 Bohr mag/cell
[tb_dev] Currently allocated     1.27E+00 Mbytes, locked:    0 /   6
[tb_pin] Currently allocated     0.00E+00 Mbytes, locked:    0 /   0

     iteration # 37     ecut=    90.00 Ry     beta= 0.40
     Davidson diagonalization with overlap

---- Real-time Memory Report at c_bands before calling an iterative solver
          2427 MiB given to the printing process from OS
          1528 MiB allocation reported by mallinfo(arena+hblkhd)
         57422 MiB available memory on the node where the printing process lives
     GPU memory used/free/total (MiB): 1838 / 14442 / 16280
------------------
     ethr =  4.49E-07,  avg # of iterations =  1.9

     negative rho (up, down):  6.114E-04 2.334E-04

     total cpu time spent up to now is      257.1 secs

     total energy              =   -1104.21960660 Ry
     estimated scf accuracy    <       0.00257543 Ry

     total magnetization       =     2.29 Bohr mag/cell
     absolute magnetization    =     3.67 Bohr mag/cell
[tb_dev] Currently allocated     1.27E+00 Mbytes, locked:    0 /   6
[tb_pin] Currently allocated     0.00E+00 Mbytes, locked:    0 /   0

     iteration # 38     ecut=    90.00 Ry     beta= 0.40
     Davidson diagonalization with overlap

---- Real-time Memory Report at c_bands before calling an iterative solver
          2434 MiB given to the printing process from OS
          1534 MiB allocation reported by mallinfo(arena+hblkhd)
         57417 MiB available memory on the node where the printing process lives
     GPU memory used/free/total (MiB): 1838 / 14442 / 16280
------------------
     ethr =  4.49E-07,  avg # of iterations =  2.3

     negative rho (up, down):  5.480E-04 2.948E-04

     total cpu time spent up to now is      262.7 secs

     total energy              =   -1104.21891755 Ry
     estimated scf accuracy    <       0.00241189 Ry

     total magnetization       =     2.45 Bohr mag/cell
     absolute magnetization    =     3.70 Bohr mag/cell
[tb_dev] Currently allocated     1.27E+00 Mbytes, locked:    0 /   6
[tb_pin] Currently allocated     0.00E+00 Mbytes, locked:    0 /   0

     iteration # 39     ecut=    90.00 Ry     beta= 0.40
     Davidson diagonalization with overlap

---- Real-time Memory Report at c_bands before calling an iterative solver
          2441 MiB given to the printing process from OS
          1540 MiB allocation reported by mallinfo(arena+hblkhd)
         57409 MiB available memory on the node where the printing process lives
     GPU memory used/free/total (MiB): 1838 / 14442 / 16280
------------------
     ethr =  4.49E-07,  avg # of iterations =  3.2

     negative rho (up, down):  5.848E-04 2.596E-04

     total cpu time spent up to now is      269.0 secs

     total energy              =   -1104.21946629 Ry
     estimated scf accuracy    <       0.00257243 Ry

     total magnetization       =     2.68 Bohr mag/cell
     absolute magnetization    =     3.78 Bohr mag/cell
[tb_dev] Currently allocated     1.27E+00 Mbytes, locked:    0 /   6
[tb_pin] Currently allocated     0.00E+00 Mbytes, locked:    0 /   0

     iteration # 40     ecut=    90.00 Ry     beta= 0.40
     Davidson diagonalization with overlap

---- Real-time Memory Report at c_bands before calling an iterative solver
          2448 MiB given to the printing process from OS
          1550 MiB allocation reported by mallinfo(arena+hblkhd)
         57398 MiB available memory on the node where the printing process lives
     GPU memory used/free/total (MiB): 1838 / 14442 / 16280
------------------
     ethr =  4.49E-07,  avg # of iterations =  1.5

     negative rho (up, down):  5.776E-04 2.657E-04

     total cpu time spent up to now is      274.2 secs

     total energy              =   -1104.21955041 Ry
     estimated scf accuracy    <       0.00226080 Ry

     total magnetization       =     2.54 Bohr mag/cell
     absolute magnetization    =     3.73 Bohr mag/cell
[tb_dev] Currently allocated     1.27E+00 Mbytes, locked:    0 /   6
[tb_pin] Currently allocated     0.00E+00 Mbytes, locked:    0 /   0

[...]
     absolute magnetization    =     3.41 Bohr mag/cell
[tb_dev] Currently allocated     1.27E+00 Mbytes, locked:    0 /   6
[tb_pin] Currently allocated     0.00E+00 Mbytes, locked:    0 /   0

     iteration # 66     ecut=    90.00 Ry     beta= 0.40
     Davidson diagonalization with overlap

---- Real-time Memory Report at c_bands before calling an iterative solver
          2619 MiB given to the printing process from OS
          1720 MiB allocation reported by mallinfo(arena+hblkhd)
         57227 MiB available memory on the node where the printing process lives
     GPU memory used/free/total (MiB): 1838 / 14442 / 16280
------------------
     c_bands:  1 eigenvalues not converged
     c_bands:  1 eigenvalues not converged
     ethr =  4.49E-07,  avg # of iterations = 13.4

     negative rho (up, down):  3.447E-05 1.387E-03

     total cpu time spent up to now is      468.6 secs

     total energy              =   -1104.18573310 Ry
     estimated scf accuracy    <       0.41721528 Ry

     total magnetization       =     6.92 Bohr mag/cell
     absolute magnetization    =     7.37 Bohr mag/cell
[tb_dev] Currently allocated     1.27E+00 Mbytes, locked:    0 /   6
[tb_pin] Currently allocated     0.00E+00 Mbytes, locked:    0 /   0

     iteration # 67     ecut=    90.00 Ry     beta= 0.40
     Davidson diagonalization with overlap

---- Real-time Memory Report at c_bands before calling an iterative solver
          2625 MiB given to the printing process from OS
          1726 MiB allocation reported by mallinfo(arena+hblkhd)
         57222 MiB available memory on the node where the printing process lives
     GPU memory used/free/total (MiB): 1838 / 14442 / 16280
------------------
     ethr =  4.49E-07,  avg # of iterations =  8.3

     negative rho (up, down):  0.000E+00 2.427E-03

     total cpu time spent up to now is      480.0 secs

     total energy              =   -1104.14667628 Ry
     estimated scf accuracy    <       0.23008257 Ry

     total magnetization       =     5.77 Bohr mag/cell
     absolute magnetization    =     6.20 Bohr mag/cell
[tb_dev] Currently allocated     1.27E+00 Mbytes, locked:    0 /   6
[tb_pin] Currently allocated     0.00E+00 Mbytes, locked:    0 /   0

     iteration # 68     ecut=    90.00 Ry     beta= 0.40
     Davidson diagonalization with overlap

---- Real-time Memory Report at c_bands before calling an iterative solver
          2631 MiB given to the printing process from OS
          1732 MiB allocation reported by mallinfo(arena+hblkhd)
         57219 MiB available memory on the node where the printing process lives
     GPU memory used/free/total (MiB): 1838 / 14442 / 16280
------------------
     ethr =  4.49E-07,  avg # of iterations =  8.0

     negative rho (up, down):  5.078E-05 1.050E-03

     total cpu time spent up to now is      491.2 secs

     total energy              =   -1104.17921300 Ry
     estimated scf accuracy    <       0.42046773 Ry

     total magnetization       =     6.95 Bohr mag/cell
     absolute magnetization    =     7.40 Bohr mag/cell
[tb_dev] Currently allocated     1.27E+00 Mbytes, locked:    0 /   6
[tb_pin] Currently allocated     0.00E+00 Mbytes, locked:    0 /   0

     iteration # 69     ecut=    90.00 Ry     beta= 0.40
     Davidson diagonalization with overlap

---- Real-time Memory Report at c_bands before calling an iterative solver
          2640 MiB given to the printing process from OS
          1738 MiB allocation reported by mallinfo(arena+hblkhd)
         57208 MiB available memory on the node where the printing process lives
     GPU memory used/free/total (MiB): 1838 / 14442 / 16280
------------------
     ethr =  4.49E-07,  avg # of iterations =  9.3

     negative rho (up, down):  4.681E-05 1.145E-03

     total cpu time spent up to now is      503.4 secs

     total energy              =   -1104.20115792 Ry
     estimated scf accuracy    <       0.14996809 Ry

     total magnetization       =     5.24 Bohr mag/cell
     absolute magnetization    =     5.73 Bohr mag/cell
[tb_dev] Currently allocated     1.27E+00 Mbytes, locked:    0 /   6
[tb_pin] Currently allocated     0.00E+00 Mbytes, locked:    0 /   0

     iteration # 70     ecut=    90.00 Ry     beta= 0.40
     Davidson diagonalization with overlap

---- Real-time Memory Report at c_bands before calling an iterative solver
          2647 MiB given to the printing process from OS
          1744 MiB allocation reported by mallinfo(arena+hblkhd)
         57201 MiB available memory on the node where the printing process lives
     GPU memory used/free/total (MiB): 1838 / 14442 / 16280
------------------
     ethr =  4.49E-07,  avg # of iterations =  2.6

     negative rho (up, down):  4.877E-04 3.516E-04

     total cpu time spent up to now is      509.4 secs

     total energy              =   -1104.17619663 Ry
     estimated scf accuracy    <       0.18958558 Ry

     total magnetization       =     5.49 Bohr mag/cell
     absolute magnetization    =     5.96 Bohr mag/cell
[tb_dev] Currently allocated     1.27E+00 Mbytes, locked:    0 /   6
[tb_pin] Currently allocated     0.00E+00 Mbytes, locked:    0 /   0

     iteration # 71     ecut=    90.00 Ry     beta= 0.40
     Davidson diagonalization with overlap

---- Real-time Memory Report at c_bands before calling an iterative solver
          2653 MiB given to the printing process from OS
          1750 MiB allocation reported by mallinfo(arena+hblkhd)
         57196 MiB available memory on the node where the printing process lives
     GPU memory used/free/total (MiB): 1838 / 14442 / 16280
------------------
     ethr =  4.49E-07,  avg # of iterations = 10.0

     negative rho (up, down):  1.680E-04 6.599E-04

     total cpu time spent up to now is      522.7 secs

     total energy              =   -1104.20303676 Ry
     estimated scf accuracy    <       0.00456418 Ry

     total magnetization       =     3.09 Bohr mag/cell
     absolute magnetization    =     4.10 Bohr mag/cell
[tb_dev] Currently allocated     1.27E+00 Mbytes, locked:    0 /   6
[tb_pin] Currently allocated     0.00E+00 Mbytes, locked:    0 /   0

     iteration # 72     ecut=    90.00 Ry     beta= 0.40
     Davidson diagonalization with overlap

---- Real-time Memory Report at c_bands before calling an iterative solver
          2659 MiB given to the printing process from OS
          1756 MiB allocation reported by mallinfo(arena+hblkhd)
         57191 MiB available memory on the node where the printing process lives
     GPU memory used/free/total (MiB): 1838 / 14442 / 16280
------------------
     ethr =  4.49E-07,  avg # of iterations =  6.8

     negative rho (up, down):  2.561E-04 5.743E-04

     total cpu time spent up to now is      532.5 secs

     total energy              =   -1104.21380325 Ry
     estimated scf accuracy    <       0.03032689 Ry

     total magnetization       =     4.09 Bohr mag/cell
     absolute magnetization    =     4.79 Bohr mag/cell
[tb_dev] Currently allocated     1.27E+00 Mbytes, locked:    0 /   6
[tb_pin] Currently allocated     0.00E+00 Mbytes, locked:    0 /   0

     iteration # 73     ecut=    90.00 Ry     beta= 0.40
     Davidson diagonalization with overlap

---- Real-time Memory Report at c_bands before calling an iterative solver
          2664 MiB given to the printing process from OS
          1762 MiB allocation reported by mallinfo(arena+hblkhd)
         57182 MiB available memory on the node where the printing process lives
     GPU memory used/free/total (MiB): 1838 / 14442 / 16280
------------------
     ethr =  4.49E-07,  avg # of iterations =  3.3

     negative rho (up, down):  1.148E-03 4.745E-05

     total cpu time spent up to now is      539.2 secs

     total energy              =   -1104.17039028 Ry
     estimated scf accuracy    <       0.01334993 Ry

     total magnetization       =     3.75 Bohr mag/cell
     absolute magnetization    =     4.51 Bohr mag/cell
[tb_dev] Currently allocated     1.27E+00 Mbytes, locked:    0 /   6
[tb_pin] Currently allocated     0.00E+00 Mbytes, locked:    0 /   0

     iteration # 74     ecut=    90.00 Ry     beta= 0.40
     Davidson diagonalization with overlap

---- Real-time Memory Report at c_bands before calling an iterative solver
          2671 MiB given to the printing process from OS
          1772 MiB allocation reported by mallinfo(arena+hblkhd)
         57177 MiB available memory on the node where the printing process lives
     GPU memory used/free/total (MiB): 1838 / 14442 / 16280
------------------
     ethr =  4.49E-07,  avg # of iterations =  9.9

     negative rho (up, down):  6.451E-05 7.850E-04

     total cpu time spent up to now is      552.5 secs

     total energy              =   -1104.11190469 Ry
     estimated scf accuracy    <       0.03482030 Ry

     total magnetization       =     0.81 Bohr mag/cell
     absolute magnetization    =     3.71 Bohr mag/cell
[tb_dev] Currently allocated     1.27E+00 Mbytes, locked:    0 /   6
[tb_pin] Currently allocated     0.00E+00 Mbytes, locked:    0 /   0

     iteration # 75     ecut=    90.00 Ry     beta= 0.40
     Davidson diagonalization with overlap

---- Real-time Memory Report at c_bands before calling an iterative solver
          2678 MiB given to the printing process from OS
          1778 MiB allocation reported by mallinfo(arena+hblkhd)
         57171 MiB available memory on the node where the printing process lives
     GPU memory used/free/total (MiB): 1838 / 14442 / 16280
------------------
     ethr =  4.49E-07,  avg # of iterations = 10.1

     negative rho (up, down):  4.859E-05 1.044E-03

     total cpu time spent up to now is      566.0 secs

     total energy              =   -1104.20382215 Ry
     estimated scf accuracy    <       0.02993745 Ry

     total magnetization       =     4.17 Bohr mag/cell
     absolute magnetization    =     4.78 Bohr mag/cell
[tb_dev] Currently allocated     1.27E+00 Mbytes, locked:    0 /   6
[tb_pin] Currently allocated     0.00E+00 Mbytes, locked:    0 /   0

     iteration # 76     ecut=    90.00 Ry     beta= 0.40
     Davidson diagonalization with overlap

---- Real-time Memory Report at c_bands before calling an iterative solver
          2685 MiB given to the printing process from OS
          1784 MiB allocation reported by mallinfo(arena+hblkhd)
         57161 MiB available memory on the node where the printing process lives
     GPU memory used/free/total (MiB): 1838 / 14442 / 16280
------------------
     ethr =  4.49E-07,  avg # of iterations =  5.2

     negative rho (up, down):  6.680E-05 7.541E-04

     total cpu time spent up to now is      574.4 secs

     total energy              =   -1104.20785781 Ry
     estimated scf accuracy    <       0.09896720 Ry

     total magnetization       =     4.89 Bohr mag/cell
     absolute magnetization    =     5.37 Bohr mag/cell
[tb_dev] Currently allocated     1.27E+00 Mbytes, locked:    0 /   6
[tb_pin] Currently allocated     0.00E+00 Mbytes, locked:    0 /   0

     iteration # 77     ecut=    90.00 Ry     beta= 0.40
     Davidson diagonalization with overlap

---- Real-time Memory Report at c_bands before calling an iterative solver
          2691 MiB given to the printing process from OS
          1790 MiB allocation reported by mallinfo(arena+hblkhd)
         57157 MiB available memory on the node where the printing process lives
     GPU memory used/free/total (MiB): 1838 / 14442 / 16280
------------------
     ethr =  4.49E-07,  avg # of iterations =  4.4

     negative rho (up, down):  5.838E-05 8.667E-04

     total cpu time spent up to now is      582.3 secs

     total energy              =   -1104.20733332 Ry
     estimated scf accuracy    <       0.01965687 Ry

     total magnetization       =     3.97 Bohr mag/cell
     absolute magnetization    =     4.59 Bohr mag/cell
[tb_dev] Currently allocated     1.27E+00 Mbytes, locked:    0 /   6
[tb_pin] Currently allocated     0.00E+00 Mbytes, locked:    0 /   0

     iteration # 78     ecut=    90.00 Ry     beta= 0.40
     Davidson diagonalization with overlap

---- Real-time Memory Report at c_bands before calling an iterative solver
          2699 MiB given to the printing process from OS
          1796 MiB allocation reported by mallinfo(arena+hblkhd)
         57149 MiB available memory on the node where the printing process lives
     GPU memory used/free/total (MiB): 1838 / 14442 / 16280
------------------
     ethr =  4.49E-07,  avg # of iterations =  3.6

     negative rho (up, down):  1.871E-05 1.642E-03

     total cpu time spent up to now is      589.4 secs

     total energy              =   -1104.18354372 Ry
     estimated scf accuracy    <       0.07974684 Ry

     total magnetization       =     4.61 Bohr mag/cell
     absolute magnetization    =     5.14 Bohr mag/cell
[tb_dev] Currently allocated     1.27E+00 Mbytes, locked:    0 /   6
[tb_pin] Currently allocated     0.00E+00 Mbytes, locked:    0 /   0

     iteration # 79     ecut=    90.00 Ry     beta= 0.40
     Davidson diagonalization with overlap

---- Real-time Memory Report at c_bands before calling an iterative solver
          2705 MiB given to the printing process from OS
          1802 MiB allocation reported by mallinfo(arena+hblkhd)
         57144 MiB available memory on the node where the printing process lives
     GPU memory used/free/total (MiB): 1838 / 14442 / 16280
------------------
     ethr =  4.49E-07,  avg # of iterations =  7.2

     negative rho (up, down):  4.468E-05 1.115E-03

     total cpu time spent up to now is      599.8 secs

     total energy              =   -1104.20037634 Ry
     estimated scf accuracy    <       0.21124765 Ry

     total magnetization       =     5.79 Bohr mag/cell
     absolute magnetization    =     6.19 Bohr mag/cell
[tb_dev] Currently allocated     1.27E+00 Mbytes, locked:    0 /   6
[tb_pin] Currently allocated     0.00E+00 Mbytes, locked:    0 /   0

     iteration # 80     ecut=    90.00 Ry     beta= 0.40
     Davidson diagonalization with overlap

---- Real-time Memory Report at c_bands before calling an iterative solver
          2710 MiB given to the printing process from OS
          1808 MiB allocation reported by mallinfo(arena+hblkhd)
         57138 MiB available memory on the node where the printing process lives
     GPU memory used/free/total (MiB): 1838 / 14442 / 16280
------------------
     ethr =  4.49E-07,  avg # of iterations =  5.7

     negative rho (up, down):  0.000E+00 4.988E-03

     total cpu time spent up to now is      608.9 secs

     total energy              =   -1104.02424549 Ry
     estimated scf accuracy    <       0.07356032 Ry

     total magnetization       =     4.74 Bohr mag/cell
     absolute magnetization    =     5.22 Bohr mag/cell

     End of self-consistent calculation

     convergence NOT achieved after  80 iterations: stopping

     Writing config to output data dir ./out/aiida.save/
 
     init_run     :     31.15s CPU      7.20s WALL (       1 calls)
     electrons    :   1569.20s CPU    600.65s WALL (       1 calls)

     Called by init_run:
     wfcinit      :      2.33s CPU      3.32s WALL (       1 calls)
                                        3.32s GPU  (       1 calls)
     wfcinit:atom :      0.05s CPU      0.11s WALL (     168 calls)
                                        0.11s GPU  (     168 calls)
     wfcinit:wfcr :      1.32s CPU      1.94s WALL (     168 calls)
                                        1.94s GPU  (     168 calls)
     potinit      :     15.46s CPU      1.46s WALL (       1 calls)
     hinit0       :      7.82s CPU      1.65s WALL (       1 calls)

     Called by electrons:
     c_bands      :    492.07s CPU    446.57s WALL (      80 calls)
     sum_band     :     53.95s CPU     61.15s WALL (      80 calls)
     v_of_rho     :     34.68s CPU      3.12s WALL (      81 calls)
     v_h          :      5.12s CPU      0.45s WALL (      81 calls)
     v_xc         :     29.56s CPU      2.67s WALL (      81 calls)
     newd         :     62.80s CPU      6.06s WALL (      81 calls)
                                        6.05s GPU  (      81 calls)
     PAW_pot      :    903.40s CPU     81.68s WALL (      81 calls)
     mix_rho      :     23.73s CPU      2.36s WALL (      80 calls)

     Called by c_bands:
     init_us_2    :     27.74s CPU     27.92s WALL (   27048 calls)
     init_us_2:gp :     27.25s CPU     27.48s WALL (   27048 calls)
     cegterg      :    439.36s CPU    405.29s WALL (   13440 calls)

     Called by sum_band:
     sum_band:wei :      0.46s CPU      0.46s WALL (      80 calls)
                                        0.46s GPU  (      80 calls)
     sum_band:loo :     44.05s CPU     50.99s WALL (      80 calls)
                                       50.99s GPU  (      80 calls)
     sum_band:buf :      9.71s CPU     11.34s WALL (   13440 calls)
                                       11.26s GPU  (   13440 calls)
     sum_band:ini :     11.61s CPU     13.64s WALL (   13440 calls)
                                       13.56s GPU  (   13440 calls)
     sum_band:cal :      0.34s CPU      1.94s WALL (   13440 calls)
                                        1.71s GPU  (   13440 calls)
     sum_band:bec :      2.18s CPU      2.68s WALL (   13440 calls)
                                        2.59s GPU  (   13440 calls)
     addusdens    :      7.19s CPU      7.43s WALL (      80 calls)
                                        7.43s GPU  (      80 calls)
     addusd:skk   :      0.01s CPU      0.02s WALL (     240 calls)
                                        0.02s GPU  (     240 calls)

     Called by *egterg:
     cdiaghg      :    198.86s CPU    194.95s WALL (   68368 calls)
                                      194.51s GPU  (   68368 calls)
     cegterg:over :     10.97s CPU      9.87s WALL (   54928 calls)
     cegterg:upda :     19.76s CPU     18.03s WALL (   54928 calls)
     cegterg:last :      6.18s CPU      5.70s WALL (   31571 calls)
     h_psi        :    170.72s CPU    149.37s WALL (   68536 calls)
                                      148.94s GPU  (   68536 calls)
     s_psi        :      6.61s CPU     10.18s WALL (   68536 calls)
                                        9.41s GPU  (   68536 calls)
     g_psi        :      0.44s CPU      1.42s WALL (   54928 calls)
                                        1.07s GPU  (   54928 calls)

     Called by h_psi:
     h_psi:calbec :      2.53s CPU      8.52s WALL (   68536 calls)
                                        8.09s GPU  (   68536 calls)
     vloc_psi     :    143.15s CPU    125.73s WALL (   68536 calls)
                                      125.29s GPU  (   68536 calls)
     add_vuspsi   :      8.29s CPU     10.61s WALL (   68536 calls)
                                       10.19s GPU  (   68536 calls)

     General routines
     calbec       :      2.07s CPU      1.93s WALL (   81976 calls)
     fft          :      2.51s CPU      0.51s WALL (    2023 calls)
                                        0.41s GPU  (    1861 calls)
     ffts         :      0.04s CPU      0.03s WALL (     322 calls)
                                        0.01s GPU  (     160 calls)
     fftw         :      6.62s CPU     86.31s WALL (  303826 calls)
                                       84.62s GPU  (  303826 calls)
     interpolate  :      3.62s CPU      0.32s WALL (     162 calls)
     davcio       :      0.53s CPU      0.30s WALL (     186 calls)
 
     Parallel routines

     PAW routines
     PAW_pot      :    903.40s CPU     81.68s WALL (      81 calls)
     PAW_symme    :      2.21s CPU      0.35s WALL (     161 calls)
 
     PWSCF        :  26m44.14s CPU  10m 9.30s WALL

 
   This run was terminated on:  23:34:32  22Oct2023            

=------------------------------------------------------------------------------=
   JOB DONE.
=------------------------------------------------------------------------------=
