
     Program PWSCF v.7.2 starts on 23Oct2023 at 22:21:23 

     This program is part of the open-source Quantum ESPRESSO suite
     for quantum simulation of materials; please cite
         "P. Giannozzi et al., J. Phys.:Condens. Matter 21 395502 (2009);
         "P. Giannozzi et al., J. Phys.:Condens. Matter 29 465901 (2017);
         "P. Giannozzi et al., J. Chem. Phys. 152 154105 (2020);
          URL http://www.quantum-espresso.org", 
     in publications or presentations arising from this work. More details at
     http://www.quantum-espresso.org/quote

     Parallel version (MPI & OpenMP), running on      12 processor cores
     Number of MPI processes:                 1
     Threads/MPI process:                    12

     MPI processes distributed on     1 nodes
     60264 MiB available memory on the printing compute node when the environment starts
 
     Reading input from aiida.in

     Current dimensions of program PWSCF are:
     Max number of different atomic species (ntypx) = 10
     Max number of k-points (npk) =  40000
     Max angular momentum in pseudopotentials (lmaxx) =  4
     file Ba.pbesol-spn-kjpaw_psl.1.0.0.UPF: wavefunction(s)  5S 6S renormalized
     Message from routine setup:
     using ibrav=0 with symmetry is DISCOURAGED, use correct ibrav instead
 
     Subspace diagonalization in iterative solution of the eigenvalue problem:
     a serial algorithm will be used

 
     G-vector sticks info
     --------------------
     sticks:   dense  smooth     PW     G-vecs:    dense   smooth      PW
     Sum        3505    1757    491               242439    85745   12745
 
     Using Slab Decomposition
 


     bravais-lattice index     =            0
     lattice parameter (alat)  =      16.2516  a.u.
     unit-cell volume          =    3063.5409 (a.u.)^3
     number of atoms/cell      =           12
     number of atomic types    =            3
     number of electrons       =        96.00
     number of Kohn-Sham states=           58
     kinetic-energy cutoff     =      35.0000  Ry
     charge density cutoff     =     280.0000  Ry
     scf convergence threshold =      2.4E-09
     mixing beta               =       0.1000
     number of iterations used =            8  plain     mixing
     Exchange-correlation= SLA  PW   PSX  PSC
                           (   1   4  10   8   0   0   0)

     GPU acceleration is ACTIVE.


     GPU used by master process:

        Device Number: 0
        Device name: Tesla P100-PCIE-16GB
        Compute capability : 60
        Ratio of single to double precision performance  : 2
        Memory Clock Rate (KHz): 715000
        Memory Bus Width (bits): 4096
        Peak Memory Bandwidth (GB/s): 732.16

     celldm(1)=  16.251645  celldm(2)=   0.000000  celldm(3)=   0.000000
     celldm(4)=   0.000000  celldm(5)=   0.000000  celldm(6)=   0.000000

     crystal axes: (cart. coord. in units of alat)
               a(1) = (   1.000000   0.000000   0.000000 )  
               a(2) = (   0.000000   0.595349   0.000000 )  
               a(3) = (   0.000000   0.000000   1.198837 )  

     reciprocal axes: (cart. coord. in units 2 pi/alat)
               b(1) = (  1.000000  0.000000  0.000000 )  
               b(2) = (  0.000000  1.679687  0.000000 )  
               b(3) = (  0.000000  0.000000  0.834142 )  


     PseudoPot. # 1 for Ba read from file:
     ./pseudo/Ba.pbesol-spn-kjpaw_psl.1.0.0.UPF
     MD5 check sum: f28c4a63d325c1a0d00fd3a4f19b8d73
     Pseudo is Projector augmented-wave + core cor, Zval = 10.0
     Generated using "atomic" code by A. Dal Corso  v.6.0 svn rev. 13079
     Shape of augmentation charge: PSQ
     Using radial grid of 1251 points,  7 beta functions with: 
                l(1) =   0
                l(2) =   0
                l(3) =   0
                l(4) =   1
                l(5) =   1
                l(6) =   2
                l(7) =   2
     Q(r) pseudized with 0 coefficients 


     PseudoPot. # 2 for Br read from file:
     ./pseudo/br_pbesol_v1.4.uspp.F.UPF
     MD5 check sum: 7bf6084e715f6bfd1944787c04c43e72
     Pseudo is Ultrasoft + core correction, Zval =  7.0
     Generated by new atomic code, or converted to UPF format
     Using radial grid of  879 points,  6 beta functions with: 
                l(1) =   0
                l(2) =   0
                l(3) =   1
                l(4) =   1
                l(5) =   2
                l(6) =   2
     Q(r) pseudized with  8 coefficients,  rinner =    1.200   1.200   1.200
                                                       1.200   1.200

     PseudoPot. # 3 for I  read from file:
     ./pseudo/I.pbesol-n-kjpaw_psl.0.2.UPF
     MD5 check sum: cecf1a22a184a0b1ae701638a037a48d
     Pseudo is Projector augmented-wave + core cor, Zval =  7.0
     Generated using "atomic" code by A. Dal Corso  v.6.0 svn rev. 13079
     Shape of augmentation charge: PSQ
     Using radial grid of 1247 points,  4 beta functions with: 
                l(1) =   0
                l(2) =   0
                l(3) =   1
                l(4) =   1
     Q(r) pseudized with 0 coefficients 


     atomic species   valence    mass     pseudopotential
        Ba            10.00   137.32700     Ba( 1.00)
        Br             7.00    79.90400     Br( 1.00)
        I              7.00   126.90447     I ( 1.00)

     Starting magnetic structure 
     atomic species   magnetization
        Ba           0.100
        Br           0.100
        I            0.100

      8 Sym. Ops., with inversion, found ( 6 have fractional translation)


                                    s                        frac. trans.

      isym =  1     identity                                     

 cryst.   s( 1) = (     1          0          0      )
                  (     0          1          0      )
                  (     0          0          1      )

 cart.    s( 1) = (  1.0000000  0.0000000  0.0000000 )
                  (  0.0000000  1.0000000  0.0000000 )
                  (  0.0000000  0.0000000  1.0000000 )


      isym =  2     180 deg rotation - cart. axis [0,0,1]        

 cryst.   s( 2) = (    -1          0          0      )    f =(  0.5000000 )
                  (     0         -1          0      )       (  0.0000000 )
                  (     0          0          1      )       ( -0.5000000 )

 cart.    s( 2) = ( -1.0000000  0.0000000  0.0000000 )    f =(  0.5000000 )
                  (  0.0000000 -1.0000000  0.0000000 )       (  0.0000000 )
                  (  0.0000000  0.0000000  1.0000000 )       ( -0.5994186 )


      isym =  3     180 deg rotation - cart. axis [0,1,0]        

 cryst.   s( 3) = (    -1          0          0      )    f =(  0.0000000 )
                  (     0          1          0      )       ( -0.5000000 )
                  (     0          0         -1      )       (  0.0000000 )

 cart.    s( 3) = ( -1.0000000  0.0000000  0.0000000 )    f =(  0.0000000 )
                  (  0.0000000  1.0000000  0.0000000 )       ( -0.2976744 )
                  (  0.0000000  0.0000000 -1.0000000 )       (  0.0000000 )


      isym =  4     180 deg rotation - cart. axis [1,0,0]        

 cryst.   s( 4) = (     1          0          0      )    f =(  0.5000000 )
                  (     0         -1          0      )       ( -0.5000000 )
                  (     0          0         -1      )       ( -0.5000000 )

 cart.    s( 4) = (  1.0000000  0.0000000  0.0000000 )    f =(  0.5000000 )
                  (  0.0000000 -1.0000000  0.0000000 )       ( -0.2976744 )
                  (  0.0000000  0.0000000 -1.0000000 )       ( -0.5994186 )


      isym =  5     inversion                                    

 cryst.   s( 5) = (    -1          0          0      )
                  (     0         -1          0      )
                  (     0          0         -1      )

 cart.    s( 5) = ( -1.0000000  0.0000000  0.0000000 )
                  (  0.0000000 -1.0000000  0.0000000 )
                  (  0.0000000  0.0000000 -1.0000000 )


      isym =  6     inv. 180 deg rotation - cart. axis [0,0,1]   

 cryst.   s( 6) = (     1          0          0      )    f =(  0.5000000 )
                  (     0          1          0      )       (  0.0000000 )
                  (     0          0         -1      )       ( -0.5000000 )

 cart.    s( 6) = (  1.0000000  0.0000000  0.0000000 )    f =(  0.5000000 )
                  (  0.0000000  1.0000000  0.0000000 )       (  0.0000000 )
                  (  0.0000000  0.0000000 -1.0000000 )       ( -0.5994186 )


      isym =  7     inv. 180 deg rotation - cart. axis [0,1,0]   

 cryst.   s( 7) = (     1          0          0      )    f =(  0.0000000 )
                  (     0         -1          0      )       ( -0.5000000 )
                  (     0          0          1      )       (  0.0000000 )

 cart.    s( 7) = (  1.0000000  0.0000000  0.0000000 )    f =(  0.0000000 )
                  (  0.0000000 -1.0000000  0.0000000 )       ( -0.2976744 )
                  (  0.0000000  0.0000000  1.0000000 )       (  0.0000000 )


      isym =  8     inv. 180 deg rotation - cart. axis [1,0,0]   

 cryst.   s( 8) = (    -1          0          0      )    f =(  0.5000000 )
                  (     0          1          0      )       ( -0.5000000 )
                  (     0          0          1      )       ( -0.5000000 )

 cart.    s( 8) = ( -1.0000000  0.0000000  0.0000000 )    f =(  0.5000000 )
                  (  0.0000000  1.0000000  0.0000000 )       ( -0.2976744 )
                  (  0.0000000  0.0000000  1.0000000 )       ( -0.5994186 )


   Cartesian axes

     site n.     atom                  positions (alat units)
         1           Ba  tau(   1) = (   0.8603000   0.4465116   0.1586062  )
         2           Ba  tau(   2) = (   0.3603000   0.4465116   0.4408124  )
         3           Ba  tau(   3) = (   0.1397000   0.1488372   1.0402310  )
         4           Ba  tau(   4) = (   0.6397000   0.1488372   0.7580248  )
         5           I   tau(   5) = (   0.9806000   0.4465116   0.8304345  )
         6           I   tau(   6) = (   0.4806000   0.4465116   0.9678213  )
         7           I   tau(   7) = (   0.0194000   0.1488372   0.3684027  )
         8           I   tau(   8) = (   0.5194000   0.1488372   0.2310159  )
         9           Br  tau(   9) = (   0.6786000   0.4465116   0.5411551  )
        10           Br  tau(  10) = (   0.1786000   0.4465116   0.0582635  )
        11           Br  tau(  11) = (   0.3214000   0.1488372   0.6576821  )
        12           Br  tau(  12) = (   0.8214000   0.1488372   1.1405737  )

   Crystallographic axes

     site n.     atom                  positions (cryst. coord.)
         1           Ba  tau(   1) = (  0.8603000  0.7500000  0.1323000  )
         2           Ba  tau(   2) = (  0.3603000  0.7500000  0.3677000  )
         3           Ba  tau(   3) = (  0.1397000  0.2500000  0.8677000  )
         4           Ba  tau(   4) = (  0.6397000  0.2500000  0.6323000  )
         5           I   tau(   5) = (  0.9806000  0.7500000  0.6927000  )
         6           I   tau(   6) = (  0.4806000  0.7500000  0.8073000  )
         7           I   tau(   7) = (  0.0194000  0.2500000  0.3073000  )
         8           I   tau(   8) = (  0.5194000  0.2500000  0.1927000  )
         9           Br  tau(   9) = (  0.6786000  0.7500000  0.4514000  )
        10           Br  tau(  10) = (  0.1786000  0.7500000  0.0486000  )
        11           Br  tau(  11) = (  0.3214000  0.2500000  0.5486000  )
        12           Br  tau(  12) = (  0.8214000  0.2500000  0.9514000  )

     number of k points=    45  Marzari-Vanderbilt smearing, width (Ry)=  0.0100
                       cart. coord. in units 2pi/alat
        k(    1) = (   0.0000000   0.0000000   0.0000000), wk =   0.0044444
        k(    2) = (   0.0000000   0.0000000   0.1668283), wk =   0.0088889
        k(    3) = (   0.0000000   0.0000000   0.3336566), wk =   0.0088889
        k(    4) = (   0.0000000   0.1866319   0.0000000), wk =   0.0088889
        k(    5) = (   0.0000000   0.1866319   0.1668283), wk =   0.0177778
        k(    6) = (   0.0000000   0.1866319   0.3336566), wk =   0.0177778
        k(    7) = (   0.0000000   0.3732639   0.0000000), wk =   0.0088889
        k(    8) = (   0.0000000   0.3732639   0.1668283), wk =   0.0177778
        k(    9) = (   0.0000000   0.3732639   0.3336566), wk =   0.0177778
        k(   10) = (   0.0000000   0.5598958   0.0000000), wk =   0.0088889
        k(   11) = (   0.0000000   0.5598958   0.1668283), wk =   0.0177778
        k(   12) = (   0.0000000   0.5598958   0.3336566), wk =   0.0177778
        k(   13) = (   0.0000000   0.7465278   0.0000000), wk =   0.0088889
        k(   14) = (   0.0000000   0.7465278   0.1668283), wk =   0.0177778
        k(   15) = (   0.0000000   0.7465278   0.3336566), wk =   0.0177778
        k(   16) = (   0.2000000   0.0000000   0.0000000), wk =   0.0088889
        k(   17) = (   0.2000000   0.0000000   0.1668283), wk =   0.0177778
        k(   18) = (   0.2000000   0.0000000   0.3336566), wk =   0.0177778
        k(   19) = (   0.2000000   0.1866319   0.0000000), wk =   0.0177778
        k(   20) = (   0.2000000   0.1866319   0.1668283), wk =   0.0355556
        k(   21) = (   0.2000000   0.1866319   0.3336566), wk =   0.0355556
        k(   22) = (   0.2000000   0.3732639   0.0000000), wk =   0.0177778
        k(   23) = (   0.2000000   0.3732639   0.1668283), wk =   0.0355556
        k(   24) = (   0.2000000   0.3732639   0.3336566), wk =   0.0355556
        k(   25) = (   0.2000000   0.5598958   0.0000000), wk =   0.0177778
        k(   26) = (   0.2000000   0.5598958   0.1668283), wk =   0.0355556
        k(   27) = (   0.2000000   0.5598958   0.3336566), wk =   0.0355556
        k(   28) = (   0.2000000   0.7465278   0.0000000), wk =   0.0177778
        k(   29) = (   0.2000000   0.7465278   0.1668283), wk =   0.0355556
        k(   30) = (   0.2000000   0.7465278   0.3336566), wk =   0.0355556
        k(   31) = (   0.4000000   0.0000000   0.0000000), wk =   0.0088889
        k(   32) = (   0.4000000   0.0000000   0.1668283), wk =   0.0177778
        k(   33) = (   0.4000000   0.0000000   0.3336566), wk =   0.0177778
        k(   34) = (   0.4000000   0.1866319   0.0000000), wk =   0.0177778
        k(   35) = (   0.4000000   0.1866319   0.1668283), wk =   0.0355556
        k(   36) = (   0.4000000   0.1866319   0.3336566), wk =   0.0355556
        k(   37) = (   0.4000000   0.3732639   0.0000000), wk =   0.0177778
        k(   38) = (   0.4000000   0.3732639   0.1668283), wk =   0.0355556
        k(   39) = (   0.4000000   0.3732639   0.3336566), wk =   0.0355556
        k(   40) = (   0.4000000   0.5598958   0.0000000), wk =   0.0177778
        k(   41) = (   0.4000000   0.5598958   0.1668283), wk =   0.0355556
        k(   42) = (   0.4000000   0.5598958   0.3336566), wk =   0.0355556
        k(   43) = (   0.4000000   0.7465278   0.0000000), wk =   0.0177778
        k(   44) = (   0.4000000   0.7465278   0.1668283), wk =   0.0355556
        k(   45) = (   0.4000000   0.7465278   0.3336566), wk =   0.0355556

                       cryst. coord.
        k(    1) = (   0.0000000   0.0000000   0.0000000), wk =   0.0044444
        k(    2) = (   0.0000000   0.0000000   0.2000000), wk =   0.0088889
        k(    3) = (   0.0000000   0.0000000   0.4000000), wk =   0.0088889
        k(    4) = (   0.0000000   0.1111111   0.0000000), wk =   0.0088889
        k(    5) = (   0.0000000   0.1111111   0.2000000), wk =   0.0177778
        k(    6) = (   0.0000000   0.1111111   0.4000000), wk =   0.0177778
        k(    7) = (   0.0000000   0.2222222   0.0000000), wk =   0.0088889
        k(    8) = (   0.0000000   0.2222222   0.2000000), wk =   0.0177778
        k(    9) = (   0.0000000   0.2222222   0.4000000), wk =   0.0177778
        k(   10) = (   0.0000000   0.3333333   0.0000000), wk =   0.0088889
        k(   11) = (   0.0000000   0.3333333   0.2000000), wk =   0.0177778
        k(   12) = (   0.0000000   0.3333333   0.4000000), wk =   0.0177778
        k(   13) = (   0.0000000   0.4444444   0.0000000), wk =   0.0088889
        k(   14) = (   0.0000000   0.4444444   0.2000000), wk =   0.0177778
        k(   15) = (   0.0000000   0.4444444   0.4000000), wk =   0.0177778
        k(   16) = (   0.2000000   0.0000000   0.0000000), wk =   0.0088889
        k(   17) = (   0.2000000   0.0000000   0.2000000), wk =   0.0177778
        k(   18) = (   0.2000000   0.0000000   0.4000000), wk =   0.0177778
        k(   19) = (   0.2000000   0.1111111   0.0000000), wk =   0.0177778
        k(   20) = (   0.2000000   0.1111111   0.2000000), wk =   0.0355556
        k(   21) = (   0.2000000   0.1111111   0.4000000), wk =   0.0355556
        k(   22) = (   0.2000000   0.2222222   0.0000000), wk =   0.0177778
        k(   23) = (   0.2000000   0.2222222   0.2000000), wk =   0.0355556
        k(   24) = (   0.2000000   0.2222222   0.4000000), wk =   0.0355556
        k(   25) = (   0.2000000   0.3333333   0.0000000), wk =   0.0177778
        k(   26) = (   0.2000000   0.3333333   0.2000000), wk =   0.0355556
        k(   27) = (   0.2000000   0.3333333   0.4000000), wk =   0.0355556
        k(   28) = (   0.2000000   0.4444444   0.0000000), wk =   0.0177778
        k(   29) = (   0.2000000   0.4444444   0.2000000), wk =   0.0355556
        k(   30) = (   0.2000000   0.4444444   0.4000000), wk =   0.0355556
        k(   31) = (   0.4000000   0.0000000   0.0000000), wk =   0.0088889
        k(   32) = (   0.4000000   0.0000000   0.2000000), wk =   0.0177778
        k(   33) = (   0.4000000   0.0000000   0.4000000), wk =   0.0177778
        k(   34) = (   0.4000000   0.1111111   0.0000000), wk =   0.0177778
        k(   35) = (   0.4000000   0.1111111   0.2000000), wk =   0.0355556
        k(   36) = (   0.4000000   0.1111111   0.4000000), wk =   0.0355556
        k(   37) = (   0.4000000   0.2222222   0.0000000), wk =   0.0177778
        k(   38) = (   0.4000000   0.2222222   0.2000000), wk =   0.0355556
        k(   39) = (   0.4000000   0.2222222   0.4000000), wk =   0.0355556
        k(   40) = (   0.4000000   0.3333333   0.0000000), wk =   0.0177778
        k(   41) = (   0.4000000   0.3333333   0.2000000), wk =   0.0355556
        k(   42) = (   0.4000000   0.3333333   0.4000000), wk =   0.0355556
        k(   43) = (   0.4000000   0.4444444   0.0000000), wk =   0.0177778
        k(   44) = (   0.4000000   0.4444444   0.2000000), wk =   0.0355556
        k(   45) = (   0.4000000   0.4444444   0.4000000), wk =   0.0355556

     Dense  grid:   242439 G-vectors     FFT dimensions: (  90,  54, 108)

     Smooth grid:    85745 G-vectors     FFT dimensions: (  64,  40,  80)

     Dynamical RAM for                 wfc:       9.48 MB

     Dynamical RAM for     wfc (w. buffer):     862.70 MB

     Dynamical RAM for           str. fact:      11.10 MB

     Dynamical RAM for           local pot:       0.00 MB

     Dynamical RAM for          nlocal pot:      29.42 MB

     Dynamical RAM for                qrad:       5.37 MB

     Dynamical RAM for          rho,v,vnew:      46.22 MB

     Dynamical RAM for               rhoin:      15.41 MB

     Dynamical RAM for            rho*nmix:     118.38 MB

     Dynamical RAM for           G-vectors:      14.53 MB

     Dynamical RAM for          h,s,v(r/c):       0.62 MB

     Dynamical RAM for          <psi|beta>:       0.16 MB

     Dynamical RAM for                 psi:      18.96 MB

     Dynamical RAM for                hpsi:      18.96 MB

     Dynamical RAM for                spsi:      18.96 MB

     Dynamical RAM for      wfcinit/wfcrot:      19.04 MB

     Dynamical RAM for           addusdens:     776.86 MB

     Dynamical RAM for          addusforce:     799.09 MB

     Dynamical RAM for         addusstress:     819.40 MB

     Estimated static dynamical RAM per process >    1023.58 MB

     Estimated max dynamical RAM per process >       1.92 GB

     Atomic positions and unit cell read from directory:
     ./out/aiida.save/
 
     Generating pointlists ...
     new r_m :   0.1377 (alat units)  2.2373 (a.u.) for type    1
     new r_m :   0.1377 (alat units)  2.2373 (a.u.) for type    2
     new r_m :   0.1639 (alat units)  2.6642 (a.u.) for type    3

     The initial density is read from file :
     ./out/aiida.save/charge-density


     negative rho (up, down):  1.768E+00 1.671E-01
     Starting wfcs from file
     Checking if some PAW data can be deallocated... 

     total cpu time spent up to now is        6.5 secs

     per-process dynamical memory:   540.9 Mb

     Self-consistent Calculation
[tb_dev] Currently allocated     9.16E-05 Mbytes, locked:    0 /   2
[tb_pin] Currently allocated     0.00E+00 Mbytes, locked:    0 /   0

     iteration #  1     ecut=    35.00 Ry     beta= 0.10
     Davidson diagonalization with overlap

---- Real-time Memory Report at c_bands before calling an iterative solver
          1047 MiB given to the printing process from OS
           541 MiB allocation reported by mallinfo(arena+hblkhd)
         58720 MiB available memory on the node where the printing process lives
     GPU memory used/free/total (MiB): 1096 / 15184 / 16280
------------------
     ethr =  1.00E-05,  avg # of iterations =  6.4

     negative rho (up, down):  1.787E+00 1.857E-01

     total cpu time spent up to now is       19.1 secs

     total energy              =   -3374.25942530 Ry
     estimated scf accuracy    <       0.80109796 Ry

     total magnetization       =     0.00 Bohr mag/cell
     absolute magnetization    =     2.90 Bohr mag/cell
[tb_dev] Currently allocated     9.33E+00 Mbytes, locked:    0 /  11
[tb_pin] Currently allocated     0.00E+00 Mbytes, locked:    0 /   0

     iteration #  2     ecut=    35.00 Ry     beta= 0.10
     Davidson diagonalization with overlap

---- Real-time Memory Report at c_bands before calling an iterative solver
          2528 MiB given to the printing process from OS
          1744 MiB allocation reported by mallinfo(arena+hblkhd)
         56143 MiB available memory on the node where the printing process lives
     GPU memory used/free/total (MiB): 2540 / 13740 / 16280
------------------
     ethr =  8.34E-04,  avg # of iterations =  2.4

     negative rho (up, down):  1.761E+00 1.444E-01

     total cpu time spent up to now is       26.5 secs

     total energy              =   -3374.27243827 Ry
     estimated scf accuracy    <       0.70363821 Ry

     total magnetization       =    -0.00 Bohr mag/cell
     absolute magnetization    =     4.98 Bohr mag/cell
[tb_dev] Currently allocated     9.33E+00 Mbytes, locked:    0 /  11
[tb_pin] Currently allocated     0.00E+00 Mbytes, locked:    0 /   0

     iteration #  3     ecut=    35.00 Ry     beta= 0.10
     Davidson diagonalization with overlap

---- Real-time Memory Report at c_bands before calling an iterative solver
          2669 MiB given to the printing process from OS
          1770 MiB allocation reported by mallinfo(arena+hblkhd)
         56119 MiB available memory on the node where the printing process lives
     GPU memory used/free/total (MiB): 2540 / 13740 / 16280
------------------
     ethr =  7.33E-04,  avg # of iterations =  1.5

     negative rho (up, down):  1.722E+00 1.224E-01

     total cpu time spent up to now is       33.6 secs

     total energy              =   -3374.28199664 Ry
     estimated scf accuracy    <       0.20601146 Ry

     total magnetization       =     0.00 Bohr mag/cell
     absolute magnetization    =     3.75 Bohr mag/cell
[tb_dev] Currently allocated     9.33E+00 Mbytes, locked:    0 /  11
[tb_pin] Currently allocated     0.00E+00 Mbytes, locked:    0 /   0

     iteration #  4     ecut=    35.00 Ry     beta= 0.10
     Davidson diagonalization with overlap

---- Real-time Memory Report at c_bands before calling an iterative solver
          2699 MiB given to the printing process from OS
          1793 MiB allocation reported by mallinfo(arena+hblkhd)
         56093 MiB available memory on the node where the printing process lives
     GPU memory used/free/total (MiB): 2540 / 13740 / 16280
------------------
     ethr =  2.15E-04,  avg # of iterations =  4.0

     negative rho (up, down):  1.721E+00 1.489E-01

     total cpu time spent up to now is       42.4 secs

     total energy              =   -3374.26750390 Ry
     estimated scf accuracy    <       2.66176410 Ry

     total magnetization       =    -0.00 Bohr mag/cell
     absolute magnetization    =     2.00 Bohr mag/cell
[tb_dev] Currently allocated     9.33E+00 Mbytes, locked:    0 /  11
[tb_pin] Currently allocated     0.00E+00 Mbytes, locked:    0 /   0

     iteration #  5     ecut=    35.00 Ry     beta= 0.10
     Davidson diagonalization with overlap

---- Real-time Memory Report at c_bands before calling an iterative solver
          2727 MiB given to the printing process from OS
          1817 MiB allocation reported by mallinfo(arena+hblkhd)
         56074 MiB available memory on the node where the printing process lives
     GPU memory used/free/total (MiB): 2540 / 13740 / 16280
------------------
     ethr =  2.15E-04,  avg # of iterations =  3.4

     negative rho (up, down):  1.722E+00 1.316E-01

     total cpu time spent up to now is       50.5 secs

     total energy              =   -3374.30174007 Ry
     estimated scf accuracy    <       0.46262383 Ry

     total magnetization       =     0.00 Bohr mag/cell
     absolute magnetization    =     2.41 Bohr mag/cell
[tb_dev] Currently allocated     9.33E+00 Mbytes, locked:    0 /  11
[tb_pin] Currently allocated     0.00E+00 Mbytes, locked:    0 /   0

     iteration #  6     ecut=    35.00 Ry     beta= 0.10
     Davidson diagonalization with overlap

---- Real-time Memory Report at c_bands before calling an iterative solver
          2750 MiB given to the printing process from OS
          1840 MiB allocation reported by mallinfo(arena+hblkhd)
         56047 MiB available memory on the node where the printing process lives
     GPU memory used/free/total (MiB): 2540 / 13740 / 16280
------------------
     ethr =  2.15E-04,  avg # of iterations =  1.5

     negative rho (up, down):  1.810E+00 1.407E-01

     total cpu time spent up to now is       57.4 secs

     total energy              =   -3374.21016679 Ry
     estimated scf accuracy    <       0.85353948 Ry

     total magnetization       =     0.00 Bohr mag/cell
     absolute magnetization    =     2.05 Bohr mag/cell
[tb_dev] Currently allocated     9.33E+00 Mbytes, locked:    0 /  11
[tb_pin] Currently allocated     0.00E+00 Mbytes, locked:    0 /   0

     iteration #  7     ecut=    35.00 Ry     beta= 0.10
     Davidson diagonalization with overlap

---- Real-time Memory Report at c_bands before calling an iterative solver
          2773 MiB given to the printing process from OS
          1863 MiB allocation reported by mallinfo(arena+hblkhd)
         56029 MiB available memory on the node where the printing process lives
     GPU memory used/free/total (MiB): 2540 / 13740 / 16280
------------------
     ethr =  2.15E-04,  avg # of iterations =  6.1

     negative rho (up, down):  1.746E+00 1.498E-01

     total cpu time spent up to now is       68.1 secs

     total energy              =   -3374.11237598 Ry
     estimated scf accuracy    <       8.99880211 Ry

     total magnetization       =    -0.00 Bohr mag/cell
     absolute magnetization    =    15.14 Bohr mag/cell
[tb_dev] Currently allocated     9.33E+00 Mbytes, locked:    0 /  11
[tb_pin] Currently allocated     0.00E+00 Mbytes, locked:    0 /   0

     iteration #  8     ecut=    35.00 Ry     beta= 0.10
     Davidson diagonalization with overlap

---- Real-time Memory Report at c_bands before calling an iterative solver
          2799 MiB given to the printing process from OS
          1891 MiB allocation reported by mallinfo(arena+hblkhd)
         55998 MiB available memory on the node where the printing process lives
     GPU memory used/free/total (MiB): 2540 / 13740 / 16280
------------------
     ethr =  2.15E-04,  avg # of iterations =  4.1

     negative rho (up, down):  1.749E+00 1.505E-01

     total cpu time spent up to now is       77.2 secs

     total energy              =   -3374.29431723 Ry
     estimated scf accuracy    <       0.77288698 Ry

     total magnetization       =     0.00 Bohr mag/cell
     absolute magnetization    =     4.96 Bohr mag/cell
[tb_dev] Currently allocated     9.33E+00 Mbytes, locked:    0 /  11
[tb_pin] Currently allocated     0.00E+00 Mbytes, locked:    0 /   0

     iteration #  9     ecut=    35.00 Ry     beta= 0.10
     Davidson diagonalization with overlap

---- Real-time Memory Report at c_bands before calling an iterative solver
          2822 MiB given to the printing process from OS
          1913 MiB allocation reported by mallinfo(arena+hblkhd)
         55977 MiB available memory on the node where the printing process lives
     GPU memory used/free/total (MiB): 2540 / 13740 / 16280
------------------
     ethr =  2.15E-04,  avg # of iterations =  1.0

     negative rho (up, down):  1.752E+00 1.285E-01

     total cpu time spent up to now is       83.8 secs

     total energy              =   -3374.28338000 Ry
     estimated scf accuracy    <       0.82968907 Ry

     total magnetization       =     0.00 Bohr mag/cell
     absolute magnetization    =     4.71 Bohr mag/cell
[tb_dev] Currently allocated     9.33E+00 Mbytes, locked:    0 /  11
[tb_pin] Currently allocated     0.00E+00 Mbytes, locked:    0 /   0

     iteration # 10     ecut=    35.00 Ry     beta= 0.10
     Davidson diagonalization with overlap

---- Real-time Memory Report at c_bands before calling an iterative solver
          2841 MiB given to the printing process from OS
          1932 MiB allocation reported by mallinfo(arena+hblkhd)
         55959 MiB available memory on the node where the printing process lives
     GPU memory used/free/total (MiB): 2540 / 13740 / 16280
------------------
     ethr =  2.15E-04,  avg # of iterations =  1.5

     negative rho (up, down):  1.753E+00 1.216E-01

     total cpu time spent up to now is       90.7 secs

     total energy              =   -3374.28331498 Ry
     estimated scf accuracy    <       0.36228852 Ry

     total magnetization       =    -0.00 Bohr mag/cell
     absolute magnetization    =     3.74 Bohr mag/cell
[tb_dev] Currently allocated     9.33E+00 Mbytes, locked:    0 /  11
[tb_pin] Currently allocated     0.00E+00 Mbytes, locked:    0 /   0

     iteration # 11     ecut=    35.00 Ry     beta= 0.10
     Davidson diagonalization with overlap

---- Real-time Memory Report at c_bands before calling an iterative solver
          2861 MiB given to the printing process from OS
          1949 MiB allocation reported by mallinfo(arena+hblkhd)
         55939 MiB available memory on the node where the printing process lives
     GPU memory used/free/total (MiB): 2540 / 13740 / 16280
------------------
     ethr =  2.15E-04,  avg # of iterations =  1.5

     negative rho (up, down):  1.737E+00 1.445E-01

     total cpu time spent up to now is       97.6 secs

     total energy              =   -3374.29176806 Ry
     estimated scf accuracy    <       0.16407034 Ry

     total magnetization       =     0.00 Bohr mag/cell
     absolute magnetization    =     3.48 Bohr mag/cell
[tb_dev] Currently allocated     9.33E+00 Mbytes, locked:    0 /  11
[tb_pin] Currently allocated     0.00E+00 Mbytes, locked:    0 /   0

     iteration # 12     ecut=    35.00 Ry     beta= 0.10
     Davidson diagonalization with overlap

---- Real-time Memory Report at c_bands before calling an iterative solver
          2878 MiB given to the printing process from OS
          1966 MiB allocation reported by mallinfo(arena+hblkhd)
         55927 MiB available memory on the node where the printing process lives
     GPU memory used/free/total (MiB): 2540 / 13740 / 16280
------------------
     ethr =  1.71E-04,  avg # of iterations =  1.9

     negative rho (up, down):  1.768E+00 1.086E-01

     total cpu time spent up to now is      104.7 secs

     total energy              =   -3374.27501433 Ry
     estimated scf accuracy    <       0.44761619 Ry

     total magnetization       =    -0.00 Bohr mag/cell
     absolute magnetization    =     3.27 Bohr mag/cell
[tb_dev] Currently allocated     9.33E+00 Mbytes, locked:    0 /  11
[tb_pin] Currently allocated     0.00E+00 Mbytes, locked:    0 /   0

     iteration # 13     ecut=    35.00 Ry     beta= 0.10
     Davidson diagonalization with overlap

---- Real-time Memory Report at c_bands before calling an iterative solver
          2892 MiB given to the printing process from OS
          1983 MiB allocation reported by mallinfo(arena+hblkhd)
         55908 MiB available memory on the node where the printing process lives
     GPU memory used/free/total (MiB): 2540 / 13740 / 16280
------------------
     ethr =  1.71E-04,  avg # of iterations =  2.0

     negative rho (up, down):  1.766E+00 1.092E-01

     total cpu time spent up to now is      112.0 secs

     total energy              =   -3374.28473182 Ry
     estimated scf accuracy    <       0.02179354 Ry

     total magnetization       =    -0.00 Bohr mag/cell
     absolute magnetization    =     3.78 Bohr mag/cell
[tb_dev] Currently allocated     9.33E+00 Mbytes, locked:    0 /  11
[tb_pin] Currently allocated     0.00E+00 Mbytes, locked:    0 /   0

     iteration # 14     ecut=    35.00 Ry     beta= 0.10
     Davidson diagonalization with overlap

---- Real-time Memory Report at c_bands before calling an iterative solver
          2917 MiB given to the printing process from OS
          2000 MiB allocation reported by mallinfo(arena+hblkhd)
         55893 MiB available memory on the node where the printing process lives
     GPU memory used/free/total (MiB): 2540 / 13740 / 16280
------------------
     ethr =  2.27E-05,  avg # of iterations =  5.2

     negative rho (up, down):  1.769E+00 1.116E-01

     total cpu time spent up to now is      121.4 secs

     total energy              =   -3374.28720949 Ry
     estimated scf accuracy    <       0.19587962 Ry

     total magnetization       =     0.00 Bohr mag/cell
     absolute magnetization    =     3.59 Bohr mag/cell
[tb_dev] Currently allocated     9.33E+00 Mbytes, locked:    0 /  11
[tb_pin] Currently allocated     0.00E+00 Mbytes, locked:    0 /   0

     iteration # 15     ecut=    35.00 Ry     beta= 0.10
     Davidson diagonalization with overlap

---- Real-time Memory Report at c_bands before calling an iterative solver
          2934 MiB given to the printing process from OS
          2016 MiB allocation reported by mallinfo(arena+hblkhd)
         55875 MiB available memory on the node where the printing process lives
     GPU memory used/free/total (MiB): 2540 / 13740 / 16280
------------------
     ethr =  2.27E-05,  avg # of iterations =  1.5

     negative rho (up, down):  1.804E+00 7.767E-02

     total cpu time spent up to now is      128.4 secs

     total energy              =   -3374.30463469 Ry
     estimated scf accuracy    <       0.08300290 Ry

     total magnetization       =     0.00 Bohr mag/cell
     absolute magnetization    =     4.05 Bohr mag/cell
[tb_dev] Currently allocated     9.33E+00 Mbytes, locked:    0 /  11
[tb_pin] Currently allocated     0.00E+00 Mbytes, locked:    0 /   0

     iteration # 16     ecut=    35.00 Ry     beta= 0.10
     Davidson diagonalization with overlap

---- Real-time Memory Report at c_bands before calling an iterative solver
          2947 MiB given to the printing process from OS
          2033 MiB allocation reported by mallinfo(arena+hblkhd)
         55861 MiB available memory on the node where the printing process lives
     GPU memory used/free/total (MiB): 2540 / 13740 / 16280
------------------
     ethr =  2.27E-05,  avg # of iterations =  7.2

     negative rho (up, down):  1.747E+00 1.211E-01

     total cpu time spent up to now is      140.0 secs

     total energy              =   -3374.16757467 Ry
     estimated scf accuracy    <       7.50974954 Ry

     total magnetization       =     0.00 Bohr mag/cell
     absolute magnetization    =     9.61 Bohr mag/cell
[tb_dev] Currently allocated     9.33E+00 Mbytes, locked:    0 /  11
[tb_pin] Currently allocated     0.00E+00 Mbytes, locked:    0 /   0

     iteration # 17     ecut=    35.00 Ry     beta= 0.10
     Davidson diagonalization with overlap

---- Real-time Memory Report at c_bands before calling an iterative solver
          2969 MiB given to the printing process from OS
         -2045 MiB allocation reported by mallinfo(arena+hblkhd)
         55839 MiB available memory on the node where the printing process lives
     GPU memory used/free/total (MiB): 2540 / 13740 / 16280
------------------
     ethr =  2.27E-05,  avg # of iterations =  6.5

     negative rho (up, down):  1.751E+00 1.205E-01

     total cpu time spent up to now is      151.3 secs

     total energy              =   -3374.28869822 Ry
     estimated scf accuracy    <       0.45145311 Ry

     total magnetization       =     0.00 Bohr mag/cell
     absolute magnetization    =     2.06 Bohr mag/cell
[tb_dev] Currently allocated     9.33E+00 Mbytes, locked:    0 /  11
[tb_pin] Currently allocated     0.00E+00 Mbytes, locked:    0 /   0

     iteration # 18     ecut=    35.00 Ry     beta= 0.10
     Davidson diagonalization with overlap

---- Real-time Memory Report at c_bands before calling an iterative solver
          2984 MiB given to the printing process from OS
         -2028 MiB allocation reported by mallinfo(arena+hblkhd)
         55827 MiB available memory on the node where the printing process lives
     GPU memory used/free/total (MiB): 2540 / 13740 / 16280
------------------
     ethr =  2.27E-05,  avg # of iterations =  1.7

     negative rho (up, down):  1.755E+00 1.166E-01

     total cpu time spent up to now is      158.4 secs

     total energy              =   -3374.28931856 Ry
     estimated scf accuracy    <       0.29291309 Ry

     total magnetization       =    -0.00 Bohr mag/cell
     absolute magnetization    =     2.43 Bohr mag/cell
[tb_dev] Currently allocated     9.33E+00 Mbytes, locked:    0 /  11
[tb_pin] Currently allocated     0.00E+00 Mbytes, locked:    0 /   0

     iteration # 19     ecut=    35.00 Ry     beta= 0.10
     Davidson diagonalization with overlap

---- Real-time Memory Report at c_bands before calling an iterative solver
          3003 MiB given to the printing process from OS
         -2011 MiB allocation reported by mallinfo(arena+hblkhd)
         55809 MiB available memory on the node where the printing process lives
     GPU memory used/free/total (MiB): 2540 / 13740 / 16280
------------------
     ethr =  2.27E-05,  avg # of iterations =  1.8

     negative rho (up, down):  1.771E+00 1.173E-01

     total cpu time spent up to now is      165.4 secs

     total energy              =   -3374.28165759 Ry
     estimated scf accuracy    <       0.24996036 Ry

     total magnetization       =    -0.00 Bohr mag/cell
     absolute magnetization    =     2.61 Bohr mag/cell
[tb_dev] Currently allocated     9.33E+00 Mbytes, locked:    0 /  11
[tb_pin] Currently allocated     0.00E+00 Mbytes, locked:    0 /   0

     iteration # 20     ecut=    35.00 Ry     beta= 0.10
     Davidson diagonalization with overlap

---- Real-time Memory Report at c_bands before calling an iterative solver
          3020 MiB given to the printing process from OS
         -1995 MiB allocation reported by mallinfo(arena+hblkhd)
         55793 MiB available memory on the node where the printing process lives
     GPU memory used/free/total (MiB): 2540 / 13740 / 16280
------------------
     ethr =  2.27E-05,  avg # of iterations =  5.4

     negative rho (up, down):  1.791E+00 9.022E-02

     total cpu time spent up to now is      175.1 secs

     total energy              =   -3374.30523019 Ry
     estimated scf accuracy    <       0.09467124 Ry

     total magnetization       =    -0.00 Bohr mag/cell
     absolute magnetization    =     4.92 Bohr mag/cell
[tb_dev] Currently allocated     9.33E+00 Mbytes, locked:    0 /  11
[tb_pin] Currently allocated     0.00E+00 Mbytes, locked:    0 /   0

     iteration # 21     ecut=    35.00 Ry     beta= 0.10
     Davidson diagonalization with overlap

---- Real-time Memory Report at c_bands before calling an iterative solver
          3039 MiB given to the printing process from OS
         -1978 MiB allocation reported by mallinfo(arena+hblkhd)
         55775 MiB available memory on the node where the printing process lives
     GPU memory used/free/total (MiB): 2540 / 13740 / 16280
------------------
     ethr =  2.27E-05,  avg # of iterations =  7.5

     negative rho (up, down):  1.758E+00 1.241E-01

     total cpu time spent up to now is      186.9 secs

     total energy              =   -3374.21189025 Ry
     estimated scf accuracy    <       4.76913524 Ry

     total magnetization       =    -0.00 Bohr mag/cell
     absolute magnetization    =     8.24 Bohr mag/cell
[tb_dev] Currently allocated     9.33E+00 Mbytes, locked:    0 /  11
[tb_pin] Currently allocated     0.00E+00 Mbytes, locked:    0 /   0

     iteration # 22     ecut=    35.00 Ry     beta= 0.10
     Davidson diagonalization with overlap

---- Real-time Memory Report at c_bands before calling an iterative solver
          3056 MiB given to the printing process from OS
         -1961 MiB allocation reported by mallinfo(arena+hblkhd)
         55757 MiB available memory on the node where the printing process lives
     GPU memory used/free/total (MiB): 2540 / 13740 / 16280
------------------
     ethr =  2.27E-05,  avg # of iterations =  6.8

     negative rho (up, down):  1.734E+00 1.721E-01

     total cpu time spent up to now is      198.3 secs

     total energy              =   -3374.28870070 Ry
     estimated scf accuracy    <       0.06689412 Ry

     total magnetization       =     0.00 Bohr mag/cell
     absolute magnetization    =     3.25 Bohr mag/cell
[tb_dev] Currently allocated     9.33E+00 Mbytes, locked:    0 /  11
[tb_pin] Currently allocated     0.00E+00 Mbytes, locked:    0 /   0

     iteration # 23     ecut=    35.00 Ry     beta= 0.10
     Davidson diagonalization with overlap

---- Real-time Memory Report at c_bands before calling an iterative solver
          3078 MiB given to the printing process from OS
         -1944 MiB allocation reported by mallinfo(arena+hblkhd)
         55740 MiB available memory on the node where the printing process lives
     GPU memory used/free/total (MiB): 2540 / 13740 / 16280
------------------
     ethr =  2.27E-05,  avg # of iterations =  5.6

     negative rho (up, down):  1.727E+00 1.811E-01

     total cpu time spent up to now is      208.0 secs

     total energy              =   -3374.29783498 Ry
     estimated scf accuracy    <       0.74953444 Ry

     total magnetization       =    -0.00 Bohr mag/cell
     absolute magnetization    =     3.45 Bohr mag/cell
[tb_dev] Currently allocated     9.33E+00 Mbytes, locked:    0 /  11
[tb_pin] Currently allocated     0.00E+00 Mbytes, locked:    0 /   0

     iteration # 24     ecut=    35.00 Ry     beta= 0.10
     Davidson diagonalization with overlap

---- Real-time Memory Report at c_bands before calling an iterative solver
          3095 MiB given to the printing process from OS
         -1903 MiB allocation reported by mallinfo(arena+hblkhd)
         55706 MiB available memory on the node where the printing process lives
     GPU memory used/free/total (MiB): 2540 / 13740 / 16280
------------------
     ethr =  2.27E-05,  avg # of iterations =  1.5

     negative rho (up, down):  1.736E+00 1.656E-01

     total cpu time spent up to now is      214.9 secs

     total energy              =   -3374.29545569 Ry
     estimated scf accuracy    <       0.74386335 Ry

     total magnetization       =     0.00 Bohr mag/cell
     absolute magnetization    =     3.31 Bohr mag/cell
[tb_dev] Currently allocated     9.33E+00 Mbytes, locked:    0 /  11
[tb_pin] Currently allocated     0.00E+00 Mbytes, locked:    0 /   0

     iteration # 25     ecut=    35.00 Ry     beta= 0.10
     Davidson diagonalization with overlap

---- Real-time Memory Report at c_bands before calling an iterative solver
          3112 MiB given to the printing process from OS
         -1886 MiB allocation reported by mallinfo(arena+hblkhd)
         55688 MiB available memory on the node where the printing process lives
     GPU memory used/free/total (MiB): 2540 / 13740 / 16280
------------------
     ethr =  2.27E-05,  avg # of iterations =  1.1

     negative rho (up, down):  1.725E+00 1.815E-01

     total cpu time spent up to now is      221.6 secs

     total energy              =   -3374.29844684 Ry
     estimated scf accuracy    <       0.67323724 Ry

     total magnetization       =     0.00 Bohr mag/cell
     absolute magnetization    =     3.27 Bohr mag/cell
[tb_dev] Currently allocated     9.33E+00 Mbytes, locked:    0 /  11
[tb_pin] Currently allocated     0.00E+00 Mbytes, locked:    0 /   0

     iteration # 26     ecut=    35.00 Ry     beta= 0.10
     Davidson diagonalization with overlap

---- Real-time Memory Report at c_bands before calling an iterative solver
          3132 MiB given to the printing process from OS
         -1870 MiB allocation reported by mallinfo(arena+hblkhd)
         55670 MiB available memory on the node where the printing process lives
     GPU memory used/free/total (MiB): 2540 / 13740 / 16280
------------------
     ethr =  2.27E-05,  avg # of iterations =  1.0

     negative rho (up, down):  1.752E+00 1.461E-01

     total cpu time spent up to now is      228.2 secs

     total energy              =   -3374.29058331 Ry
     estimated scf accuracy    <       0.72175618 Ry

     total magnetization       =    -0.00 Bohr mag/cell
     absolute magnetization    =     3.34 Bohr mag/cell
[tb_dev] Currently allocated     9.33E+00 Mbytes, locked:    0 /  11
[tb_pin] Currently allocated     0.00E+00 Mbytes, locked:    0 /   0

     iteration # 27     ecut=    35.00 Ry     beta= 0.10
     Davidson diagonalization with overlap

---- Real-time Memory Report at c_bands before calling an iterative solver
          3148 MiB given to the printing process from OS
         -1853 MiB allocation reported by mallinfo(arena+hblkhd)
         55654 MiB available memory on the node where the printing process lives
     GPU memory used/free/total (MiB): 2540 / 13740 / 16280
------------------
     ethr =  2.27E-05,  avg # of iterations =  1.7

     negative rho (up, down):  1.784E+00 1.103E-01

     total cpu time spent up to now is      235.2 secs

     total energy              =   -3374.26585578 Ry
     estimated scf accuracy    <       0.50764986 Ry

     total magnetization       =    -0.00 Bohr mag/cell
     absolute magnetization    =     3.44 Bohr mag/cell
[tb_dev] Currently allocated     9.33E+00 Mbytes, locked:    0 /  11
[tb_pin] Currently allocated     0.00E+00 Mbytes, locked:    0 /   0

     iteration # 28     ecut=    35.00 Ry     beta= 0.10
     Davidson diagonalization with overlap

---- Real-time Memory Report at c_bands before calling an iterative solver
          3168 MiB given to the printing process from OS
         -1836 MiB allocation reported by mallinfo(arena+hblkhd)
         55634 MiB available memory on the node where the printing process lives
     GPU memory used/free/total (MiB): 2540 / 13740 / 16280
------------------
     ethr =  2.27E-05,  avg # of iterations =  4.4

     negative rho (up, down):  1.774E+00 1.126E-01

     total cpu time spent up to now is      244.7 secs

     total energy              =   -3374.28340094 Ry
     estimated scf accuracy    <       0.49919381 Ry

     total magnetization       =    -0.00 Bohr mag/cell
     absolute magnetization    =     6.33 Bohr mag/cell
[tb_dev] Currently allocated     9.33E+00 Mbytes, locked:    0 /  11
[tb_pin] Currently allocated     0.00E+00 Mbytes, locked:    0 /   0

     iteration # 29     ecut=    35.00 Ry     beta= 0.10
     Davidson diagonalization with overlap

---- Real-time Memory Report at c_bands before calling an iterative solver
          3188 MiB given to the printing process from OS
         -1819 MiB allocation reported by mallinfo(arena+hblkhd)
         55617 MiB available memory on the node where the printing process lives
     GPU memory used/free/total (MiB): 2540 / 13740 / 16280
------------------
     ethr =  2.27E-05,  avg # of iterations =  3.8

     negative rho (up, down):  1.749E+00 1.303E-01

     total cpu time spent up to now is      253.2 secs

     total energy              =   -3374.28333210 Ry
     estimated scf accuracy    <       0.05014449 Ry

     total magnetization       =     0.00 Bohr mag/cell
     absolute magnetization    =     4.74 Bohr mag/cell
[tb_dev] Currently allocated     9.33E+00 Mbytes, locked:    0 /  11
[tb_pin] Currently allocated     0.00E+00 Mbytes, locked:    0 /   0

     iteration # 30     ecut=    35.00 Ry     beta= 0.10
     Davidson diagonalization with overlap

---- Real-time Memory Report at c_bands before calling an iterative solver
          3207 MiB given to the printing process from OS
         -1802 MiB allocation reported by mallinfo(arena+hblkhd)
         55600 MiB available memory on the node where the printing process lives
     GPU memory used/free/total (MiB): 2540 / 13740 / 16280
------------------
     ethr =  2.27E-05,  avg # of iterations =  3.9

     negative rho (up, down):  1.741E+00 1.337E-01

     total cpu time spent up to now is      261.9 secs

     total energy              =   -3374.29227291 Ry
     estimated scf accuracy    <       0.20712253 Ry

     total magnetization       =    -0.00 Bohr mag/cell
     absolute magnetization    =     3.08 Bohr mag/cell
[tb_dev] Currently allocated     9.33E+00 Mbytes, locked:    0 /  11
[tb_pin] Currently allocated     0.00E+00 Mbytes, locked:    0 /   0

     iteration # 31     ecut=    35.00 Ry     beta= 0.10
     Davidson diagonalization with overlap

---- Real-time Memory Report at c_bands before calling an iterative solver
          3223 MiB given to the printing process from OS
         -1785 MiB allocation reported by mallinfo(arena+hblkhd)
         55585 MiB available memory on the node where the printing process lives
     GPU memory used/free/total (MiB): 2540 / 13740 / 16280
------------------
     ethr =  2.27E-05,  avg # of iterations =  1.6

     negative rho (up, down):  1.738E+00 1.361E-01

     total cpu time spent up to now is      268.8 secs

     total energy              =   -3374.29335952 Ry
     estimated scf accuracy    <       0.26155107 Ry

     total magnetization       =    -0.00 Bohr mag/cell
     absolute magnetization    =     2.92 Bohr mag/cell
[tb_dev] Currently allocated     9.33E+00 Mbytes, locked:    0 /  11
[tb_pin] Currently allocated     0.00E+00 Mbytes, locked:    0 /   0

     iteration # 32     ecut=    35.00 Ry     beta= 0.10
     Davidson diagonalization with overlap

---- Real-time Memory Report at c_bands before calling an iterative solver
          3240 MiB given to the printing process from OS
         -1769 MiB allocation reported by mallinfo(arena+hblkhd)
         55566 MiB available memory on the node where the printing process lives
     GPU memory used/free/total (MiB): 2540 / 13740 / 16280
------------------
     ethr =  2.27E-05,  avg # of iterations =  2.0

     negative rho (up, down):  1.758E+00 1.230E-01

     total cpu time spent up to now is      275.9 secs

     total energy              =   -3374.28787325 Ry
     estimated scf accuracy    <       0.34770718 Ry

     total magnetization       =    -0.00 Bohr mag/cell
     absolute magnetization    =     2.96 Bohr mag/cell
[tb_dev] Currently allocated     9.33E+00 Mbytes, locked:    0 /  11
[tb_pin] Currently allocated     0.00E+00 Mbytes, locked:    0 /   0

     iteration # 33     ecut=    35.00 Ry     beta= 0.10
     Davidson diagonalization with overlap

---- Real-time Memory Report at c_bands before calling an iterative solver
          3261 MiB given to the printing process from OS
         -1752 MiB allocation reported by mallinfo(arena+hblkhd)
         55549 MiB available memory on the node where the printing process lives
     GPU memory used/free/total (MiB): 2540 / 13740 / 16280
------------------
     ethr =  2.27E-05,  avg # of iterations =  1.5

     negative rho (up, down):  1.751E+00 1.302E-01

     total cpu time spent up to now is      282.9 secs

     total energy              =   -3374.29025993 Ry
     estimated scf accuracy    <       0.18926936 Ry

     total magnetization       =     0.00 Bohr mag/cell
     absolute magnetization    =     3.12 Bohr mag/cell
[tb_dev] Currently allocated     9.33E+00 Mbytes, locked:    0 /  11
[tb_pin] Currently allocated     0.00E+00 Mbytes, locked:    0 /   0

     iteration # 34     ecut=    35.00 Ry     beta= 0.10
     Davidson diagonalization with overlap

---- Real-time Memory Report at c_bands before calling an iterative solver
          3278 MiB given to the printing process from OS
         -1735 MiB allocation reported by mallinfo(arena+hblkhd)
         55533 MiB available memory on the node where the printing process lives
     GPU memory used/free/total (MiB): 2540 / 13740 / 16280
------------------
     ethr =  2.27E-05,  avg # of iterations =  1.0

     negative rho (up, down):  1.756E+00 1.219E-01

     total cpu time spent up to now is      289.5 secs

     total energy              =   -3374.28826769 Ry
     estimated scf accuracy    <       0.20265606 Ry

     total magnetization       =     0.00 Bohr mag/cell
     absolute magnetization    =     3.12 Bohr mag/cell
[tb_dev] Currently allocated     9.33E+00 Mbytes, locked:    0 /  11
[tb_pin] Currently allocated     0.00E+00 Mbytes, locked:    0 /   0

     iteration # 35     ecut=    35.00 Ry     beta= 0.10
     Davidson diagonalization with overlap

---- Real-time Memory Report at c_bands before calling an iterative solver
          3298 MiB given to the printing process from OS
         -1718 MiB allocation reported by mallinfo(arena+hblkhd)
         55519 MiB available memory on the node where the printing process lives
     GPU memory used/free/total (MiB): 2540 / 13740 / 16280
------------------
     ethr =  2.27E-05,  avg # of iterations =  2.0

     negative rho (up, down):  1.746E+00 1.418E-01

     total cpu time spent up to now is      296.6 secs

     total energy              =   -3374.29056083 Ry
     estimated scf accuracy    <       0.14813709 Ry

     total magnetization       =     0.00 Bohr mag/cell
     absolute magnetization    =     3.12 Bohr mag/cell
[tb_dev] Currently allocated     9.33E+00 Mbytes, locked:    0 /  11
[tb_pin] Currently allocated     0.00E+00 Mbytes, locked:    0 /   0

     iteration # 36     ecut=    35.00 Ry     beta= 0.10
     Davidson diagonalization with overlap

---- Real-time Memory Report at c_bands before calling an iterative solver
          3315 MiB given to the printing process from OS
         -1701 MiB allocation reported by mallinfo(arena+hblkhd)
         55498 MiB available memory on the node where the printing process lives
     GPU memory used/free/total (MiB): 2540 / 13740 / 16280
------------------
     ethr =  2.27E-05,  avg # of iterations =  2.0

     negative rho (up, down):  1.750E+00 1.277E-01

     total cpu time spent up to now is      303.9 secs

     total energy              =   -3374.28898047 Ry
     estimated scf accuracy    <       0.29275149 Ry

     total magnetization       =     0.00 Bohr mag/cell
     absolute magnetization    =     3.37 Bohr mag/cell
[tb_dev] Currently allocated     9.33E+00 Mbytes, locked:    0 /  11
[tb_pin] Currently allocated     0.00E+00 Mbytes, locked:    0 /   0

     iteration # 37     ecut=    35.00 Ry     beta= 0.10
     Davidson diagonalization with overlap

---- Real-time Memory Report at c_bands before calling an iterative solver
          3334 MiB given to the printing process from OS
         -1685 MiB allocation reported by mallinfo(arena+hblkhd)
         55481 MiB available memory on the node where the printing process lives
     GPU memory used/free/total (MiB): 2540 / 13740 / 16280
------------------
     ethr =  2.27E-05,  avg # of iterations =  1.5

     negative rho (up, down):  1.757E+00 1.201E-01

     total cpu time spent up to now is      310.8 secs

     total energy              =   -3374.28753228 Ry
     estimated scf accuracy    <       0.23878669 Ry

     total magnetization       =    -0.00 Bohr mag/cell
     absolute magnetization    =     3.06 Bohr mag/cell
[tb_dev] Currently allocated     9.33E+00 Mbytes, locked:    0 /  11
[tb_pin] Currently allocated     0.00E+00 Mbytes, locked:    0 /   0

     iteration # 38     ecut=    35.00 Ry     beta= 0.10
     Davidson diagonalization with overlap

---- Real-time Memory Report at c_bands before calling an iterative solver
          3351 MiB given to the printing process from OS
         -1668 MiB allocation reported by mallinfo(arena+hblkhd)
         55466 MiB available memory on the node where the printing process lives
     GPU memory used/free/total (MiB): 2540 / 13740 / 16280
------------------
     ethr =  2.27E-05,  avg # of iterations =  2.0

     negative rho (up, down):  1.765E+00 1.378E-01

     total cpu time spent up to now is      318.1 secs

     total energy              =   -3374.28573149 Ry
     estimated scf accuracy    <       0.15673283 Ry

     total magnetization       =     0.00 Bohr mag/cell
     absolute magnetization    =     3.04 Bohr mag/cell
[tb_dev] Currently allocated     9.33E+00 Mbytes, locked:    0 /  11
[tb_pin] Currently allocated     0.00E+00 Mbytes, locked:    0 /   0

     iteration # 39     ecut=    35.00 Ry     beta= 0.10
     Davidson diagonalization with overlap

---- Real-time Memory Report at c_bands before calling an iterative solver
          3371 MiB given to the printing process from OS
         -1647 MiB allocation reported by mallinfo(arena+hblkhd)
         55448 MiB available memory on the node where the printing process lives
     GPU memory used/free/total (MiB): 2540 / 13740 / 16280
------------------
     ethr =  2.27E-05,  avg # of iterations =  1.5

     negative rho (up, down):  1.773E+00 1.270E-01

     total cpu time spent up to now is      325.0 secs

     total energy              =   -3374.28462856 Ry
     estimated scf accuracy    <       0.18037190 Ry

     total magnetization       =    -0.00 Bohr mag/cell
     absolute magnetization    =     3.47 Bohr mag/cell
[tb_dev] Currently allocated     9.33E+00 Mbytes, locked:    0 /  11
[tb_pin] Currently allocated     0.00E+00 Mbytes, locked:    0 /   0

     iteration # 40     ecut=    35.00 Ry     beta= 0.10
     Davidson diagonalization with overlap

---- Real-time Memory Report at c_bands before calling an iterative solver
          3388 MiB given to the printing process from OS
         -1630 MiB allocation reported by mallinfo(arena+hblkhd)
         55428 MiB available memory on the node where the printing process lives
     GPU memory used/free/total (MiB): 2540 / 13740 / 16280
------------------
     ethr =  2.27E-05,  avg # of iterations =  1.5

     negative rho (up, down):  1.770E+00 1.315E-01

     total cpu time spent up to now is      331.9 secs

     total energy              =   -3374.28564270 Ry
     estimated scf accuracy    <       0.10775051 Ry

     total magnetization       =     0.00 Bohr mag/cell
     absolute magnetization    =     3.63 Bohr mag/cell
[tb_dev] Currently allocated     9.33E+00 Mbytes, locked:    0 /  11
[tb_pin] Currently allocated     0.00E+00 Mbytes, locked:    0 /   0

     iteration # 41     ecut=    35.00 Ry     beta= 0.10
     Davidson diagonalization with overlap

---- Real-time Memory Report at c_bands before calling an iterative solver
          3408 MiB given to the printing process from OS
         -1613 MiB allocation reported by mallinfo(arena+hblkhd)
         55412 MiB available memory on the node where the printing process lives
     GPU memory used/free/total (MiB): 2540 / 13740 / 16280
------------------
     ethr =  2.27E-05,  avg # of iterations =  1.1

     negative rho (up, down):  1.772E+00 9.758E-02

     total cpu time spent up to now is      338.6 secs

     total energy              =   -3374.28006256 Ry
     estimated scf accuracy    <       0.13234717 Ry

     total magnetization       =    -0.00 Bohr mag/cell
     absolute magnetization    =     3.73 Bohr mag/cell
[tb_dev] Currently allocated     9.33E+00 Mbytes, locked:    0 /  11
[tb_pin] Currently allocated     0.00E+00 Mbytes, locked:    0 /   0

     iteration # 42     ecut=    35.00 Ry     beta= 0.10
     Davidson diagonalization with overlap

---- Real-time Memory Report at c_bands before calling an iterative solver
          3424 MiB given to the printing process from OS
         -1592 MiB allocation reported by mallinfo(arena+hblkhd)
         55390 MiB available memory on the node where the printing process lives
     GPU memory used/free/total (MiB): 2540 / 13740 / 16280
------------------
     ethr =  2.27E-05,  avg # of iterations =  5.8

     negative rho (up, down):  1.767E+00 1.047E-01

     total cpu time spent up to now is      348.9 secs

     total energy              =   -3374.29017836 Ry
     estimated scf accuracy    <       0.71619292 Ry

     total magnetization       =    -0.00 Bohr mag/cell
     absolute magnetization    =     2.58 Bohr mag/cell
[tb_dev] Currently allocated     9.33E+00 Mbytes, locked:    0 /  11
[tb_pin] Currently allocated     0.00E+00 Mbytes, locked:    0 /   0

     iteration # 43     ecut=    35.00 Ry     beta= 0.10
     Davidson diagonalization with overlap

---- Real-time Memory Report at c_bands before calling an iterative solver
          3445 MiB given to the printing process from OS
         -1576 MiB allocation reported by mallinfo(arena+hblkhd)
         55371 MiB available memory on the node where the printing process lives
     GPU memory used/free/total (MiB): 2540 / 13740 / 16280
------------------
     ethr =  2.27E-05,  avg # of iterations =  2.0

     negative rho (up, down):  1.760E+00 1.216E-01

     total cpu time spent up to now is      356.2 secs

     total energy              =   -3374.28059127 Ry
     estimated scf accuracy    <       0.48377121 Ry

     total magnetization       =    -0.00 Bohr mag/cell
     absolute magnetization    =     2.57 Bohr mag/cell
[tb_dev] Currently allocated     9.33E+00 Mbytes, locked:    0 /  11
[tb_pin] Currently allocated     0.00E+00 Mbytes, locked:    0 /   0

     iteration # 44     ecut=    35.00 Ry     beta= 0.10
     Davidson diagonalization with overlap

---- Real-time Memory Report at c_bands before calling an iterative solver
          3459 MiB given to the printing process from OS
         -1559 MiB allocation reported by mallinfo(arena+hblkhd)
         55358 MiB available memory on the node where the printing process lives
     GPU memory used/free/total (MiB): 2540 / 13740 / 16280
------------------
     ethr =  2.27E-05,  avg # of iterations =  5.8

     negative rho (up, down):  1.765E+00 1.115E-01

     total cpu time spent up to now is      366.0 secs

     total energy              =   -3374.28653476 Ry
     estimated scf accuracy    <       0.11244432 Ry

     total magnetization       =    -0.00 Bohr mag/cell
     absolute magnetization    =     2.96 Bohr mag/cell
[tb_dev] Currently allocated     9.33E+00 Mbytes, locked:    0 /  11
[tb_pin] Currently allocated     0.00E+00 Mbytes, locked:    0 /   0

     iteration # 45     ecut=    35.00 Ry     beta= 0.10
     Davidson diagonalization with overlap

---- Real-time Memory Report at c_bands before calling an iterative solver
          3480 MiB given to the printing process from OS
         -1540 MiB allocation reported by mallinfo(arena+hblkhd)
         55338 MiB available memory on the node where the printing process lives
     GPU memory used/free/total (MiB): 2540 / 13740 / 16280
------------------
     ethr =  2.27E-05,  avg # of iterations =  2.1

     negative rho (up, down):  1.778E+00 8.464E-02

     total cpu time spent up to now is      373.3 secs

     total energy              =   -3374.28700820 Ry
     estimated scf accuracy    <       0.08671906 Ry

     total magnetization       =     0.00 Bohr mag/cell
     absolute magnetization    =     3.00 Bohr mag/cell
[tb_dev] Currently allocated     9.33E+00 Mbytes, locked:    0 /  11
[tb_pin] Currently allocated     0.00E+00 Mbytes, locked:    0 /   0

     iteration # 46     ecut=    35.00 Ry     beta= 0.10
     Davidson diagonalization with overlap

---- Real-time Memory Report at c_bands before calling an iterative solver
          3497 MiB given to the printing process from OS
         -1523 MiB allocation reported by mallinfo(arena+hblkhd)
         55323 MiB available memory on the node where the printing process lives
     GPU memory used/free/total (MiB): 2540 / 13740 / 16280
------------------
     ethr =  2.27E-05,  avg # of iterations =  6.9

     negative rho (up, down):  1.767E+00 1.022E-01

     total cpu time spent up to now is      384.8 secs

     total energy              =   -3374.27102607 Ry
     estimated scf accuracy    <       2.98475754 Ry

     total magnetization       =    -0.00 Bohr mag/cell
     absolute magnetization    =     4.91 Bohr mag/cell
[tb_dev] Currently allocated     9.33E+00 Mbytes, locked:    0 /  11
[tb_pin] Currently allocated     0.00E+00 Mbytes, locked:    0 /   0

     iteration # 47     ecut=    35.00 Ry     beta= 0.10
     Davidson diagonalization with overlap

---- Real-time Memory Report at c_bands before calling an iterative solver
          3515 MiB given to the printing process from OS
         -1499 MiB allocation reported by mallinfo(arena+hblkhd)
         55296 MiB available memory on the node where the printing process lives
     GPU memory used/free/total (MiB): 2540 / 13740 / 16280
------------------
     ethr =  2.27E-05,  avg # of iterations =  6.0

     negative rho (up, down):  1.749E+00 1.475E-01

     total cpu time spent up to now is      395.3 secs

     total energy              =   -3374.27201915 Ry
     estimated scf accuracy    <       0.38688941 Ry

     total magnetization       =    -0.00 Bohr mag/cell
     absolute magnetization    =     3.20 Bohr mag/cell
[tb_dev] Currently allocated     9.33E+00 Mbytes, locked:    0 /  11
[tb_pin] Currently allocated     0.00E+00 Mbytes, locked:    0 /   0

     iteration # 48     ecut=    35.00 Ry     beta= 0.10
     Davidson diagonalization with overlap

---- Real-time Memory Report at c_bands before calling an iterative solver
          3537 MiB given to the printing process from OS
         -1482 MiB allocation reported by mallinfo(arena+hblkhd)
         55283 MiB available memory on the node where the printing process lives
     GPU memory used/free/total (MiB): 2540 / 13740 / 16280
------------------
     ethr =  2.27E-05,  avg # of iterations =  6.0

     negative rho (up, down):  1.756E+00 1.249E-01

     total cpu time spent up to now is      405.9 secs

     total energy              =   -3374.28536372 Ry
     estimated scf accuracy    <       0.58606307 Ry

     total magnetization       =     0.00 Bohr mag/cell
     absolute magnetization    =     3.23 Bohr mag/cell
[tb_dev] Currently allocated     9.33E+00 Mbytes, locked:    0 /  11
[tb_pin] Currently allocated     0.00E+00 Mbytes, locked:    0 /   0

     iteration # 49     ecut=    35.00 Ry     beta= 0.10
     Davidson diagonalization with overlap

---- Real-time Memory Report at c_bands before calling an iterative solver
          3554 MiB given to the printing process from OS
         -1465 MiB allocation reported by mallinfo(arena+hblkhd)
         55261 MiB available memory on the node where the printing process lives
     GPU memory used/free/total (MiB): 2540 / 13740 / 16280
------------------
     ethr =  2.27E-05,  avg # of iterations =  3.6

     negative rho (up, down):  1.759E+00 1.254E-01

     total cpu time spent up to now is      414.1 secs

     total energy              =   -3374.28696933 Ry
     estimated scf accuracy    <       0.21490649 Ry

     total magnetization       =     0.00 Bohr mag/cell
     absolute magnetization    =     3.20 Bohr mag/cell
[tb_dev] Currently allocated     9.33E+00 Mbytes, locked:    0 /  11
[tb_pin] Currently allocated     0.00E+00 Mbytes, locked:    0 /   0

     iteration # 50     ecut=    35.00 Ry     beta= 0.10
     Davidson diagonalization with overlap

---- Real-time Memory Report at c_bands before calling an iterative solver
          3571 MiB given to the printing process from OS
         -1448 MiB allocation reported by mallinfo(arena+hblkhd)
         55244 MiB available memory on the node where the printing process lives
     GPU memory used/free/total (MiB): 2540 / 13740 / 16280
------------------
     ethr =  2.27E-05,  avg # of iterations =  1.3

     negative rho (up, down):  1.758E+00 1.296E-01

     total cpu time spent up to now is      421.1 secs

     total energy              =   -3374.28816152 Ry
     estimated scf accuracy    <       0.18261042 Ry

     total magnetization       =    -0.00 Bohr mag/cell
     absolute magnetization    =     3.27 Bohr mag/cell
[tb_dev] Currently allocated     9.33E+00 Mbytes, locked:    0 /  11
[tb_pin] Currently allocated     0.00E+00 Mbytes, locked:    0 /   0

     iteration # 51     ecut=    35.00 Ry     beta= 0.10
     Davidson diagonalization with overlap

---- Real-time Memory Report at c_bands before calling an iterative solver
          3589 MiB given to the printing process from OS
         -1429 MiB allocation reported by mallinfo(arena+hblkhd)
         55229 MiB available memory on the node where the printing process lives
     GPU memory used/free/total (MiB): 2540 / 13740 / 16280
------------------
     ethr =  2.27E-05,  avg # of iterations =  1.0

     negative rho (up, down):  1.755E+00 1.332E-01

     total cpu time spent up to now is      427.8 secs

     total energy              =   -3374.28933497 Ry
     estimated scf accuracy    <       0.20248947 Ry

     total magnetization       =    -0.00 Bohr mag/cell
     absolute magnetization    =     3.25 Bohr mag/cell
[tb_dev] Currently allocated     9.33E+00 Mbytes, locked:    0 /  11
[tb_pin] Currently allocated     0.00E+00 Mbytes, locked:    0 /   0

     iteration # 52     ecut=    35.00 Ry     beta= 0.10
     Davidson diagonalization with overlap

---- Real-time Memory Report at c_bands before calling an iterative solver
          3608 MiB given to the printing process from OS
         -1408 MiB allocation reported by mallinfo(arena+hblkhd)
         55208 MiB available memory on the node where the printing process lives
     GPU memory used/free/total (MiB): 2540 / 13740 / 16280
------------------
     ethr =  2.27E-05,  avg # of iterations =  1.1

     negative rho (up, down):  1.756E+00 1.315E-01

     total cpu time spent up to now is      434.6 secs

     total energy              =   -3374.28902740 Ry
     estimated scf accuracy    <       0.25746581 Ry

     total magnetization       =    -0.00 Bohr mag/cell
     absolute magnetization    =     3.09 Bohr mag/cell
[tb_dev] Currently allocated     9.33E+00 Mbytes, locked:    0 /  11
[tb_pin] Currently allocated     0.00E+00 Mbytes, locked:    0 /   0

     iteration # 53     ecut=    35.00 Ry     beta= 0.10
     Davidson diagonalization with overlap

---- Real-time Memory Report at c_bands before calling an iterative solver
          3628 MiB given to the printing process from OS
         -1388 MiB allocation reported by mallinfo(arena+hblkhd)
         55185 MiB available memory on the node where the printing process lives
     GPU memory used/free/total (MiB): 2540 / 13740 / 16280
------------------
     ethr =  2.27E-05,  avg # of iterations =  1.0

     negative rho (up, down):  1.756E+00 1.325E-01

     total cpu time spent up to now is      441.3 secs

     total energy              =   -3374.28907357 Ry
     estimated scf accuracy    <       0.24162848 Ry

     total magnetization       =     0.00 Bohr mag/cell
     absolute magnetization    =     3.10 Bohr mag/cell
[tb_dev] Currently allocated     9.33E+00 Mbytes, locked:    0 /  11
[tb_pin] Currently allocated     0.00E+00 Mbytes, locked:    0 /   0

     iteration # 54     ecut=    35.00 Ry     beta= 0.10
     Davidson diagonalization with overlap

---- Real-time Memory Report at c_bands before calling an iterative solver
          3645 MiB given to the printing process from OS
         -1372 MiB allocation reported by mallinfo(arena+hblkhd)
         55172 MiB available memory on the node where the printing process lives
     GPU memory used/free/total (MiB): 2540 / 13740 / 16280
------------------
     ethr =  2.27E-05,  avg # of iterations =  1.0

     negative rho (up, down):  1.760E+00 1.275E-01

     total cpu time spent up to now is      447.9 secs

     total energy              =   -3374.28723445 Ry
     estimated scf accuracy    <       0.25464557 Ry

     total magnetization       =    -0.00 Bohr mag/cell
     absolute magnetization    =     3.08 Bohr mag/cell
[tb_dev] Currently allocated     9.33E+00 Mbytes, locked:    0 /  11
[tb_pin] Currently allocated     0.00E+00 Mbytes, locked:    0 /   0

     iteration # 55     ecut=    35.00 Ry     beta= 0.10
     Davidson diagonalization with overlap

---- Real-time Memory Report at c_bands before calling an iterative solver
          3665 MiB given to the printing process from OS
         -1355 MiB allocation reported by mallinfo(arena+hblkhd)
         55151 MiB available memory on the node where the printing process lives
     GPU memory used/free/total (MiB): 2540 / 13740 / 16280
------------------
     ethr =  2.27E-05,  avg # of iterations =  1.5

     negative rho (up, down):  1.779E+00 1.031E-01

     total cpu time spent up to now is      454.9 secs

     total energy              =   -3374.27370950 Ry
     estimated scf accuracy    <       0.18565120 Ry

     total magnetization       =    -0.00 Bohr mag/cell
     absolute magnetization    =     3.23 Bohr mag/cell
[tb_dev] Currently allocated     9.33E+00 Mbytes, locked:    0 /  11
[tb_pin] Currently allocated     0.00E+00 Mbytes, locked:    0 /   0

     iteration # 56     ecut=    35.00 Ry     beta= 0.10
     Davidson diagonalization with overlap

---- Real-time Memory Report at c_bands before calling an iterative solver
          3682 MiB given to the printing process from OS
         -1338 MiB allocation reported by mallinfo(arena+hblkhd)
         55136 MiB available memory on the node where the printing process lives
     GPU memory used/free/total (MiB): 2540 / 13740 / 16280
------------------
     ethr =  2.27E-05,  avg # of iterations =  4.2

     negative rho (up, down):  1.767E+00 1.125E-01

     total cpu time spent up to now is      464.1 secs

     total energy              =   -3374.27881042 Ry
     estimated scf accuracy    <       0.54461439 Ry

     total magnetization       =     0.00 Bohr mag/cell
     absolute magnetization    =     5.86 Bohr mag/cell
[tb_dev] Currently allocated     9.33E+00 Mbytes, locked:    0 /  11
[tb_pin] Currently allocated     0.00E+00 Mbytes, locked:    0 /   0

     iteration # 57     ecut=    35.00 Ry     beta= 0.10
     Davidson diagonalization with overlap

---- Real-time Memory Report at c_bands before calling an iterative solver
          3700 MiB given to the printing process from OS
         -1319 MiB allocation reported by mallinfo(arena+hblkhd)
         55114 MiB available memory on the node where the printing process lives
     GPU memory used/free/total (MiB): 2540 / 13740 / 16280
------------------
     ethr =  2.27E-05,  avg # of iterations =  3.7

     negative rho (up, down):  1.766E+00 1.127E-01

     total cpu time spent up to now is      472.9 secs

     total energy              =   -3374.28651718 Ry
     estimated scf accuracy    <       0.00692746 Ry

     total magnetization       =     0.00 Bohr mag/cell
     absolute magnetization    =     3.89 Bohr mag/cell
[tb_dev] Currently allocated     9.33E+00 Mbytes, locked:    0 /  11
[tb_pin] Currently allocated     0.00E+00 Mbytes, locked:    0 /   0

     iteration # 58     ecut=    35.00 Ry     beta= 0.10
     Davidson diagonalization with overlap

---- Real-time Memory Report at c_bands before calling an iterative solver
          3719 MiB given to the printing process from OS
         -1302 MiB allocation reported by mallinfo(arena+hblkhd)
         55097 MiB available memory on the node where the printing process lives
     GPU memory used/free/total (MiB): 2540 / 13740 / 16280
------------------
     ethr =  7.22E-06,  avg # of iterations =  1.1

     negative rho (up, down):  1.769E+00 1.108E-01

     total cpu time spent up to now is      479.6 secs

     total energy              =   -3374.28681205 Ry
     estimated scf accuracy    <       0.00763842 Ry

     total magnetization       =    -0.00 Bohr mag/cell
     absolute magnetization    =     3.86 Bohr mag/cell
[tb_dev] Currently allocated     9.33E+00 Mbytes, locked:    0 /  11
[tb_pin] Currently allocated     0.00E+00 Mbytes, locked:    0 /   0

     iteration # 59     ecut=    35.00 Ry     beta= 0.10
     Davidson diagonalization with overlap

---- Real-time Memory Report at c_bands before calling an iterative solver
          3735 MiB given to the printing process from OS
         -1281 MiB allocation reported by mallinfo(arena+hblkhd)
         55081 MiB available memory on the node where the printing process lives
     GPU memory used/free/total (MiB): 2540 / 13740 / 16280
------------------
     ethr =  7.22E-06,  avg # of iterations =  1.1

     negative rho (up, down):  1.773E+00 1.115E-01

     total cpu time spent up to now is      486.2 secs

     total energy              =   -3374.28700814 Ry
     estimated scf accuracy    <       0.01099649 Ry

     total magnetization       =    -0.00 Bohr mag/cell
     absolute magnetization    =     3.89 Bohr mag/cell
[tb_dev] Currently allocated     9.33E+00 Mbytes, locked:    0 /  11
[tb_pin] Currently allocated     0.00E+00 Mbytes, locked:    0 /   0

     iteration # 60     ecut=    35.00 Ry     beta= 0.10
     Davidson diagonalization with overlap

---- Real-time Memory Report at c_bands before calling an iterative solver
          3754 MiB given to the printing process from OS
         -1264 MiB allocation reported by mallinfo(arena+hblkhd)
         55056 MiB available memory on the node where the printing process lives
     GPU memory used/free/total (MiB): 2540 / 13740 / 16280
------------------
     ethr =  7.22E-06,  avg # of iterations =  2.6

     negative rho (up, down):  1.762E+00 1.261E-01

     total cpu time spent up to now is      493.8 secs

     total energy              =   -3374.28420323 Ry
     estimated scf accuracy    <       0.02906015 Ry

     total magnetization       =     0.00 Bohr mag/cell
     absolute magnetization    =     4.29 Bohr mag/cell
[tb_dev] Currently allocated     9.33E+00 Mbytes, locked:    0 /  11
[tb_pin] Currently allocated     0.00E+00 Mbytes, locked:    0 /   0

     iteration # 61     ecut=    35.00 Ry     beta= 0.10
     Davidson diagonalization with overlap

---- Real-time Memory Report at c_bands before calling an iterative solver
          3775 MiB given to the printing process from OS
         -1238 MiB allocation reported by mallinfo(arena+hblkhd)
         55034 MiB available memory on the node where the printing process lives
     GPU memory used/free/total (MiB): 2540 / 13740 / 16280
------------------
     ethr =  7.22E-06,  avg # of iterations =  4.0

     negative rho (up, down):  1.779E+00 9.818E-02

     total cpu time spent up to now is      502.8 secs

[...]
     GPU memory used/free/total (MiB): 2540 / 13740 / 16280
------------------
     ethr =  6.96E-06,  avg # of iterations =  3.2

     negative rho (up, down):  1.773E+00 1.073E-01

     total cpu time spent up to now is      541.6 secs

     total energy              =   -3374.28622134 Ry
     estimated scf accuracy    <       0.00977365 Ry

     total magnetization       =    -0.00 Bohr mag/cell
     absolute magnetization    =     3.80 Bohr mag/cell
[tb_dev] Currently allocated     9.33E+00 Mbytes, locked:    0 /  11
[tb_pin] Currently allocated     0.00E+00 Mbytes, locked:    0 /   0

     iteration # 66     ecut=    35.00 Ry     beta= 0.10
     Davidson diagonalization with overlap

---- Real-time Memory Report at c_bands before calling an iterative solver
          3868 MiB given to the printing process from OS
         -1150 MiB allocation reported by mallinfo(arena+hblkhd)
         54944 MiB available memory on the node where the printing process lives
     GPU memory used/free/total (MiB): 2540 / 13740 / 16280
------------------
     ethr =  6.96E-06,  avg # of iterations =  5.6

     negative rho (up, down):  1.769E+00 1.232E-01

     total cpu time spent up to now is      551.6 secs

     total energy              =   -3374.27980008 Ry
     estimated scf accuracy    <       0.28056999 Ry

     total magnetization       =    -0.00 Bohr mag/cell
     absolute magnetization    =     4.82 Bohr mag/cell
[tb_dev] Currently allocated     9.33E+00 Mbytes, locked:    0 /  11
[tb_pin] Currently allocated     0.00E+00 Mbytes, locked:    0 /   0

     iteration # 67     ecut=    35.00 Ry     beta= 0.10
     Davidson diagonalization with overlap

---- Real-time Memory Report at c_bands before calling an iterative solver
          3885 MiB given to the printing process from OS
         -1134 MiB allocation reported by mallinfo(arena+hblkhd)
         54929 MiB available memory on the node where the printing process lives
     GPU memory used/free/total (MiB): 2540 / 13740 / 16280
------------------
     ethr =  6.96E-06,  avg # of iterations =  6.0

     negative rho (up, down):  1.767E+00 1.129E-01

     total cpu time spent up to now is      562.1 secs

     total energy              =   -3374.28611549 Ry
     estimated scf accuracy    <       0.04305446 Ry

     total magnetization       =     0.00 Bohr mag/cell
     absolute magnetization    =     4.04 Bohr mag/cell
[tb_dev] Currently allocated     9.33E+00 Mbytes, locked:    0 /  11
[tb_pin] Currently allocated     0.00E+00 Mbytes, locked:    0 /   0

     iteration # 68     ecut=    35.00 Ry     beta= 0.10
     Davidson diagonalization with overlap

---- Real-time Memory Report at c_bands before calling an iterative solver
          3904 MiB given to the printing process from OS
         -1117 MiB allocation reported by mallinfo(arena+hblkhd)
         54912 MiB available memory on the node where the printing process lives
     GPU memory used/free/total (MiB): 2540 / 13740 / 16280
------------------
     ethr =  6.96E-06,  avg # of iterations =  5.3

     negative rho (up, down):  1.765E+00 1.231E-01

     total cpu time spent up to now is      572.1 secs

     total energy              =   -3374.28615526 Ry
     estimated scf accuracy    <       0.04884984 Ry

     total magnetization       =     0.00 Bohr mag/cell
     absolute magnetization    =     3.79 Bohr mag/cell
[tb_dev] Currently allocated     9.33E+00 Mbytes, locked:    0 /  11
[tb_pin] Currently allocated     0.00E+00 Mbytes, locked:    0 /   0

     iteration # 69     ecut=    35.00 Ry     beta= 0.10
     Davidson diagonalization with overlap

---- Real-time Memory Report at c_bands before calling an iterative solver
          3921 MiB given to the printing process from OS
         -1096 MiB allocation reported by mallinfo(arena+hblkhd)
         54892 MiB available memory on the node where the printing process lives
     GPU memory used/free/total (MiB): 2540 / 13740 / 16280
------------------
     ethr =  6.96E-06,  avg # of iterations =  5.3

     negative rho (up, down):  1.766E+00 1.223E-01

     total cpu time spent up to now is      581.5 secs

     total energy              =   -3374.28785709 Ry
     estimated scf accuracy    <       0.01648517 Ry

     total magnetization       =    -0.00 Bohr mag/cell
     absolute magnetization    =     4.03 Bohr mag/cell
[tb_dev] Currently allocated     9.33E+00 Mbytes, locked:    0 /  11
[tb_pin] Currently allocated     0.00E+00 Mbytes, locked:    0 /   0

     iteration # 70     ecut=    35.00 Ry     beta= 0.10
     Davidson diagonalization with overlap

---- Real-time Memory Report at c_bands before calling an iterative solver
          3941 MiB given to the printing process from OS
         -1079 MiB allocation reported by mallinfo(arena+hblkhd)
         54874 MiB available memory on the node where the printing process lives
     GPU memory used/free/total (MiB): 2540 / 13740 / 16280
------------------
     ethr =  6.96E-06,  avg # of iterations =  1.0

     negative rho (up, down):  1.766E+00 1.201E-01

     total cpu time spent up to now is      588.1 secs

     total energy              =   -3374.28804391 Ry
     estimated scf accuracy    <       0.01372115 Ry

     total magnetization       =     0.00 Bohr mag/cell
     absolute magnetization    =     4.09 Bohr mag/cell
[tb_dev] Currently allocated     9.33E+00 Mbytes, locked:    0 /  11
[tb_pin] Currently allocated     0.00E+00 Mbytes, locked:    0 /   0

     iteration # 71     ecut=    35.00 Ry     beta= 0.10
     Davidson diagonalization with overlap

---- Real-time Memory Report at c_bands before calling an iterative solver
          3961 MiB given to the printing process from OS
         -1061 MiB allocation reported by mallinfo(arena+hblkhd)
         54859 MiB available memory on the node where the printing process lives
     GPU memory used/free/total (MiB): 2540 / 13740 / 16280
------------------
     ethr =  6.96E-06,  avg # of iterations =  1.5

     negative rho (up, down):  1.766E+00 1.191E-01

     total cpu time spent up to now is      595.0 secs

     total energy              =   -3374.28772316 Ry
     estimated scf accuracy    <       0.00551752 Ry

     total magnetization       =     0.00 Bohr mag/cell
     absolute magnetization    =     4.19 Bohr mag/cell
[tb_dev] Currently allocated     9.33E+00 Mbytes, locked:    0 /  11
[tb_pin] Currently allocated     0.00E+00 Mbytes, locked:    0 /   0

     iteration # 72     ecut=    35.00 Ry     beta= 0.10
     Davidson diagonalization with overlap

---- Real-time Memory Report at c_bands before calling an iterative solver
          3978 MiB given to the printing process from OS
         -1044 MiB allocation reported by mallinfo(arena+hblkhd)
         54834 MiB available memory on the node where the printing process lives
     GPU memory used/free/total (MiB): 2540 / 13740 / 16280
------------------
     ethr =  5.75E-06,  avg # of iterations =  1.0

     negative rho (up, down):  1.765E+00 1.171E-01

     total cpu time spent up to now is      601.6 secs

     total energy              =   -3374.28769954 Ry
     estimated scf accuracy    <       0.00394464 Ry

     total magnetization       =     0.00 Bohr mag/cell
     absolute magnetization    =     4.14 Bohr mag/cell
[tb_dev] Currently allocated     9.33E+00 Mbytes, locked:    0 /  11
[tb_pin] Currently allocated     0.00E+00 Mbytes, locked:    0 /   0

     iteration # 73     ecut=    35.00 Ry     beta= 0.10
     Davidson diagonalization with overlap

---- Real-time Memory Report at c_bands before calling an iterative solver
          3996 MiB given to the printing process from OS
         -1023 MiB allocation reported by mallinfo(arena+hblkhd)
         54817 MiB available memory on the node where the printing process lives
     GPU memory used/free/total (MiB): 2540 / 13740 / 16280
------------------
     ethr =  4.11E-06,  avg # of iterations =  1.5

     negative rho (up, down):  1.766E+00 1.180E-01

     total cpu time spent up to now is      608.6 secs

     total energy              =   -3374.28799571 Ry
     estimated scf accuracy    <       0.00252085 Ry

     total magnetization       =     0.00 Bohr mag/cell
     absolute magnetization    =     3.94 Bohr mag/cell
[tb_dev] Currently allocated     9.33E+00 Mbytes, locked:    0 /  11
[tb_pin] Currently allocated     0.00E+00 Mbytes, locked:    0 /   0

     iteration # 74     ecut=    35.00 Ry     beta= 0.10
     Davidson diagonalization with overlap

---- Real-time Memory Report at c_bands before calling an iterative solver
          4012 MiB given to the printing process from OS
         -1006 MiB allocation reported by mallinfo(arena+hblkhd)
         54796 MiB available memory on the node where the printing process lives
     GPU memory used/free/total (MiB): 2540 / 13740 / 16280
------------------
     ethr =  2.63E-06,  avg # of iterations =  1.5

     negative rho (up, down):  1.765E+00 1.179E-01

     total cpu time spent up to now is      615.7 secs

     total energy              =   -3374.28807222 Ry
     estimated scf accuracy    <       0.00129244 Ry

     total magnetization       =    -0.00 Bohr mag/cell
     absolute magnetization    =     4.02 Bohr mag/cell
[tb_dev] Currently allocated     9.33E+00 Mbytes, locked:    0 /  11
[tb_pin] Currently allocated     0.00E+00 Mbytes, locked:    0 /   0

     iteration # 75     ecut=    35.00 Ry     beta= 0.10
     Davidson diagonalization with overlap

---- Real-time Memory Report at c_bands before calling an iterative solver
          4030 MiB given to the printing process from OS
          -987 MiB allocation reported by mallinfo(arena+hblkhd)
         54781 MiB available memory on the node where the printing process lives
     GPU memory used/free/total (MiB): 2540 / 13740 / 16280
------------------
     ethr =  1.35E-06,  avg # of iterations =  1.0

     negative rho (up, down):  1.766E+00 1.170E-01

     total cpu time spent up to now is      622.4 secs

     total energy              =   -3374.28801263 Ry
     estimated scf accuracy    <       0.00189946 Ry

     total magnetization       =    -0.00 Bohr mag/cell
     absolute magnetization    =     4.00 Bohr mag/cell
[tb_dev] Currently allocated     9.33E+00 Mbytes, locked:    0 /  11
[tb_pin] Currently allocated     0.00E+00 Mbytes, locked:    0 /   0

     iteration # 76     ecut=    35.00 Ry     beta= 0.10
     Davidson diagonalization with overlap

---- Real-time Memory Report at c_bands before calling an iterative solver
          4050 MiB given to the printing process from OS
          -971 MiB allocation reported by mallinfo(arena+hblkhd)
         54768 MiB available memory on the node where the printing process lives
     GPU memory used/free/total (MiB): 2540 / 13740 / 16280
------------------
     ethr =  1.35E-06,  avg # of iterations =  1.5

     negative rho (up, down):  1.766E+00 1.163E-01

     total cpu time spent up to now is      629.3 secs

     total energy              =   -3374.28801196 Ry
     estimated scf accuracy    <       0.00055284 Ry

     total magnetization       =    -0.00 Bohr mag/cell
     absolute magnetization    =     4.03 Bohr mag/cell
[tb_dev] Currently allocated     9.33E+00 Mbytes, locked:    0 /  11
[tb_pin] Currently allocated     0.00E+00 Mbytes, locked:    0 /   0

     iteration # 77     ecut=    35.00 Ry     beta= 0.10
     Davidson diagonalization with overlap

---- Real-time Memory Report at c_bands before calling an iterative solver
          4069 MiB given to the printing process from OS
          -950 MiB allocation reported by mallinfo(arena+hblkhd)
         54745 MiB available memory on the node where the printing process lives
     GPU memory used/free/total (MiB): 2540 / 13740 / 16280
------------------
     ethr =  5.76E-07,  avg # of iterations =  2.1

     negative rho (up, down):  1.766E+00 1.172E-01

     total cpu time spent up to now is      636.6 secs

     total energy              =   -3374.28812856 Ry
     estimated scf accuracy    <       0.00137782 Ry

     total magnetization       =    -0.00 Bohr mag/cell
     absolute magnetization    =     3.99 Bohr mag/cell
[tb_dev] Currently allocated     9.33E+00 Mbytes, locked:    0 /  11
[tb_pin] Currently allocated     0.00E+00 Mbytes, locked:    0 /   0

     iteration # 78     ecut=    35.00 Ry     beta= 0.10
     Davidson diagonalization with overlap

---- Real-time Memory Report at c_bands before calling an iterative solver
          4086 MiB given to the printing process from OS
          -933 MiB allocation reported by mallinfo(arena+hblkhd)
         54728 MiB available memory on the node where the printing process lives
     GPU memory used/free/total (MiB): 2540 / 13740 / 16280
------------------
     ethr =  5.76E-07,  avg # of iterations =  4.3

     negative rho (up, down):  1.766E+00 1.183E-01

     total cpu time spent up to now is      645.3 secs

     total energy              =   -3374.28834799 Ry
     estimated scf accuracy    <       0.00139661 Ry

     total magnetization       =    -0.00 Bohr mag/cell
     absolute magnetization    =     4.16 Bohr mag/cell
[tb_dev] Currently allocated     9.33E+00 Mbytes, locked:    0 /  11
[tb_pin] Currently allocated     0.00E+00 Mbytes, locked:    0 /   0

     iteration # 79     ecut=    35.00 Ry     beta= 0.10
     Davidson diagonalization with overlap

---- Real-time Memory Report at c_bands before calling an iterative solver
          4107 MiB given to the printing process from OS
          -914 MiB allocation reported by mallinfo(arena+hblkhd)
         54709 MiB available memory on the node where the printing process lives
     GPU memory used/free/total (MiB): 2540 / 13740 / 16280
------------------
     ethr =  5.76E-07,  avg # of iterations =  1.5

     negative rho (up, down):  1.764E+00 1.190E-01

     total cpu time spent up to now is      652.3 secs

     total energy              =   -3374.28830523 Ry
     estimated scf accuracy    <       0.00034000 Ry

     total magnetization       =    -0.00 Bohr mag/cell
     absolute magnetization    =     4.15 Bohr mag/cell
[tb_dev] Currently allocated     9.33E+00 Mbytes, locked:    0 /  11
[tb_pin] Currently allocated     0.00E+00 Mbytes, locked:    0 /   0

     iteration # 80     ecut=    35.00 Ry     beta= 0.10
     Davidson diagonalization with overlap

---- Real-time Memory Report at c_bands before calling an iterative solver
          4124 MiB given to the printing process from OS
          -893 MiB allocation reported by mallinfo(arena+hblkhd)
         54691 MiB available memory on the node where the printing process lives
     GPU memory used/free/total (MiB): 2540 / 13740 / 16280
------------------
     ethr =  3.54E-07,  avg # of iterations =  3.4

     negative rho (up, down):  1.763E+00 1.188E-01

     total cpu time spent up to now is      660.5 secs

     total energy              =   -3374.28833657 Ry
     estimated scf accuracy    <       0.00144307 Ry

     total magnetization       =     0.00 Bohr mag/cell
     absolute magnetization    =     4.03 Bohr mag/cell

     End of self-consistent calculation

     convergence NOT achieved after  80 iterations: stopping

     Writing config to output data dir ./out/aiida.save/
 
     init_run     :     37.73s CPU      5.54s WALL (       1 calls)
     electrons    :   2237.32s CPU    654.10s WALL (       1 calls)

     Called by init_run:
     wfcinit      :      0.43s CPU      0.43s WALL (       1 calls)
                                        0.43s GPU  (       1 calls)
     potinit      :     23.37s CPU      2.29s WALL (       1 calls)
     hinit0       :      8.76s CPU      2.00s WALL (       1 calls)

     Called by electrons:
     c_bands      :    465.74s CPU    420.30s WALL (      80 calls)
     sum_band     :     71.44s CPU     78.06s WALL (      80 calls)
     v_of_rho     :     34.66s CPU      3.17s WALL (      81 calls)
     v_h          :      5.23s CPU      0.47s WALL (      81 calls)
     v_xc         :     29.42s CPU      2.71s WALL (      81 calls)
     newd         :     75.54s CPU      7.29s WALL (      81 calls)
                                        7.29s GPU  (      81 calls)
     PAW_pot      :   1552.76s CPU    141.10s WALL (      81 calls)
     mix_rho      :     45.75s CPU      5.19s WALL (      80 calls)

     Called by c_bands:
     init_us_2    :     28.69s CPU     29.45s WALL (   14400 calls)
     init_us_2:gp :     28.40s CPU     29.20s WALL (   14400 calls)
     cegterg      :    385.28s CPU    349.60s WALL (    7200 calls)

     Called by sum_band:
     sum_band:wei :      0.04s CPU      0.05s WALL (      80 calls)
                                        0.05s GPU  (      80 calls)
     sum_band:loo :     61.62s CPU     67.97s WALL (      80 calls)
                                       67.97s GPU  (      80 calls)
     sum_band:buf :     19.60s CPU     20.41s WALL (    7200 calls)
                                       20.37s GPU  (    7200 calls)
     sum_band:ini :     11.91s CPU     14.41s WALL (    7200 calls)
                                       14.37s GPU  (    7200 calls)
     sum_band:cal :      0.21s CPU      2.75s WALL (    7200 calls)
                                        2.25s GPU  (    7200 calls)
     sum_band:bec :      2.29s CPU      2.50s WALL (    7200 calls)
                                        2.45s GPU  (    7200 calls)
     addusdens    :      6.72s CPU      6.93s WALL (      80 calls)
                                        6.93s GPU  (      80 calls)
     addusd:skk   :      0.04s CPU      0.05s WALL (     240 calls)
                                        0.05s GPU  (     240 calls)

     Called by *egterg:
     cdiaghg      :    145.45s CPU    142.57s WALL (   29270 calls)
                                      142.37s GPU  (   29270 calls)
     cegterg:over :      7.88s CPU      7.14s WALL (   22160 calls)
     cegterg:upda :     12.87s CPU     11.67s WALL (   22160 calls)
     cegterg:last :      5.92s CPU      5.28s WALL (   12979 calls)
     h_psi        :    184.74s CPU    158.93s WALL (   29360 calls)
                                      158.52s GPU  (   29360 calls)
     s_psi        :      5.69s CPU     12.08s WALL (   29360 calls)
                                       11.27s GPU  (   29360 calls)
     g_psi        :      0.19s CPU      1.03s WALL (   22160 calls)
                                        0.89s GPU  (   22160 calls)

     Called by h_psi:
     h_psi:calbec :      1.17s CPU      7.77s WALL (   29360 calls)
                                        7.58s GPU  (   29360 calls)
     vloc_psi     :    155.89s CPU    134.23s WALL (   29360 calls)
                                      134.04s GPU  (   29360 calls)
     add_vuspsi   :      9.71s CPU     14.23s WALL (   29360 calls)
                                       14.04s GPU  (   29360 calls)

     General routines
     calbec       :      1.01s CPU      0.90s WALL (   36560 calls)
     fft          :      2.71s CPU      0.53s WALL (    2023 calls)
                                        0.42s GPU  (    1861 calls)
     ffts         :      0.12s CPU      0.04s WALL (     322 calls)
                                        0.01s GPU  (     160 calls)
     fftw         :      4.15s CPU    106.09s WALL (  178194 calls)
                                      105.02s GPU  (  178194 calls)
     interpolate  :      4.70s CPU      0.41s WALL (     162 calls)
     davcio       :      0.41s CPU      1.24s WALL (     198 calls)
 
     Parallel routines

     PAW routines
     PAW_pot      :   1552.76s CPU    141.10s WALL (      81 calls)
     PAW_symme    :      0.58s CPU      0.09s WALL (     160 calls)
 
     PWSCF        :  37m58.02s CPU  11m 1.49s WALL

 
   This run was terminated on:  22:32:25  23Oct2023            

=------------------------------------------------------------------------------=
   JOB DONE.
=------------------------------------------------------------------------------=
