
     Program PWSCF v.7.2 starts on 23Oct2023 at 18:13:17 

     This program is part of the open-source Quantum ESPRESSO suite
     for quantum simulation of materials; please cite
         "P. Giannozzi et al., J. Phys.:Condens. Matter 21 395502 (2009);
         "P. Giannozzi et al., J. Phys.:Condens. Matter 29 465901 (2017);
         "P. Giannozzi et al., J. Chem. Phys. 152 154105 (2020);
          URL http://www.quantum-espresso.org", 
     in publications or presentations arising from this work. More details at
     http://www.quantum-espresso.org/quote

     Parallel version (MPI & OpenMP), running on      12 processor cores
     Number of MPI processes:                 1
     Threads/MPI process:                    12

     MPI processes distributed on     1 nodes
     60275 MiB available memory on the printing compute node when the environment starts
 
     Reading input from aiida.in

     Current dimensions of program PWSCF are:
     Max number of different atomic species (ntypx) = 10
     Max number of k-points (npk) =  40000
     Max angular momentum in pseudopotentials (lmaxx) =  4
     Message from routine setup:
     using ibrav=0 with symmetry is DISCOURAGED, use correct ibrav instead
 
     Subspace diagonalization in iterative solution of the eigenvalue problem:
     a serial algorithm will be used

 
     G-vector sticks info
     --------------------
     sticks:   dense  smooth     PW     G-vecs:    dense   smooth      PW
     Sum        2147    1069    373                44205    15665    3139
 
     Using Slab Decomposition
 


     bravais-lattice index     =            0
     lattice parameter (alat)  =      13.7347  a.u.
     unit-cell volume          =     458.4485 (a.u.)^3
     number of atoms/cell      =            4
     number of atomic types    =            3
     number of electrons       =        34.00
     number of Kohn-Sham states=           21
     kinetic-energy cutoff     =      40.0000  Ry
     charge density cutoff     =     320.0000  Ry
     scf convergence threshold =      8.0E-10
     mixing beta               =       0.2000
     number of iterations used =            8  plain     mixing
     Exchange-correlation= SLA  PW   PSX  PSC
                           (   1   4  10   8   0   0   0)

     GPU acceleration is ACTIVE.


     GPU used by master process:

        Device Number: 0
        Device name: Tesla P100-PCIE-16GB
        Compute capability : 60
        Ratio of single to double precision performance  : 2
        Memory Clock Rate (KHz): 715000
        Memory Bus Width (bits): 4096
        Peak Memory Bandwidth (GB/s): 732.16

     celldm(1)=  13.734719  celldm(2)=   0.000000  celldm(3)=   0.000000
     celldm(4)=   0.000000  celldm(5)=   0.000000  celldm(6)=   0.000000

     crystal axes: (cart. coord. in units of alat)
               a(1) = (   0.230184   0.132897   0.964030 )  
               a(2) = (  -0.230184   0.132897   0.964030 )  
               a(3) = (   0.000000  -0.265794   0.964030 )  

     reciprocal axes: (cart. coord. in units 2 pi/alat)
               b(1) = (  2.172176  1.254106  0.345771 )  
               b(2) = ( -2.172176  1.254106  0.345771 )  
               b(3) = (  0.000000 -2.508213  0.345771 )  


     PseudoPot. # 1 for Na read from file:
     ./pseudo/na_pbesol_v1.5.uspp.F.UPF
     MD5 check sum: 164b46c7694b4bc5b1217b5d1ae6f423
     Pseudo is Ultrasoft, Zval =  9.0
     Generated by new atomic code, or converted to UPF format
     Using radial grid of  819 points,  5 beta functions with: 
                l(1) =   0
                l(2) =   0
                l(3) =   1
                l(4) =   1
                l(5) =   2
     Q(r) pseudized with  8 coefficients,  rinner =    1.250   1.250   1.250
                                                       1.250   1.250

     PseudoPot. # 2 for S  read from file:
     ./pseudo/s_pbesol_v1.4.uspp.F.UPF
     MD5 check sum: 0ccfa86ec6eb59065d10aaae963ef2a7
     Pseudo is Ultrasoft + core correction, Zval =  6.0
     Generated by new atomic code, or converted to UPF format
     Using radial grid of  907 points,  6 beta functions with: 
                l(1) =   0
                l(2) =   0
                l(3) =   1
                l(4) =   1
                l(5) =   2
                l(6) =   2
     Q(r) pseudized with  8 coefficients,  rinner =    1.300   1.300   1.300
                                                       1.300   1.300

     PseudoPot. # 3 for V  read from file:
     ./pseudo/v_pbesol_v1.4.uspp.F.UPF
     MD5 check sum: 72fa7d0034c41d8adc50bbc8c632b9f9
     Pseudo is Ultrasoft + core correction, Zval = 13.0
     Generated by new atomic code, or converted to UPF format
     Using radial grid of  853 points,  6 beta functions with: 
                l(1) =   0
                l(2) =   0
                l(3) =   1
                l(4) =   1
                l(5) =   2
                l(6) =   2
     Q(r) pseudized with  8 coefficients,  rinner =    1.100   1.100   1.100
                                                       1.100   1.100

     atomic species   valence    mass     pseudopotential
        Na             9.00    22.98977     Na( 1.00)
        S              6.00    32.06500     S ( 1.00)
        V             13.00    50.94150     V ( 1.00)

     Starting magnetic structure 
     atomic species   magnetization
        Na           0.100
        S            0.100
        V            0.385

      6 Sym. Ops. (no inversion) found


                                    s                        frac. trans.

      isym =  1     identity                                     

 cryst.   s( 1) = (     1          0          0      )
                  (     0          1          0      )
                  (     0          0          1      )

 cart.    s( 1) = (  1.0000000 -0.0000000 -0.0000000 )
                  (  0.0000000  1.0000000 -0.0000000 )
                  (  0.0000000  0.0000000  1.0000000 )


      isym =  2     120 deg rotation - cryst. axis [0,0,1]       

 cryst.   s( 2) = (     0          1          0      )
                  (     0          0          1      )
                  (     1          0          0      )

 cart.    s( 2) = ( -0.5000000 -0.8660254  0.0000000 )
                  (  0.8660254 -0.5000000  0.0000000 )
                  (  0.0000000 -0.0000000  1.0000000 )


      isym =  3     120 deg rotation - cryst. axis [0,0,-1]      

 cryst.   s( 3) = (     0          0          1      )
                  (     1          0          0      )
                  (     0          1          0      )

 cart.    s( 3) = ( -0.5000000  0.8660254 -0.0000000 )
                  ( -0.8660254 -0.5000000  0.0000000 )
                  ( -0.0000000 -0.0000000  1.0000000 )


      isym =  4     inv. 180 deg rotation - cart. axis [1,0,0]   

 cryst.   s( 4) = (     0          1          0      )
                  (     1          0          0      )
                  (     0          0          1      )

 cart.    s( 4) = ( -1.0000000 -0.0000000 -0.0000000 )
                  ( -0.0000000  1.0000000 -0.0000000 )
                  ( -0.0000000  0.0000000  1.0000000 )


      isym =  5     inv. 180 deg rotation - cryst. axis [0,1,0]  

 cryst.   s( 5) = (     1          0          0      )
                  (     0          0          1      )
                  (     0          1          0      )

 cart.    s( 5) = (  0.5000000  0.8660254 -0.0000000 )
                  (  0.8660254 -0.5000000  0.0000000 )
                  (  0.0000000 -0.0000000  1.0000000 )


      isym =  6     inv. 180 deg rotation - cryst. axis [1,1,0]  

 cryst.   s( 6) = (     0          0          1      )
                  (     0          1          0      )
                  (     1          0          0      )

 cart.    s( 6) = (  0.5000000 -0.8660254  0.0000000 )
                  ( -0.8660254 -0.5000000  0.0000000 )
                  ( -0.0000000 -0.0000000  1.0000000 )


   Cartesian axes

     site n.     atom                  positions (alat units)
         1           Na  tau(   1) = (   0.2301839   0.1328968   0.4723747  )
         2           V   tau(   2) = (   0.0000000  -0.0000000  -0.0000000  )
         3           S   tau(   3) = (  -0.0000000   0.2657935   0.1928060  )
         4           S   tau(   4) = (  -0.0000000   0.2657935   0.8001449  )

   Crystallographic axes

     site n.     atom                  positions (cryst. coord.)
         1           Na  tau(   1) = (  0.8300000 -0.1700000 -0.1700000  )
         2           V   tau(   2) = (  0.0000000 -0.0000000  0.0000000  )
         3           S   tau(   3) = (  0.4000000  0.4000000 -0.6000000  )
         4           S   tau(   4) = (  0.6100000  0.6100000 -0.3900000  )

     number of k points=   344  Marzari-Vanderbilt smearing, width (Ry)=  0.0100
                       cart. coord. in units 2pi/alat
        k(    1) = (   0.0000000   0.0000000   0.0000000), wk =   0.0002963
        k(    2) = (   0.0000000  -0.1672142   0.0230514), wk =   0.0017778
        k(    3) = (   0.0000000  -0.3344283   0.0461028), wk =   0.0017778
        k(    4) = (   0.0000000  -0.5016425   0.0691541), wk =   0.0017778
        k(    5) = (   0.0000000  -0.6688567   0.0922055), wk =   0.0017778
        k(    6) = (   0.0000000  -0.8360709   0.1152569), wk =   0.0017778
        k(    7) = (   0.0000000  -1.0032850   0.1383083), wk =   0.0017778
        k(    8) = (   0.0000000  -1.1704992   0.1613597), wk =   0.0017778
        k(    9) = (  -0.1448117  -0.0836071   0.0461028), wk =   0.0017778
        k(   10) = (  -0.1448117  -0.2508213   0.0691541), wk =   0.0035556
        k(   11) = (  -0.1448117  -0.4180354   0.0922055), wk =   0.0035556
        k(   12) = (  -0.1448117  -0.5852496   0.1152569), wk =   0.0035556
        k(   13) = (  -0.1448117  -0.7524638   0.1383083), wk =   0.0035556
        k(   14) = (  -0.1448117  -0.9196780   0.1613597), wk =   0.0035556
        k(   15) = (  -0.1448117  -1.0868921   0.1844110), wk =   0.0035556
        k(   16) = (  -0.1448117   1.2541063  -0.1383083), wk =   0.0035556
        k(   17) = (  -0.1448117   1.0868921  -0.1152569), wk =   0.0035556
        k(   18) = (  -0.1448117   0.9196780  -0.0922055), wk =   0.0035556
        k(   19) = (  -0.1448117   0.7524638  -0.0691541), wk =   0.0035556
        k(   20) = (  -0.1448117   0.5852496  -0.0461028), wk =   0.0035556
        k(   21) = (  -0.1448117   0.4180354  -0.0230514), wk =   0.0035556
        k(   22) = (  -0.1448117   0.2508213  -0.0000000), wk =   0.0017778
        k(   23) = (  -0.2896234  -0.1672142   0.0922055), wk =   0.0017778
        k(   24) = (  -0.2896234  -0.3344283   0.1152569), wk =   0.0035556
        k(   25) = (  -0.2896234  -0.5016425   0.1383083), wk =   0.0035556
        k(   26) = (  -0.2896234  -0.6688567   0.1613597), wk =   0.0035556
        k(   27) = (  -0.2896234  -0.8360709   0.1844110), wk =   0.0035556
        k(   28) = (  -0.2896234  -1.0032850   0.2074624), wk =   0.0035556
        k(   29) = (  -0.2896234   1.3377134  -0.1152569), wk =   0.0035556
        k(   30) = (  -0.2896234   1.1704992  -0.0922055), wk =   0.0035556
        k(   31) = (  -0.2896234   1.0032850  -0.0691541), wk =   0.0035556
        k(   32) = (  -0.2896234   0.8360709  -0.0461028), wk =   0.0035556
        k(   33) = (  -0.2896234   0.6688567  -0.0230514), wk =   0.0035556
        k(   34) = (  -0.2896234   0.5016425  -0.0000000), wk =   0.0017778
        k(   35) = (  -0.4344352  -0.2508213   0.1383083), wk =   0.0017778
        k(   36) = (  -0.4344352  -0.4180354   0.1613597), wk =   0.0035556
        k(   37) = (  -0.4344352  -0.5852496   0.1844110), wk =   0.0035556
        k(   38) = (  -0.4344352  -0.7524638   0.2074624), wk =   0.0035556
        k(   39) = (  -0.4344352  -0.9196780   0.2305138), wk =   0.0035556
        k(   40) = (  -0.4344352   1.4213205  -0.0922055), wk =   0.0035556
        k(   41) = (  -0.4344352   1.2541063  -0.0691541), wk =   0.0035556
        k(   42) = (  -0.4344352   1.0868921  -0.0461028), wk =   0.0035556
        k(   43) = (  -0.4344352   0.9196780  -0.0230514), wk =   0.0035556
        k(   44) = (  -0.4344352   0.7524638  -0.0000000), wk =   0.0017778
        k(   45) = (  -0.5792469  -0.3344283   0.1844110), wk =   0.0017778
        k(   46) = (  -0.5792469  -0.5016425   0.2074624), wk =   0.0035556
        k(   47) = (  -0.5792469  -0.6688567   0.2305138), wk =   0.0035556
        k(   48) = (  -0.5792469  -0.8360709   0.2535652), wk =   0.0035556
        k(   49) = (  -0.5792469   1.5049276  -0.0691541), wk =   0.0035556
        k(   50) = (  -0.5792469   1.3377134  -0.0461028), wk =   0.0035556
        k(   51) = (  -0.5792469   1.1704992  -0.0230514), wk =   0.0035556
        k(   52) = (  -0.5792469   1.0032850  -0.0000000), wk =   0.0017778
        k(   53) = (  -0.7240586  -0.4180354   0.2305138), wk =   0.0017778
        k(   54) = (  -0.7240586  -0.5852496   0.2535652), wk =   0.0035556
        k(   55) = (  -0.7240586  -0.7524638   0.2766166), wk =   0.0035556
        k(   56) = (  -0.7240586   1.5885347  -0.0461028), wk =   0.0035556
        k(   57) = (  -0.7240586   1.4213205  -0.0230514), wk =   0.0035556
        k(   58) = (  -0.7240586   1.2541063  -0.0000000), wk =   0.0017778
        k(   59) = (  -0.8688703  -0.5016425   0.2766166), wk =   0.0017778
        k(   60) = (  -0.8688703  -0.6688567   0.2996680), wk =   0.0035556
        k(   61) = (  -0.8688703   1.6721417  -0.0230514), wk =   0.0035556
        k(   62) = (  -0.8688703   1.5049276  -0.0000000), wk =   0.0017778
        k(   63) = (  -1.0136821  -0.5852496   0.3227193), wk =   0.0017778
        k(   64) = (  -1.0136821   1.7557488  -0.0000000), wk =   0.0017778
        k(   65) = (  -0.0000000  -0.0000000   0.0691541), wk =   0.0005926
        k(   66) = (  -0.0000000  -0.1672142   0.0922055), wk =   0.0017778
        k(   67) = (  -0.0000000  -0.3344283   0.1152569), wk =   0.0017778
        k(   68) = (  -0.0000000  -0.5016425   0.1383083), wk =   0.0017778
        k(   69) = (  -0.0000000  -0.6688567   0.1613597), wk =   0.0017778
        k(   70) = (  -0.0000000  -0.8360709   0.1844110), wk =   0.0017778
        k(   71) = (   0.0000000  -1.0032850   0.2074624), wk =   0.0017778
        k(   72) = (  -0.0000000   1.3377134  -0.1152569), wk =   0.0017778
        k(   73) = (  -0.0000000   1.1704992  -0.0922055), wk =   0.0017778
        k(   74) = (  -0.0000000   1.0032850  -0.0691541), wk =   0.0017778
        k(   75) = (  -0.0000000   0.8360709  -0.0461028), wk =   0.0017778
        k(   76) = (  -0.0000000   0.6688567  -0.0230514), wk =   0.0017778
        k(   77) = (  -0.0000000   0.5016425  -0.0000000), wk =   0.0017778
        k(   78) = (  -0.0000000   0.3344283   0.0230514), wk =   0.0017778
        k(   79) = (  -0.1448117  -0.0836071   0.1152569), wk =   0.0017778
        k(   80) = (  -0.1448117  -0.2508213   0.1383083), wk =   0.0035556
        k(   81) = (  -0.1448117  -0.4180354   0.1613597), wk =   0.0035556
        k(   82) = (  -0.1448117  -0.5852496   0.1844110), wk =   0.0035556
        k(   83) = (  -0.1448117  -0.7524638   0.2074624), wk =   0.0035556
        k(   84) = (  -0.1448117  -0.9196780   0.2305138), wk =   0.0035556
        k(   85) = (  -0.1448117   1.4213205  -0.0922055), wk =   0.0035556
        k(   86) = (  -0.1448117   1.2541063  -0.0691541), wk =   0.0035556
        k(   87) = (  -0.1448117   1.0868921  -0.0461028), wk =   0.0035556
        k(   88) = (  -0.1448117   0.9196780  -0.0230514), wk =   0.0035556
        k(   89) = (  -0.1448117   0.7524638  -0.0000000), wk =   0.0035556
        k(   90) = (  -0.1448117   0.5852496   0.0230514), wk =   0.0035556
        k(   91) = (  -0.1448117   0.4180354   0.0461028), wk =   0.0035556
        k(   92) = (  -0.2896234  -0.1672142   0.1613597), wk =   0.0017778
        k(   93) = (  -0.2896234  -0.3344283   0.1844110), wk =   0.0035556
        k(   94) = (  -0.2896234  -0.5016425   0.2074624), wk =   0.0035556
        k(   95) = (  -0.2896234  -0.6688567   0.2305138), wk =   0.0035556
        k(   96) = (  -0.2896234  -0.8360709   0.2535652), wk =   0.0035556
        k(   97) = (  -0.2896234   1.5049276  -0.0691541), wk =   0.0035556
        k(   98) = (  -0.2896234   1.3377134  -0.0461028), wk =   0.0035556
        k(   99) = (  -0.2896234   1.1704992  -0.0230514), wk =   0.0035556
        k(  100) = (  -0.2896234   1.0032850  -0.0000000), wk =   0.0035556
        k(  101) = (  -0.2896234   0.8360709   0.0230514), wk =   0.0035556
        k(  102) = (  -0.2896234   0.6688567   0.0461028), wk =   0.0035556
        k(  103) = (  -0.2896234   0.5016425   0.0691541), wk =   0.0035556
        k(  104) = (  -0.4344352  -0.2508213   0.2074624), wk =   0.0017778
        k(  105) = (  -0.4344352  -0.4180354   0.2305138), wk =   0.0035556
        k(  106) = (  -0.4344352  -0.5852496   0.2535652), wk =   0.0035556
        k(  107) = (  -0.4344352  -0.7524638   0.2766166), wk =   0.0035556
        k(  108) = (  -0.4344352   1.5885347  -0.0461028), wk =   0.0035556
        k(  109) = (  -0.4344352   1.4213205  -0.0230514), wk =   0.0035556
        k(  110) = (  -0.4344352   1.2541063  -0.0000000), wk =   0.0035556
        k(  111) = (  -0.4344352   1.0868921   0.0230514), wk =   0.0035556
        k(  112) = (  -0.4344352   0.9196780   0.0461028), wk =   0.0035556
        k(  113) = (  -0.4344352   0.7524638   0.0691541), wk =   0.0035556
        k(  114) = (  -0.4344352   0.5852496   0.0922055), wk =   0.0035556
        k(  115) = (  -0.5792469  -0.3344283   0.2535652), wk =   0.0017778
        k(  116) = (  -0.5792469  -0.5016425   0.2766166), wk =   0.0035556
        k(  117) = (  -0.5792469  -0.6688567   0.2996680), wk =   0.0035556
        k(  118) = (  -0.5792469   1.6721417  -0.0230514), wk =   0.0035556
        k(  119) = (  -0.5792469   1.5049276  -0.0000000), wk =   0.0035556
        k(  120) = (  -0.5792469   1.3377134   0.0230514), wk =   0.0035556
        k(  121) = (  -0.5792469   1.1704992   0.0461028), wk =   0.0035556
        k(  122) = (  -0.5792469   1.0032850   0.0691541), wk =   0.0035556
        k(  123) = (  -0.5792469   0.8360709   0.0922055), wk =   0.0035556
        k(  124) = (  -0.5792469   0.6688567   0.1152569), wk =   0.0035556
        k(  125) = (  -0.7240586  -0.4180354   0.2996680), wk =   0.0017778
        k(  126) = (  -0.7240586  -0.5852496   0.3227193), wk =   0.0035556
        k(  127) = (  -0.7240586   1.7557488  -0.0000000), wk =   0.0035556
        k(  128) = (  -0.7240586   1.5885347   0.0230514), wk =   0.0035556
        k(  129) = (  -0.7240586   1.4213205   0.0461028), wk =   0.0035556
        k(  130) = (  -0.7240586   1.2541063   0.0691541), wk =   0.0035556
        k(  131) = (  -0.7240586   1.0868921   0.0922055), wk =   0.0035556
        k(  132) = (  -0.7240586   0.9196780   0.1152569), wk =   0.0035556
        k(  133) = (  -0.7240586   0.7524638   0.1383083), wk =   0.0035556
        k(  134) = (  -0.8688703  -0.5016425   0.3457707), wk =   0.0017778
        k(  135) = (  -0.8688703   1.8393559   0.0230514), wk =   0.0035556
        k(  136) = (  -0.8688703   1.6721417   0.0461028), wk =   0.0035556
        k(  137) = (  -0.8688703   1.5049276   0.0691541), wk =   0.0035556
        k(  138) = (  -0.8688703   1.3377134   0.0922055), wk =   0.0035556
        k(  139) = (  -0.8688703   1.1704992   0.1152569), wk =   0.0035556
        k(  140) = (  -0.8688703   1.0032850   0.1383083), wk =   0.0035556
        k(  141) = (  -0.8688703   0.8360709   0.1613597), wk =   0.0035556
        k(  142) = (   1.1584938   0.6688567  -0.2996680), wk =   0.0017778
        k(  143) = (   1.1584938   0.5016425  -0.2766166), wk =   0.0035556
        k(  144) = (   1.1584938   0.3344283  -0.2535652), wk =   0.0035556
        k(  145) = (   1.1584938   0.1672142  -0.2305138), wk =   0.0035556
        k(  146) = (   1.1584938  -0.0000000  -0.2074624), wk =   0.0035556
        k(  147) = (   1.1584938  -0.1672142  -0.1844110), wk =   0.0035556
        k(  148) = (   1.0136821   0.5852496  -0.2535652), wk =   0.0017778
        k(  149) = (   1.0136821   0.4180354  -0.2305138), wk =   0.0035556
        k(  150) = (   1.0136821   0.2508213  -0.2074624), wk =   0.0035556
        k(  151) = (   1.0136821   0.0836071  -0.1844110), wk =   0.0035556
        k(  152) = (   1.0136821  -0.0836071  -0.1613597), wk =   0.0035556
        k(  153) = (   0.8688703   0.5016425  -0.2074624), wk =   0.0017778
        k(  154) = (   0.8688703   0.3344283  -0.1844110), wk =   0.0035556
        k(  155) = (   0.8688703   0.1672142  -0.1613597), wk =   0.0035556
        k(  156) = (   0.8688703  -0.0000000  -0.1383083), wk =   0.0035556
        k(  157) = (   0.7240586   0.4180354  -0.1613597), wk =   0.0017778
        k(  158) = (   0.7240586   0.2508213  -0.1383083), wk =   0.0035556
        k(  159) = (   0.7240586   0.0836071  -0.1152569), wk =   0.0035556
        k(  160) = (   0.5792469   0.3344283  -0.1152569), wk =   0.0017778
        k(  161) = (   0.5792469   0.1672142  -0.0922055), wk =   0.0035556
        k(  162) = (   0.4344352   0.2508213  -0.0691541), wk =   0.0017778
        k(  163) = (  -0.0000000  -0.0000000   0.1383083), wk =   0.0005926
        k(  164) = (  -0.0000000  -0.1672142   0.1613597), wk =   0.0017778
        k(  165) = (  -0.0000000  -0.3344283   0.1844110), wk =   0.0017778
        k(  166) = (  -0.0000000  -0.5016425   0.2074624), wk =   0.0017778
        k(  167) = (  -0.0000000  -0.6688567   0.2305138), wk =   0.0017778
        k(  168) = (  -0.0000000  -0.8360709   0.2535652), wk =   0.0017778
        k(  169) = (  -0.0000000   1.5049276  -0.0691541), wk =   0.0017778
        k(  170) = (  -0.0000000   1.3377134  -0.0461028), wk =   0.0017778
        k(  171) = (  -0.0000000   1.1704992  -0.0230514), wk =   0.0017778
        k(  172) = (  -0.0000000   1.0032850  -0.0000000), wk =   0.0017778
        k(  173) = (  -0.0000000   0.8360709   0.0230514), wk =   0.0017778
        k(  174) = (  -0.0000000   0.6688567   0.0461028), wk =   0.0017778
        k(  175) = (  -0.1448117  -0.0836071   0.1844110), wk =   0.0017778
        k(  176) = (  -0.1448117  -0.2508213   0.2074624), wk =   0.0035556
        k(  177) = (  -0.1448117  -0.4180354   0.2305138), wk =   0.0035556
        k(  178) = (  -0.1448117  -0.5852496   0.2535652), wk =   0.0035556
        k(  179) = (  -0.1448117  -0.7524638   0.2766166), wk =   0.0035556
        k(  180) = (  -0.1448117   1.5885347  -0.0461028), wk =   0.0035556
        k(  181) = (  -0.1448117   1.4213205  -0.0230514), wk =   0.0035556
        k(  182) = (  -0.1448117   1.2541063  -0.0000000), wk =   0.0035556
        k(  183) = (  -0.1448117   1.0868921   0.0230514), wk =   0.0035556
        k(  184) = (  -0.1448117   0.9196780   0.0461028), wk =   0.0035556
        k(  185) = (  -0.1448117   0.7524638   0.0691541), wk =   0.0035556
        k(  186) = (  -0.2896234  -0.1672142   0.2305138), wk =   0.0017778
        k(  187) = (  -0.2896234  -0.3344283   0.2535652), wk =   0.0035556
        k(  188) = (  -0.2896234  -0.5016425   0.2766166), wk =   0.0035556
        k(  189) = (  -0.2896234  -0.6688567   0.2996680), wk =   0.0035556
        k(  190) = (  -0.2896234   1.6721417  -0.0230514), wk =   0.0035556
        k(  191) = (  -0.2896234   1.5049276  -0.0000000), wk =   0.0035556
        k(  192) = (  -0.2896234   1.3377134   0.0230514), wk =   0.0035556
        k(  193) = (  -0.2896234   1.1704992   0.0461028), wk =   0.0035556
        k(  194) = (  -0.2896234   1.0032850   0.0691541), wk =   0.0035556
        k(  195) = (  -0.2896234   0.8360709   0.0922055), wk =   0.0035556
        k(  196) = (  -0.4344352  -0.2508213   0.2766166), wk =   0.0017778
        k(  197) = (  -0.4344352  -0.4180354   0.2996680), wk =   0.0035556
        k(  198) = (  -0.4344352  -0.5852496   0.3227193), wk =   0.0035556
        k(  199) = (  -0.4344352   1.7557488  -0.0000000), wk =   0.0035556
        k(  200) = (  -0.4344352   1.5885347   0.0230514), wk =   0.0035556
        k(  201) = (  -0.4344352   1.4213205   0.0461028), wk =   0.0035556
        k(  202) = (  -0.4344352   1.2541063   0.0691541), wk =   0.0035556
        k(  203) = (  -0.4344352   1.0868921   0.0922055), wk =   0.0035556
        k(  204) = (  -0.4344352   0.9196780   0.1152569), wk =   0.0035556
        k(  205) = (  -0.5792469  -0.3344283   0.3227193), wk =   0.0017778
        k(  206) = (  -0.5792469  -0.5016425   0.3457707), wk =   0.0035556
        k(  207) = (  -0.5792469   1.8393559   0.0230514), wk =   0.0035556
        k(  208) = (  -0.5792469   1.6721417   0.0461028), wk =   0.0035556
        k(  209) = (  -0.5792469   1.5049276   0.0691541), wk =   0.0035556
        k(  210) = (  -0.5792469   1.3377134   0.0922055), wk =   0.0035556
        k(  211) = (  -0.5792469   1.1704992   0.1152569), wk =   0.0035556
        k(  212) = (  -0.5792469   1.0032850   0.1383083), wk =   0.0035556
        k(  213) = (  -0.7240586  -0.4180354   0.3688221), wk =   0.0017778
        k(  214) = (  -0.7240586   1.9229630   0.0461028), wk =   0.0035556
        k(  215) = (  -0.7240586   1.7557488   0.0691541), wk =   0.0035556
        k(  216) = (  -0.7240586   1.5885347   0.0922055), wk =   0.0035556
        k(  217) = (  -0.7240586   1.4213205   0.1152569), wk =   0.0035556
        k(  218) = (  -0.7240586   1.2541063   0.1383083), wk =   0.0035556
        k(  219) = (  -0.7240586   1.0868921   0.1613597), wk =   0.0035556
        k(  220) = (   1.3033055   0.7524638  -0.2766166), wk =   0.0017778
        k(  221) = (   1.3033055   0.5852496  -0.2535652), wk =   0.0035556
        k(  222) = (   1.3033055   0.4180354  -0.2305138), wk =   0.0035556
        k(  223) = (   1.3033055   0.2508213  -0.2074624), wk =   0.0035556
        k(  224) = (   1.3033055   0.0836071  -0.1844110), wk =   0.0035556
        k(  225) = (   1.1584938   0.6688567  -0.2305138), wk =   0.0017778
        k(  226) = (   1.1584938   0.5016425  -0.2074624), wk =   0.0035556
        k(  227) = (   1.1584938   0.3344283  -0.1844110), wk =   0.0035556
        k(  228) = (   1.1584938   0.1672142  -0.1613597), wk =   0.0035556
        k(  229) = (   1.0136821   0.5852496  -0.1844110), wk =   0.0017778
        k(  230) = (   1.0136821   0.4180354  -0.1613597), wk =   0.0035556
        k(  231) = (   1.0136821   0.2508213  -0.1383083), wk =   0.0035556
        k(  232) = (   0.8688703   0.5016425  -0.1383083), wk =   0.0017778
        k(  233) = (   0.8688703   0.3344283  -0.1152569), wk =   0.0035556
        k(  234) = (   0.7240586   0.4180354  -0.0922055), wk =   0.0017778
        k(  235) = (   0.0000000  -0.0000000   0.2074624), wk =   0.0005926
        k(  236) = (   0.0000000  -0.1672142   0.2305138), wk =   0.0017778
        k(  237) = (   0.0000000  -0.3344283   0.2535652), wk =   0.0017778
        k(  238) = (   0.0000000  -0.5016425   0.2766166), wk =   0.0017778
        k(  239) = (   0.0000000  -0.6688567   0.2996680), wk =   0.0017778
        k(  240) = (  -0.0000000   1.6721417  -0.0230514), wk =   0.0017778
        k(  241) = (  -0.0000000   1.5049276  -0.0000000), wk =   0.0017778
        k(  242) = (  -0.0000000   1.3377134   0.0230514), wk =   0.0017778
        k(  243) = (  -0.0000000   1.1704992   0.0461028), wk =   0.0017778
        k(  244) = (  -0.0000000   1.0032850   0.0691541), wk =   0.0017778
        k(  245) = (  -0.1448117  -0.0836071   0.2535652), wk =   0.0017778
        k(  246) = (  -0.1448117  -0.2508213   0.2766166), wk =   0.0035556
        k(  247) = (  -0.1448117  -0.4180354   0.2996680), wk =   0.0035556
        k(  248) = (  -0.1448117  -0.5852496   0.3227193), wk =   0.0035556
        k(  249) = (  -0.1448117   1.7557488  -0.0000000), wk =   0.0035556
        k(  250) = (  -0.1448117   1.5885347   0.0230514), wk =   0.0035556
        k(  251) = (  -0.1448117   1.4213205   0.0461028), wk =   0.0035556
        k(  252) = (  -0.1448117   1.2541063   0.0691541), wk =   0.0035556
        k(  253) = (  -0.1448117   1.0868921   0.0922055), wk =   0.0035556
        k(  254) = (  -0.2896234  -0.1672142   0.2996680), wk =   0.0017778
        k(  255) = (  -0.2896234  -0.3344283   0.3227193), wk =   0.0035556
        k(  256) = (  -0.2896234  -0.5016425   0.3457707), wk =   0.0035556
        k(  257) = (  -0.2896234   1.8393559   0.0230514), wk =   0.0035556
        k(  258) = (  -0.2896234   1.6721417   0.0461028), wk =   0.0035556
        k(  259) = (  -0.2896234   1.5049276   0.0691541), wk =   0.0035556
        k(  260) = (  -0.2896234   1.3377134   0.0922055), wk =   0.0035556
        k(  261) = (  -0.2896234   1.1704992   0.1152569), wk =   0.0035556
        k(  262) = (  -0.4344352  -0.2508213   0.3457707), wk =   0.0017778
        k(  263) = (  -0.4344352  -0.4180354   0.3688221), wk =   0.0035556
        k(  264) = (  -0.4344352   1.9229630   0.0461028), wk =   0.0035556
        k(  265) = (  -0.4344352   1.7557488   0.0691541), wk =   0.0035556
        k(  266) = (  -0.4344352   1.5885347   0.0922055), wk =   0.0035556
        k(  267) = (  -0.4344352   1.4213205   0.1152569), wk =   0.0035556
        k(  268) = (  -0.4344352   1.2541063   0.1383083), wk =   0.0035556
        k(  269) = (  -0.5792469  -0.3344283   0.3918735), wk =   0.0017778
        k(  270) = (  -0.5792469   2.0065701   0.0691541), wk =   0.0035556
        k(  271) = (  -0.5792469   1.8393559   0.0922055), wk =   0.0035556
        k(  272) = (  -0.5792469   1.6721417   0.1152569), wk =   0.0035556
        k(  273) = (  -0.5792469   1.5049276   0.1383083), wk =   0.0035556
        k(  274) = (  -0.5792469   1.3377134   0.1613597), wk =   0.0035556
        k(  275) = (   1.4481172   0.8360709  -0.2535652), wk =   0.0017778
        k(  276) = (   1.4481172   0.6688567  -0.2305138), wk =   0.0035556
        k(  277) = (   1.4481172   0.5016425  -0.2074624), wk =   0.0035556
        k(  278) = (   1.4481172   0.3344283  -0.1844110), wk =   0.0035556
        k(  279) = (   1.3033055   0.7524638  -0.2074624), wk =   0.0017778
        k(  280) = (   1.3033055   0.5852496  -0.1844110), wk =   0.0035556
        k(  281) = (   1.3033055   0.4180354  -0.1613597), wk =   0.0035556
        k(  282) = (   1.1584938   0.6688567  -0.1613597), wk =   0.0017778
        k(  283) = (   1.1584938   0.5016425  -0.1383083), wk =   0.0035556
        k(  284) = (   1.0136821   0.5852496  -0.1152569), wk =   0.0017778
        k(  285) = (  -0.0000000  -0.0000000   0.2766166), wk =   0.0005926
        k(  286) = (  -0.0000000  -0.1672142   0.2996680), wk =   0.0017778
        k(  287) = (  -0.0000000  -0.3344283   0.3227193), wk =   0.0017778
        k(  288) = (  -0.0000000  -0.5016425   0.3457707), wk =   0.0017778
        k(  289) = (  -0.0000000   1.8393559   0.0230514), wk =   0.0017778
        k(  290) = (  -0.0000000   1.6721417   0.0461028), wk =   0.0017778
        k(  291) = (  -0.0000000   1.5049276   0.0691541), wk =   0.0017778
        k(  292) = (  -0.0000000   1.3377134   0.0922055), wk =   0.0017778
        k(  293) = (  -0.1448117  -0.0836071   0.3227193), wk =   0.0017778
        k(  294) = (  -0.1448117  -0.2508213   0.3457707), wk =   0.0035556
        k(  295) = (  -0.1448117  -0.4180354   0.3688221), wk =   0.0035556
        k(  296) = (  -0.1448117   1.9229630   0.0461028), wk =   0.0035556
        k(  297) = (  -0.1448117   1.7557488   0.0691541), wk =   0.0035556
        k(  298) = (  -0.1448117   1.5885347   0.0922055), wk =   0.0035556
        k(  299) = (  -0.1448117   1.4213205   0.1152569), wk =   0.0035556
        k(  300) = (  -0.2896234  -0.1672142   0.3688221), wk =   0.0017778
        k(  301) = (  -0.2896234  -0.3344283   0.3918735), wk =   0.0035556
        k(  302) = (  -0.2896234   2.0065701   0.0691541), wk =   0.0035556
        k(  303) = (  -0.2896234   1.8393559   0.0922055), wk =   0.0035556
        k(  304) = (  -0.2896234   1.6721417   0.1152569), wk =   0.0035556
        k(  305) = (  -0.2896234   1.5049276   0.1383083), wk =   0.0035556
        k(  306) = (  -0.4344352  -0.2508213   0.4149249), wk =   0.0017778
        k(  307) = (  -0.4344352   2.0901772   0.0922055), wk =   0.0035556
        k(  308) = (  -0.4344352   1.9229630   0.1152569), wk =   0.0035556
        k(  309) = (  -0.4344352   1.7557488   0.1383083), wk =   0.0035556
        k(  310) = (  -0.4344352   1.5885347   0.1613597), wk =   0.0035556
        k(  311) = (   1.5929290   0.9196780  -0.2305138), wk =   0.0017778
        k(  312) = (   1.5929290   0.7524638  -0.2074624), wk =   0.0035556
        k(  313) = (   1.5929290   0.5852496  -0.1844110), wk =   0.0035556
        k(  314) = (   1.4481172   0.8360709  -0.1844110), wk =   0.0017778
        k(  315) = (   1.4481172   0.6688567  -0.1613597), wk =   0.0035556
        k(  316) = (   1.3033055   0.7524638  -0.1383083), wk =   0.0017778
        k(  317) = (   0.0000000   0.0000000   0.3457707), wk =   0.0005926
        k(  318) = (   0.0000000  -0.1672142   0.3688221), wk =   0.0017778
        k(  319) = (   0.0000000  -0.3344283   0.3918735), wk =   0.0017778
        k(  320) = (   0.0000000   2.0065701   0.0691541), wk =   0.0017778
        k(  321) = (   0.0000000   1.8393559   0.0922055), wk =   0.0017778
        k(  322) = (   0.0000000   1.6721417   0.1152569), wk =   0.0017778
        k(  323) = (  -0.1448117  -0.0836071   0.3918735), wk =   0.0017778
        k(  324) = (  -0.1448117  -0.2508213   0.4149249), wk =   0.0035556
        k(  325) = (  -0.1448117   2.0901772   0.0922055), wk =   0.0035556
        k(  326) = (  -0.1448117   1.9229630   0.1152569), wk =   0.0035556
        k(  327) = (  -0.1448117   1.7557488   0.1383083), wk =   0.0035556
        k(  328) = (  -0.2896234  -0.1672142   0.4379762), wk =   0.0017778
        k(  329) = (  -0.2896234   2.1737843   0.1152569), wk =   0.0035556
        k(  330) = (  -0.2896234   2.0065701   0.1383083), wk =   0.0035556
        k(  331) = (  -0.2896234   1.8393559   0.1613597), wk =   0.0035556
        k(  332) = (   1.7377407   1.0032850  -0.2074624), wk =   0.0017778
        k(  333) = (   1.7377407   0.8360709  -0.1844110), wk =   0.0035556
        k(  334) = (   1.5929290   0.9196780  -0.1613597), wk =   0.0017778
        k(  335) = (   0.0000000  -0.0000000   0.4149249), wk =   0.0005926
        k(  336) = (   0.0000000  -0.1672142   0.4379762), wk =   0.0017778
        k(  337) = (  -0.0000000   2.1737843   0.1152569), wk =   0.0017778
        k(  338) = (  -0.0000000   2.0065701   0.1383083), wk =   0.0017778
        k(  339) = (  -0.1448117  -0.0836071   0.4610276), wk =   0.0017778
        k(  340) = (  -0.1448117   2.2573914   0.1383083), wk =   0.0035556
        k(  341) = (  -0.1448117   2.0901772   0.1613597), wk =   0.0035556
        k(  342) = (   1.8825524   1.0868921  -0.1844110), wk =   0.0017778
        k(  343) = (   0.0000000   0.0000000   0.4840790), wk =   0.0005926
        k(  344) = (   0.0000000   2.3409984   0.1613597), wk =   0.0017778

                       cryst. coord.
        k(    1) = (   0.0000000   0.0000000   0.0000000), wk =   0.0002963
        k(    2) = (  -0.0000000  -0.0000000   0.0666667), wk =   0.0017778
        k(    3) = (  -0.0000000  -0.0000000   0.1333333), wk =   0.0017778
        k(    4) = (   0.0000000   0.0000000   0.2000000), wk =   0.0017778
        k(    5) = (  -0.0000000  -0.0000000   0.2666667), wk =   0.0017778
        k(    6) = (  -0.0000000  -0.0000000   0.3333333), wk =   0.0017778
        k(    7) = (   0.0000000   0.0000000   0.4000000), wk =   0.0017778
        k(    8) = (   0.0000000  -0.0000000   0.4666667), wk =   0.0017778
        k(    9) = (   0.0000000   0.0666667   0.0666667), wk =   0.0017778
        k(   10) = (  -0.0000000   0.0666667   0.1333333), wk =   0.0035556
        k(   11) = (  -0.0000000   0.0666667   0.2000000), wk =   0.0035556
        k(   12) = (  -0.0000000   0.0666667   0.2666667), wk =   0.0035556
        k(   13) = (   0.0000000   0.0666667   0.3333333), wk =   0.0035556
        k(   14) = (   0.0000000   0.0666667   0.4000000), wk =   0.0035556
        k(   15) = (  -0.0000000   0.0666667   0.4666667), wk =   0.0035556
        k(   16) = (  -0.0000000   0.0666667  -0.4666667), wk =   0.0035556
        k(   17) = (   0.0000000   0.0666667  -0.4000000), wk =   0.0035556
        k(   18) = (   0.0000000   0.0666667  -0.3333333), wk =   0.0035556
        k(   19) = (  -0.0000000   0.0666667  -0.2666667), wk =   0.0035556
        k(   20) = (   0.0000000   0.0666667  -0.2000000), wk =   0.0035556
        k(   21) = (  -0.0000000   0.0666667  -0.1333333), wk =   0.0035556
        k(   22) = (  -0.0000000   0.0666667  -0.0666667), wk =   0.0017778
        k(   23) = (   0.0000000   0.1333333   0.1333333), wk =   0.0017778
        k(   24) = (  -0.0000000   0.1333333   0.2000000), wk =   0.0035556
        k(   25) = (  -0.0000000   0.1333333   0.2666667), wk =   0.0035556
        k(   26) = (   0.0000000   0.1333333   0.3333333), wk =   0.0035556
        k(   27) = (  -0.0000000   0.1333333   0.4000000), wk =   0.0035556
        k(   28) = (   0.0000000   0.1333333   0.4666667), wk =   0.0035556
        k(   29) = (  -0.0000000   0.1333333  -0.4666667), wk =   0.0035556
        k(   30) = (  -0.0000000   0.1333333  -0.4000000), wk =   0.0035556
        k(   31) = (   0.0000000   0.1333333  -0.3333333), wk =   0.0035556
        k(   32) = (  -0.0000000   0.1333333  -0.2666667), wk =   0.0035556
        k(   33) = (  -0.0000000   0.1333333  -0.2000000), wk =   0.0035556
        k(   34) = (  -0.0000000   0.1333333  -0.1333333), wk =   0.0017778
        k(   35) = (   0.0000000   0.2000000   0.2000000), wk =   0.0017778
        k(   36) = (  -0.0000000   0.2000000   0.2666667), wk =   0.0035556
        k(   37) = (   0.0000000   0.2000000   0.3333333), wk =   0.0035556
        k(   38) = (   0.0000000   0.2000000   0.4000000), wk =   0.0035556
        k(   39) = (  -0.0000000   0.2000000   0.4666667), wk =   0.0035556
        k(   40) = (   0.0000000   0.2000000  -0.4666667), wk =   0.0035556
        k(   41) = (  -0.0000000   0.2000000  -0.4000000), wk =   0.0035556
        k(   42) = (  -0.0000000   0.2000000  -0.3333333), wk =   0.0035556
        k(   43) = (  -0.0000000   0.2000000  -0.2666667), wk =   0.0035556
        k(   44) = (  -0.0000000   0.2000000  -0.2000000), wk =   0.0017778
        k(   45) = (   0.0000000   0.2666667   0.2666667), wk =   0.0017778
        k(   46) = (  -0.0000000   0.2666667   0.3333333), wk =   0.0035556
        k(   47) = (  -0.0000000   0.2666667   0.4000000), wk =   0.0035556
        k(   48) = (  -0.0000000   0.2666667   0.4666667), wk =   0.0035556
        k(   49) = (  -0.0000000   0.2666667  -0.4666667), wk =   0.0035556
        k(   50) = (  -0.0000000   0.2666667  -0.4000000), wk =   0.0035556
        k(   51) = (  -0.0000000   0.2666667  -0.3333333), wk =   0.0035556
        k(   52) = (  -0.0000000   0.2666667  -0.2666667), wk =   0.0017778
        k(   53) = (  -0.0000000   0.3333333   0.3333333), wk =   0.0017778
        k(   54) = (  -0.0000000   0.3333333   0.4000000), wk =   0.0035556
        k(   55) = (  -0.0000000   0.3333333   0.4666667), wk =   0.0035556
        k(   56) = (  -0.0000000   0.3333333  -0.4666667), wk =   0.0035556
        k(   57) = (  -0.0000000   0.3333333  -0.4000000), wk =   0.0035556
        k(   58) = (  -0.0000000   0.3333333  -0.3333333), wk =   0.0017778
        k(   59) = (   0.0000000   0.4000000   0.4000000), wk =   0.0017778
        k(   60) = (  -0.0000000   0.4000000   0.4666667), wk =   0.0035556
        k(   61) = (  -0.0000000   0.4000000  -0.4666667), wk =   0.0035556
        k(   62) = (  -0.0000000   0.4000000  -0.4000000), wk =   0.0017778
        k(   63) = (  -0.0000000   0.4666667   0.4666667), wk =   0.0017778
        k(   64) = (  -0.0000000   0.4666667  -0.4666667), wk =   0.0017778
        k(   65) = (   0.0666667   0.0666667   0.0666667), wk =   0.0005926
        k(   66) = (   0.0666667   0.0666667   0.1333333), wk =   0.0017778
        k(   67) = (   0.0666667   0.0666667   0.2000000), wk =   0.0017778
        k(   68) = (   0.0666667   0.0666667   0.2666667), wk =   0.0017778
        k(   69) = (   0.0666667   0.0666667   0.3333333), wk =   0.0017778
        k(   70) = (   0.0666667   0.0666667   0.4000000), wk =   0.0017778
        k(   71) = (   0.0666667   0.0666667   0.4666667), wk =   0.0017778
        k(   72) = (   0.0666667   0.0666667  -0.4666667), wk =   0.0017778
        k(   73) = (   0.0666667   0.0666667  -0.4000000), wk =   0.0017778
        k(   74) = (   0.0666667   0.0666667  -0.3333333), wk =   0.0017778
        k(   75) = (   0.0666667   0.0666667  -0.2666667), wk =   0.0017778
        k(   76) = (   0.0666667   0.0666667  -0.2000000), wk =   0.0017778
        k(   77) = (   0.0666667   0.0666667  -0.1333333), wk =   0.0017778
        k(   78) = (   0.0666667   0.0666667  -0.0666667), wk =   0.0017778
        k(   79) = (   0.0666667   0.1333333   0.1333333), wk =   0.0017778
        k(   80) = (   0.0666667   0.1333333   0.2000000), wk =   0.0035556
        k(   81) = (   0.0666667   0.1333333   0.2666667), wk =   0.0035556
        k(   82) = (   0.0666667   0.1333333   0.3333333), wk =   0.0035556
        k(   83) = (   0.0666667   0.1333333   0.4000000), wk =   0.0035556
        k(   84) = (   0.0666667   0.1333333   0.4666667), wk =   0.0035556
        k(   85) = (   0.0666667   0.1333333  -0.4666667), wk =   0.0035556
        k(   86) = (   0.0666667   0.1333333  -0.4000000), wk =   0.0035556
        k(   87) = (   0.0666667   0.1333333  -0.3333333), wk =   0.0035556
        k(   88) = (   0.0666667   0.1333333  -0.2666667), wk =   0.0035556
        k(   89) = (   0.0666667   0.1333333  -0.2000000), wk =   0.0035556
        k(   90) = (   0.0666667   0.1333333  -0.1333333), wk =   0.0035556
        k(   91) = (   0.0666667   0.1333333  -0.0666667), wk =   0.0035556
        k(   92) = (   0.0666667   0.2000000   0.2000000), wk =   0.0017778
        k(   93) = (   0.0666667   0.2000000   0.2666667), wk =   0.0035556
        k(   94) = (   0.0666667   0.2000000   0.3333333), wk =   0.0035556
        k(   95) = (   0.0666667   0.2000000   0.4000000), wk =   0.0035556
        k(   96) = (   0.0666667   0.2000000   0.4666667), wk =   0.0035556
        k(   97) = (   0.0666667   0.2000000  -0.4666667), wk =   0.0035556
        k(   98) = (   0.0666667   0.2000000  -0.4000000), wk =   0.0035556
        k(   99) = (   0.0666667   0.2000000  -0.3333333), wk =   0.0035556
        k(  100) = (   0.0666667   0.2000000  -0.2666667), wk =   0.0035556
        k(  101) = (   0.0666667   0.2000000  -0.2000000), wk =   0.0035556
        k(  102) = (   0.0666667   0.2000000  -0.1333333), wk =   0.0035556
        k(  103) = (   0.0666667   0.2000000  -0.0666667), wk =   0.0035556
        k(  104) = (   0.0666667   0.2666667   0.2666667), wk =   0.0017778
        k(  105) = (   0.0666667   0.2666667   0.3333333), wk =   0.0035556
        k(  106) = (   0.0666667   0.2666667   0.4000000), wk =   0.0035556
        k(  107) = (   0.0666667   0.2666667   0.4666667), wk =   0.0035556
        k(  108) = (   0.0666667   0.2666667  -0.4666667), wk =   0.0035556
        k(  109) = (   0.0666667   0.2666667  -0.4000000), wk =   0.0035556
        k(  110) = (   0.0666667   0.2666667  -0.3333333), wk =   0.0035556
        k(  111) = (   0.0666667   0.2666667  -0.2666667), wk =   0.0035556
        k(  112) = (   0.0666667   0.2666667  -0.2000000), wk =   0.0035556
        k(  113) = (   0.0666667   0.2666667  -0.1333333), wk =   0.0035556
        k(  114) = (   0.0666667   0.2666667  -0.0666667), wk =   0.0035556
        k(  115) = (   0.0666667   0.3333333   0.3333333), wk =   0.0017778
        k(  116) = (   0.0666667   0.3333333   0.4000000), wk =   0.0035556
        k(  117) = (   0.0666667   0.3333333   0.4666667), wk =   0.0035556
        k(  118) = (   0.0666667   0.3333333  -0.4666667), wk =   0.0035556
        k(  119) = (   0.0666667   0.3333333  -0.4000000), wk =   0.0035556
        k(  120) = (   0.0666667   0.3333333  -0.3333333), wk =   0.0035556
        k(  121) = (   0.0666667   0.3333333  -0.2666667), wk =   0.0035556
        k(  122) = (   0.0666667   0.3333333  -0.2000000), wk =   0.0035556
        k(  123) = (   0.0666667   0.3333333  -0.1333333), wk =   0.0035556
        k(  124) = (   0.0666667   0.3333333  -0.0666667), wk =   0.0035556
        k(  125) = (   0.0666667   0.4000000   0.4000000), wk =   0.0017778
        k(  126) = (   0.0666667   0.4000000   0.4666667), wk =   0.0035556
        k(  127) = (   0.0666667   0.4000000  -0.4666667), wk =   0.0035556
        k(  128) = (   0.0666667   0.4000000  -0.4000000), wk =   0.0035556
        k(  129) = (   0.0666667   0.4000000  -0.3333333), wk =   0.0035556
        k(  130) = (   0.0666667   0.4000000  -0.2666667), wk =   0.0035556
        k(  131) = (   0.0666667   0.4000000  -0.2000000), wk =   0.0035556
        k(  132) = (   0.0666667   0.4000000  -0.1333333), wk =   0.0035556
        k(  133) = (   0.0666667   0.4000000  -0.0666667), wk =   0.0035556
        k(  134) = (   0.0666667   0.4666667   0.4666667), wk =   0.0017778
        k(  135) = (   0.0666667   0.4666667  -0.4666667), wk =   0.0035556
        k(  136) = (   0.0666667   0.4666667  -0.4000000), wk =   0.0035556
        k(  137) = (   0.0666667   0.4666667  -0.3333333), wk =   0.0035556
        k(  138) = (   0.0666667   0.4666667  -0.2666667), wk =   0.0035556
        k(  139) = (   0.0666667   0.4666667  -0.2000000), wk =   0.0035556
        k(  140) = (   0.0666667   0.4666667  -0.1333333), wk =   0.0035556
        k(  141) = (   0.0666667   0.4666667  -0.0666667), wk =   0.0035556
        k(  142) = (   0.0666667  -0.4666667  -0.4666667), wk =   0.0017778
        k(  143) = (   0.0666667  -0.4666667  -0.4000000), wk =   0.0035556
        k(  144) = (   0.0666667  -0.4666667  -0.3333333), wk =   0.0035556
        k(  145) = (   0.0666667  -0.4666667  -0.2666667), wk =   0.0035556
        k(  146) = (   0.0666667  -0.4666667  -0.2000000), wk =   0.0035556
        k(  147) = (   0.0666667  -0.4666667  -0.1333333), wk =   0.0035556
        k(  148) = (   0.0666667  -0.4000000  -0.4000000), wk =   0.0017778
        k(  149) = (   0.0666667  -0.4000000  -0.3333333), wk =   0.0035556
        k(  150) = (   0.0666667  -0.4000000  -0.2666667), wk =   0.0035556
        k(  151) = (   0.0666667  -0.4000000  -0.2000000), wk =   0.0035556
        k(  152) = (   0.0666667  -0.4000000  -0.1333333), wk =   0.0035556
        k(  153) = (   0.0666667  -0.3333333  -0.3333333), wk =   0.0017778
        k(  154) = (   0.0666667  -0.3333333  -0.2666667), wk =   0.0035556
        k(  155) = (   0.0666667  -0.3333333  -0.2000000), wk =   0.0035556
        k(  156) = (   0.0666667  -0.3333333  -0.1333333), wk =   0.0035556
        k(  157) = (   0.0666667  -0.2666667  -0.2666667), wk =   0.0017778
        k(  158) = (   0.0666667  -0.2666667  -0.2000000), wk =   0.0035556
        k(  159) = (   0.0666667  -0.2666667  -0.1333333), wk =   0.0035556
        k(  160) = (   0.0666667  -0.2000000  -0.2000000), wk =   0.0017778
        k(  161) = (   0.0666667  -0.2000000  -0.1333333), wk =   0.0035556
        k(  162) = (   0.0666667  -0.1333333  -0.1333333), wk =   0.0017778
        k(  163) = (   0.1333333   0.1333333   0.1333333), wk =   0.0005926
        k(  164) = (   0.1333333   0.1333333   0.2000000), wk =   0.0017778
        k(  165) = (   0.1333333   0.1333333   0.2666667), wk =   0.0017778
        k(  166) = (   0.1333333   0.1333333   0.3333333), wk =   0.0017778
        k(  167) = (   0.1333333   0.1333333   0.4000000), wk =   0.0017778
        k(  168) = (   0.1333333   0.1333333   0.4666667), wk =   0.0017778
        k(  169) = (   0.1333333   0.1333333  -0.4666667), wk =   0.0017778
        k(  170) = (   0.1333333   0.1333333  -0.4000000), wk =   0.0017778
        k(  171) = (   0.1333333   0.1333333  -0.3333333), wk =   0.0017778
        k(  172) = (   0.1333333   0.1333333  -0.2666667), wk =   0.0017778
        k(  173) = (   0.1333333   0.1333333  -0.2000000), wk =   0.0017778
        k(  174) = (   0.1333333   0.1333333  -0.1333333), wk =   0.0017778
        k(  175) = (   0.1333333   0.2000000   0.2000000), wk =   0.0017778
        k(  176) = (   0.1333333   0.2000000   0.2666667), wk =   0.0035556
        k(  177) = (   0.1333333   0.2000000   0.3333333), wk =   0.0035556
        k(  178) = (   0.1333333   0.2000000   0.4000000), wk =   0.0035556
        k(  179) = (   0.1333333   0.2000000   0.4666667), wk =   0.0035556
        k(  180) = (   0.1333333   0.2000000  -0.4666667), wk =   0.0035556
        k(  181) = (   0.1333333   0.2000000  -0.4000000), wk =   0.0035556
        k(  182) = (   0.1333333   0.2000000  -0.3333333), wk =   0.0035556
        k(  183) = (   0.1333333   0.2000000  -0.2666667), wk =   0.0035556
        k(  184) = (   0.1333333   0.2000000  -0.2000000), wk =   0.0035556
        k(  185) = (   0.1333333   0.2000000  -0.1333333), wk =   0.0035556
        k(  186) = (   0.1333333   0.2666667   0.2666667), wk =   0.0017778
        k(  187) = (   0.1333333   0.2666667   0.3333333), wk =   0.0035556
        k(  188) = (   0.1333333   0.2666667   0.4000000), wk =   0.0035556
        k(  189) = (   0.1333333   0.2666667   0.4666667), wk =   0.0035556
        k(  190) = (   0.1333333   0.2666667  -0.4666667), wk =   0.0035556
        k(  191) = (   0.1333333   0.2666667  -0.4000000), wk =   0.0035556
        k(  192) = (   0.1333333   0.2666667  -0.3333333), wk =   0.0035556
        k(  193) = (   0.1333333   0.2666667  -0.2666667), wk =   0.0035556
        k(  194) = (   0.1333333   0.2666667  -0.2000000), wk =   0.0035556
        k(  195) = (   0.1333333   0.2666667  -0.1333333), wk =   0.0035556
        k(  196) = (   0.1333333   0.3333333   0.3333333), wk =   0.0017778
        k(  197) = (   0.1333333   0.3333333   0.4000000), wk =   0.0035556
        k(  198) = (   0.1333333   0.3333333   0.4666667), wk =   0.0035556
        k(  199) = (   0.1333333   0.3333333  -0.4666667), wk =   0.0035556
        k(  200) = (   0.1333333   0.3333333  -0.4000000), wk =   0.0035556
        k(  201) = (   0.1333333   0.3333333  -0.3333333), wk =   0.0035556
        k(  202) = (   0.1333333   0.3333333  -0.2666667), wk =   0.0035556
        k(  203) = (   0.1333333   0.3333333  -0.2000000), wk =   0.0035556
        k(  204) = (   0.1333333   0.3333333  -0.1333333), wk =   0.0035556
        k(  205) = (   0.1333333   0.4000000   0.4000000), wk =   0.0017778
        k(  206) = (   0.1333333   0.4000000   0.4666667), wk =   0.0035556
        k(  207) = (   0.1333333   0.4000000  -0.4666667), wk =   0.0035556
        k(  208) = (   0.1333333   0.4000000  -0.4000000), wk =   0.0035556
        k(  209) = (   0.1333333   0.4000000  -0.3333333), wk =   0.0035556
        k(  210) = (   0.1333333   0.4000000  -0.2666667), wk =   0.0035556
        k(  211) = (   0.1333333   0.4000000  -0.2000000), wk =   0.0035556
        k(  212) = (   0.1333333   0.4000000  -0.1333333), wk =   0.0035556
        k(  213) = (   0.1333333   0.4666667   0.4666667), wk =   0.0017778
        k(  214) = (   0.1333333   0.4666667  -0.4666667), wk =   0.0035556
        k(  215) = (   0.1333333   0.4666667  -0.4000000), wk =   0.0035556
        k(  216) = (   0.1333333   0.4666667  -0.3333333), wk =   0.0035556
        k(  217) = (   0.1333333   0.4666667  -0.2666667), wk =   0.0035556
        k(  218) = (   0.1333333   0.4666667  -0.2000000), wk =   0.0035556
        k(  219) = (   0.1333333   0.4666667  -0.1333333), wk =   0.0035556
        k(  220) = (   0.1333333  -0.4666667  -0.4666667), wk =   0.0017778
        k(  221) = (   0.1333333  -0.4666667  -0.4000000), wk =   0.0035556
        k(  222) = (   0.1333333  -0.4666667  -0.3333333), wk =   0.0035556
        k(  223) = (   0.1333333  -0.4666667  -0.2666667), wk =   0.0035556
        k(  224) = (   0.1333333  -0.4666667  -0.2000000), wk =   0.0035556
        k(  225) = (   0.1333333  -0.4000000  -0.4000000), wk =   0.0017778
        k(  226) = (   0.1333333  -0.4000000  -0.3333333), wk =   0.0035556
        k(  227) = (   0.1333333  -0.4000000  -0.2666667), wk =   0.0035556
        k(  228) = (   0.1333333  -0.4000000  -0.2000000), wk =   0.0035556
        k(  229) = (   0.1333333  -0.3333333  -0.3333333), wk =   0.0017778
        k(  230) = (   0.1333333  -0.3333333  -0.2666667), wk =   0.0035556
        k(  231) = (   0.1333333  -0.3333333  -0.2000000), wk =   0.0035556
        k(  232) = (   0.1333333  -0.2666667  -0.2666667), wk =   0.0017778
        k(  233) = (   0.1333333  -0.2666667  -0.2000000), wk =   0.0035556
        k(  234) = (   0.1333333  -0.2000000  -0.2000000), wk =   0.0017778
        k(  235) = (   0.2000000   0.2000000   0.2000000), wk =   0.0005926
        k(  236) = (   0.2000000   0.2000000   0.2666667), wk =   0.0017778
        k(  237) = (   0.2000000   0.2000000   0.3333333), wk =   0.0017778
        k(  238) = (   0.2000000   0.2000000   0.4000000), wk =   0.0017778
        k(  239) = (   0.2000000   0.2000000   0.4666667), wk =   0.0017778
        k(  240) = (   0.2000000   0.2000000  -0.4666667), wk =   0.0017778
        k(  241) = (   0.2000000   0.2000000  -0.4000000), wk =   0.0017778
        k(  242) = (   0.2000000   0.2000000  -0.3333333), wk =   0.0017778
        k(  243) = (   0.2000000   0.2000000  -0.2666667), wk =   0.0017778
        k(  244) = (   0.2000000   0.2000000  -0.2000000), wk =   0.0017778
        k(  245) = (   0.2000000   0.2666667   0.2666667), wk =   0.0017778
        k(  246) = (   0.2000000   0.2666667   0.3333333), wk =   0.0035556
        k(  247) = (   0.2000000   0.2666667   0.4000000), wk =   0.0035556
        k(  248) = (   0.2000000   0.2666667   0.4666667), wk =   0.0035556
        k(  249) = (   0.2000000   0.2666667  -0.4666667), wk =   0.0035556
        k(  250) = (   0.2000000   0.2666667  -0.4000000), wk =   0.0035556
        k(  251) = (   0.2000000   0.2666667  -0.3333333), wk =   0.0035556
        k(  252) = (   0.2000000   0.2666667  -0.2666667), wk =   0.0035556
        k(  253) = (   0.2000000   0.2666667  -0.2000000), wk =   0.0035556
        k(  254) = (   0.2000000   0.3333333   0.3333333), wk =   0.0017778
        k(  255) = (   0.2000000   0.3333333   0.4000000), wk =   0.0035556
        k(  256) = (   0.2000000   0.3333333   0.4666667), wk =   0.0035556
        k(  257) = (   0.2000000   0.3333333  -0.4666667), wk =   0.0035556
        k(  258) = (   0.2000000   0.3333333  -0.4000000), wk =   0.0035556
        k(  259) = (   0.2000000   0.3333333  -0.3333333), wk =   0.0035556
        k(  260) = (   0.2000000   0.3333333  -0.2666667), wk =   0.0035556
        k(  261) = (   0.2000000   0.3333333  -0.2000000), wk =   0.0035556
        k(  262) = (   0.2000000   0.4000000   0.4000000), wk =   0.0017778
        k(  263) = (   0.2000000   0.4000000   0.4666667), wk =   0.0035556
        k(  264) = (   0.2000000   0.4000000  -0.4666667), wk =   0.0035556
        k(  265) = (   0.2000000   0.4000000  -0.4000000), wk =   0.0035556
        k(  266) = (   0.2000000   0.4000000  -0.3333333), wk =   0.0035556
        k(  267) = (   0.2000000   0.4000000  -0.2666667), wk =   0.0035556
        k(  268) = (   0.2000000   0.4000000  -0.2000000), wk =   0.0035556
        k(  269) = (   0.2000000   0.4666667   0.4666667), wk =   0.0017778
        k(  270) = (   0.2000000   0.4666667  -0.4666667), wk =   0.0035556
        k(  271) = (   0.2000000   0.4666667  -0.4000000), wk =   0.0035556
        k(  272) = (   0.2000000   0.4666667  -0.3333333), wk =   0.0035556
        k(  273) = (   0.2000000   0.4666667  -0.2666667), wk =   0.0035556
        k(  274) = (   0.2000000   0.4666667  -0.2000000), wk =   0.0035556
        k(  275) = (   0.2000000  -0.4666667  -0.4666667), wk =   0.0017778
        k(  276) = (   0.2000000  -0.4666667  -0.4000000), wk =   0.0035556
        k(  277) = (   0.2000000  -0.4666667  -0.3333333), wk =   0.0035556
        k(  278) = (   0.2000000  -0.4666667  -0.2666667), wk =   0.0035556
        k(  279) = (   0.2000000  -0.4000000  -0.4000000), wk =   0.0017778
        k(  280) = (   0.2000000  -0.4000000  -0.3333333), wk =   0.0035556
        k(  281) = (   0.2000000  -0.4000000  -0.2666667), wk =   0.0035556
        k(  282) = (   0.2000000  -0.3333333  -0.3333333), wk =   0.0017778
        k(  283) = (   0.2000000  -0.3333333  -0.2666667), wk =   0.0035556
        k(  284) = (   0.2000000  -0.2666667  -0.2666667), wk =   0.0017778
        k(  285) = (   0.2666667   0.2666667   0.2666667), wk =   0.0005926
        k(  286) = (   0.2666667   0.2666667   0.3333333), wk =   0.0017778
        k(  287) = (   0.2666667   0.2666667   0.4000000), wk =   0.0017778
        k(  288) = (   0.2666667   0.2666667   0.4666667), wk =   0.0017778
        k(  289) = (   0.2666667   0.2666667  -0.4666667), wk =   0.0017778
        k(  290) = (   0.2666667   0.2666667  -0.4000000), wk =   0.0017778
        k(  291) = (   0.2666667   0.2666667  -0.3333333), wk =   0.0017778
        k(  292) = (   0.2666667   0.2666667  -0.2666667), wk =   0.0017778
        k(  293) = (   0.2666667   0.3333333   0.3333333), wk =   0.0017778
        k(  294) = (   0.2666667   0.3333333   0.4000000), wk =   0.0035556
        k(  295) = (   0.2666667   0.3333333   0.4666667), wk =   0.0035556
        k(  296) = (   0.2666667   0.3333333  -0.4666667), wk =   0.0035556
        k(  297) = (   0.2666667   0.3333333  -0.4000000), wk =   0.0035556
        k(  298) = (   0.2666667   0.3333333  -0.3333333), wk =   0.0035556
        k(  299) = (   0.2666667   0.3333333  -0.2666667), wk =   0.0035556
        k(  300) = (   0.2666667   0.4000000   0.4000000), wk =   0.0017778
        k(  301) = (   0.2666667   0.4000000   0.4666667), wk =   0.0035556
        k(  302) = (   0.2666667   0.4000000  -0.4666667), wk =   0.0035556
        k(  303) = (   0.2666667   0.4000000  -0.4000000), wk =   0.0035556
        k(  304) = (   0.2666667   0.4000000  -0.3333333), wk =   0.0035556
        k(  305) = (   0.2666667   0.4000000  -0.2666667), wk =   0.0035556
        k(  306) = (   0.2666667   0.4666667   0.4666667), wk =   0.0017778
        k(  307) = (   0.2666667   0.4666667  -0.4666667), wk =   0.0035556
        k(  308) = (   0.2666667   0.4666667  -0.4000000), wk =   0.0035556
        k(  309) = (   0.2666667   0.4666667  -0.3333333), wk =   0.0035556
        k(  310) = (   0.2666667   0.4666667  -0.2666667), wk =   0.0035556
        k(  311) = (   0.2666667  -0.4666667  -0.4666667), wk =   0.0017778
        k(  312) = (   0.2666667  -0.4666667  -0.4000000), wk =   0.0035556
        k(  313) = (   0.2666667  -0.4666667  -0.3333333), wk =   0.0035556
        k(  314) = (   0.2666667  -0.4000000  -0.4000000), wk =   0.0017778
        k(  315) = (   0.2666667  -0.4000000  -0.3333333), wk =   0.0035556
        k(  316) = (   0.2666667  -0.3333333  -0.3333333), wk =   0.0017778
        k(  317) = (   0.3333333   0.3333333   0.3333333), wk =   0.0005926
        k(  318) = (   0.3333333   0.3333333   0.4000000), wk =   0.0017778
        k(  319) = (   0.3333333   0.3333333   0.4666667), wk =   0.0017778
        k(  320) = (   0.3333333   0.3333333  -0.4666667), wk =   0.0017778
        k(  321) = (   0.3333333   0.3333333  -0.4000000), wk =   0.0017778
        k(  322) = (   0.3333333   0.3333333  -0.3333333), wk =   0.0017778
        k(  323) = (   0.3333333   0.4000000   0.4000000), wk =   0.0017778
        k(  324) = (   0.3333333   0.4000000   0.4666667), wk =   0.0035556
        k(  325) = (   0.3333333   0.4000000  -0.4666667), wk =   0.0035556
        k(  326) = (   0.3333333   0.4000000  -0.4000000), wk =   0.0035556
        k(  327) = (   0.3333333   0.4000000  -0.3333333), wk =   0.0035556
        k(  328) = (   0.3333333   0.4666667   0.4666667), wk =   0.0017778
        k(  329) = (   0.3333333   0.4666667  -0.4666667), wk =   0.0035556
        k(  330) = (   0.3333333   0.4666667  -0.4000000), wk =   0.0035556
        k(  331) = (   0.3333333   0.4666667  -0.3333333), wk =   0.0035556
        k(  332) = (   0.3333333  -0.4666667  -0.4666667), wk =   0.0017778
        k(  333) = (   0.3333333  -0.4666667  -0.4000000), wk =   0.0035556
        k(  334) = (   0.3333333  -0.4000000  -0.4000000), wk =   0.0017778
        k(  335) = (   0.4000000   0.4000000   0.4000000), wk =   0.0005926
        k(  336) = (   0.4000000   0.4000000   0.4666667), wk =   0.0017778
        k(  337) = (   0.4000000   0.4000000  -0.4666667), wk =   0.0017778
        k(  338) = (   0.4000000   0.4000000  -0.4000000), wk =   0.0017778
        k(  339) = (   0.4000000   0.4666667   0.4666667), wk =   0.0017778
        k(  340) = (   0.4000000   0.4666667  -0.4666667), wk =   0.0035556
        k(  341) = (   0.4000000   0.4666667  -0.4000000), wk =   0.0035556
        k(  342) = (   0.4000000  -0.4666667  -0.4666667), wk =   0.0017778
        k(  343) = (   0.4666667   0.4666667   0.4666667), wk =   0.0005926
        k(  344) = (   0.4666667   0.4666667  -0.4666667), wk =   0.0017778

     Dense  grid:    44205 G-vectors     FFT dimensions: (  80,  80,  80)

     Smooth grid:    15665 G-vectors     FFT dimensions: (  60,  60,  60)

     Dynamical RAM for                 wfc:       0.63 MB

     Dynamical RAM for     wfc (w. buffer):     432.51 MB

     Dynamical RAM for           str. fact:       2.02 MB

     Dynamical RAM for           local pot:       0.00 MB

     Dynamical RAM for          nlocal pot:       2.00 MB

     Dynamical RAM for                qrad:       4.31 MB

     Dynamical RAM for          rho,v,vnew:      27.48 MB

     Dynamical RAM for               rhoin:       9.16 MB

     Dynamical RAM for            rho*nmix:      21.58 MB

     Dynamical RAM for           G-vectors:       2.65 MB

     Dynamical RAM for          h,s,v(r/c):       0.08 MB

     Dynamical RAM for          <psi|beta>:       0.02 MB

     Dynamical RAM for                 psi:       1.26 MB

     Dynamical RAM for                hpsi:       1.26 MB

     Dynamical RAM for                spsi:       1.26 MB

     Dynamical RAM for      wfcinit/wfcrot:       1.27 MB

     Dynamical RAM for           addusdens:     127.48 MB

     Dynamical RAM for          addusforce:     128.85 MB

     Dynamical RAM for         addusstress:     136.59 MB

     Estimated static dynamical RAM per process >     506.27 MB

     Estimated max dynamical RAM per process >     664.44 MB

     Atomic positions and unit cell read from directory:
     ./out/aiida.save/
 

     Check: negative core charge=   -0.000002
     Generating pointlists ...
     new r_m :   0.1591 (alat units)  2.1855 (a.u.) for type    1
     new r_m :   0.1288 (alat units)  1.7691 (a.u.) for type    2
     new r_m :   0.1288 (alat units)  1.7691 (a.u.) for type    3

     The initial density is read from file :
     ./out/aiida.save/charge-density


     negative rho (up, down):  8.758E-05 1.009E-03
     Starting wfcs from file

     total cpu time spent up to now is        3.7 secs

     per-process dynamical memory:   421.7 Mb

     Self-consistent Calculation
[tb_dev] Currently allocated     3.05E-05 Mbytes, locked:    0 /   2
[tb_pin] Currently allocated     0.00E+00 Mbytes, locked:    0 /   0

     iteration #  1     ecut=    40.00 Ry     beta= 0.20
     Davidson diagonalization with overlap

---- Real-time Memory Report at c_bands before calling an iterative solver
           557 MiB given to the printing process from OS
           419 MiB allocation reported by mallinfo(arena+hblkhd)
         59615 MiB available memory on the node where the printing process lives
     GPU memory used/free/total (MiB): 744 / 15536 / 16280
------------------
     ethr =  1.00E-05,  avg # of iterations =  1.0

     Threshold (ethr) on eigenvalues was too large:
     Diagonalizing with lowered threshold

     Davidson diagonalization with overlap

---- Real-time Memory Report at c_bands before calling an iterative solver
          1341 MiB given to the printing process from OS
          1156 MiB allocation reported by mallinfo(arena+hblkhd)
         57984 MiB available memory on the node where the printing process lives
     GPU memory used/free/total (MiB): 1272 / 15008 / 16280
------------------
     ethr =  1.58E-07,  avg # of iterations =  1.3

     negative rho (up, down):  9.133E-05 1.003E-03

     total cpu time spent up to now is       26.9 secs

     total energy              =    -288.44283474 Ry
     estimated scf accuracy    <       0.00005346 Ry

     total magnetization       =     1.10 Bohr mag/cell
     absolute magnetization    =     1.15 Bohr mag/cell
[tb_dev] Currently allocated     1.37E+00 Mbytes, locked:    0 /  10
[tb_pin] Currently allocated     0.00E+00 Mbytes, locked:    0 /   0

     iteration #  2     ecut=    40.00 Ry     beta= 0.20
     Davidson diagonalization with overlap

---- Real-time Memory Report at c_bands before calling an iterative solver
          1374 MiB given to the printing process from OS
          1166 MiB allocation reported by mallinfo(arena+hblkhd)
         57972 MiB available memory on the node where the printing process lives
     GPU memory used/free/total (MiB): 1272 / 15008 / 16280
------------------
     ethr =  1.57E-07,  avg # of iterations =  1.0

     negative rho (up, down):  9.818E-05 9.910E-04

     total cpu time spent up to now is       38.5 secs

     total energy              =    -288.44286369 Ry
     estimated scf accuracy    <       0.00004855 Ry

     total magnetization       =     1.09 Bohr mag/cell
     absolute magnetization    =     1.14 Bohr mag/cell
[tb_dev] Currently allocated     1.37E+00 Mbytes, locked:    0 /  10
[tb_pin] Currently allocated     0.00E+00 Mbytes, locked:    0 /   0

     iteration #  3     ecut=    40.00 Ry     beta= 0.20
     Davidson diagonalization with overlap

---- Real-time Memory Report at c_bands before calling an iterative solver
          1380 MiB given to the printing process from OS
          1178 MiB allocation reported by mallinfo(arena+hblkhd)
         57971 MiB available memory on the node where the printing process lives
     GPU memory used/free/total (MiB): 1272 / 15008 / 16280
------------------
     ethr =  1.43E-07,  avg # of iterations =  1.3

     negative rho (up, down):  8.424E-05 1.014E-03

     total cpu time spent up to now is       50.6 secs

     total energy              =    -288.44277376 Ry
     estimated scf accuracy    <       0.00005681 Ry

     total magnetization       =     1.06 Bohr mag/cell
     absolute magnetization    =     1.11 Bohr mag/cell
[tb_dev] Currently allocated     1.37E+00 Mbytes, locked:    0 /  10
[tb_pin] Currently allocated     0.00E+00 Mbytes, locked:    0 /   0

     iteration #  4     ecut=    40.00 Ry     beta= 0.20
     Davidson diagonalization with overlap

---- Real-time Memory Report at c_bands before calling an iterative solver
          1381 MiB given to the printing process from OS
          1179 MiB allocation reported by mallinfo(arena+hblkhd)
         57972 MiB available memory on the node where the printing process lives
     GPU memory used/free/total (MiB): 1282 / 14998 / 16280
------------------
     ethr =  1.43E-07,  avg # of iterations =  1.7

     negative rho (up, down):  4.330E-05 1.106E-03

     total cpu time spent up to now is       62.8 secs

     total energy              =    -288.44214216 Ry
     estimated scf accuracy    <       0.00004818 Ry

     total magnetization       =     1.12 Bohr mag/cell
     absolute magnetization    =     1.17 Bohr mag/cell
[tb_dev] Currently allocated     1.37E+00 Mbytes, locked:    0 /  10
[tb_pin] Currently allocated     0.00E+00 Mbytes, locked:    0 /   0

     iteration #  5     ecut=    40.00 Ry     beta= 0.20
     Davidson diagonalization with overlap

---- Real-time Memory Report at c_bands before calling an iterative solver
          1382 MiB given to the printing process from OS
          1180 MiB allocation reported by mallinfo(arena+hblkhd)
         57971 MiB available memory on the node where the printing process lives
     GPU memory used/free/total (MiB): 1282 / 14998 / 16280
------------------
     ethr =  1.42E-07,  avg # of iterations =  4.3

     negative rho (up, down):  3.381E-05 1.265E-03

     total cpu time spent up to now is       82.2 secs

     total energy              =    -288.44179003 Ry
     estimated scf accuracy    <       0.00002681 Ry

     total magnetization       =     1.31 Bohr mag/cell
     absolute magnetization    =     1.36 Bohr mag/cell
[tb_dev] Currently allocated     1.37E+00 Mbytes, locked:    0 /  10
[tb_pin] Currently allocated     0.00E+00 Mbytes, locked:    0 /   0

     iteration #  6     ecut=    40.00 Ry     beta= 0.20
     Davidson diagonalization with overlap

---- Real-time Memory Report at c_bands before calling an iterative solver
          1383 MiB given to the printing process from OS
          1181 MiB allocation reported by mallinfo(arena+hblkhd)
         57971 MiB available memory on the node where the printing process lives
     GPU memory used/free/total (MiB): 1496 / 14784 / 16280
------------------
     ethr =  7.89E-08,  avg # of iterations =  5.2

     negative rho (up, down):  1.256E-04 9.467E-04

     total cpu time spent up to now is      104.4 secs

     total energy              =    -288.43963667 Ry
     estimated scf accuracy    <       0.00009370 Ry

     total magnetization       =     1.48 Bohr mag/cell
     absolute magnetization    =     1.54 Bohr mag/cell
[tb_dev] Currently allocated     1.37E+00 Mbytes, locked:    0 /  10
[tb_pin] Currently allocated     0.00E+00 Mbytes, locked:    0 /   0

     iteration #  7     ecut=    40.00 Ry     beta= 0.20
     Davidson diagonalization with overlap

---- Real-time Memory Report at c_bands before calling an iterative solver
          1384 MiB given to the printing process from OS
          1182 MiB allocation reported by mallinfo(arena+hblkhd)
         57970 MiB available memory on the node where the printing process lives
     GPU memory used/free/total (MiB): 1560 / 14720 / 16280
------------------
     ethr =  7.89E-08,  avg # of iterations =  6.4

     negative rho (up, down):  8.433E-05 1.014E-03

     total cpu time spent up to now is      131.1 secs

     total energy              =    -288.44250959 Ry
     estimated scf accuracy    <       0.00013064 Ry

     total magnetization       =     0.95 Bohr mag/cell
     absolute magnetization    =     1.00 Bohr mag/cell
[tb_dev] Currently allocated     1.37E+00 Mbytes, locked:    0 /  10
[tb_pin] Currently allocated     0.00E+00 Mbytes, locked:    0 /   0

     iteration #  8     ecut=    40.00 Ry     beta= 0.20
     Davidson diagonalization with overlap

---- Real-time Memory Report at c_bands before calling an iterative solver
          1385 MiB given to the printing process from OS
          1183 MiB allocation reported by mallinfo(arena+hblkhd)
         57970 MiB available memory on the node where the printing process lives
     GPU memory used/free/total (MiB): 1598 / 14682 / 16280
------------------
     ethr =  7.89E-08,  avg # of iterations =  4.0

     negative rho (up, down):  8.329E-05 1.016E-03

     total cpu time spent up to now is      150.3 secs

     total energy              =    -288.44280053 Ry
     estimated scf accuracy    <       0.00004758 Ry

     total magnetization       =     1.12 Bohr mag/cell
     absolute magnetization    =     1.16 Bohr mag/cell
[tb_dev] Currently allocated     1.37E+00 Mbytes, locked:    0 /  10
[tb_pin] Currently allocated     0.00E+00 Mbytes, locked:    0 /   0

     iteration #  9     ecut=    40.00 Ry     beta= 0.20
     Davidson diagonalization with overlap

---- Real-time Memory Report at c_bands before calling an iterative solver
          1386 MiB given to the printing process from OS
          1184 MiB allocation reported by mallinfo(arena+hblkhd)
         57969 MiB available memory on the node where the printing process lives
     GPU memory used/free/total (MiB): 1638 / 14642 / 16280
------------------
     ethr =  7.89E-08,  avg # of iterations =  1.0

     negative rho (up, down):  8.230E-05 1.018E-03

     total cpu time spent up to now is      161.6 secs

     total energy              =    -288.44279603 Ry
     estimated scf accuracy    <       0.00004624 Ry

     total magnetization       =     1.12 Bohr mag/cell
     absolute magnetization    =     1.17 Bohr mag/cell
[tb_dev] Currently allocated     1.37E+00 Mbytes, locked:    0 /  10
[tb_pin] Currently allocated     0.00E+00 Mbytes, locked:    0 /   0

     iteration # 10     ecut=    40.00 Ry     beta= 0.20
     Davidson diagonalization with overlap

---- Real-time Memory Report at c_bands before calling an iterative solver
          1387 MiB given to the printing process from OS
          1185 MiB allocation reported by mallinfo(arena+hblkhd)
         57969 MiB available memory on the node where the printing process lives
     GPU memory used/free/total (MiB): 1638 / 14642 / 16280
------------------
     ethr =  7.89E-08,  avg # of iterations =  1.0

     negative rho (up, down):  7.140E-05 1.035E-03

     total cpu time spent up to now is      173.2 secs

     total energy              =    -288.44273203 Ry
     estimated scf accuracy    <       0.00004419 Ry

     total magnetization       =     1.12 Bohr mag/cell
     absolute magnetization    =     1.17 Bohr mag/cell
[tb_dev] Currently allocated     1.37E+00 Mbytes, locked:    0 /  10
[tb_pin] Currently allocated     0.00E+00 Mbytes, locked:    0 /   0

     iteration # 11     ecut=    40.00 Ry     beta= 0.20
     Davidson diagonalization with overlap

---- Real-time Memory Report at c_bands before calling an iterative solver
          1388 MiB given to the printing process from OS
          1185 MiB allocation reported by mallinfo(arena+hblkhd)
         57968 MiB available memory on the node where the printing process lives
     GPU memory used/free/total (MiB): 1638 / 14642 / 16280
------------------
     ethr =  7.89E-08,  avg # of iterations =  2.3

     negative rho (up, down):  4.192E-05 1.123E-03

     total cpu time spent up to now is      186.4 secs

     total energy              =    -288.44217660 Ry
     estimated scf accuracy    <       0.00003193 Ry

     total magnetization       =     1.17 Bohr mag/cell
     absolute magnetization    =     1.22 Bohr mag/cell
[tb_dev] Currently allocated     1.37E+00 Mbytes, locked:    0 /  10
[tb_pin] Currently allocated     0.00E+00 Mbytes, locked:    0 /   0

     iteration # 12     ecut=    40.00 Ry     beta= 0.20
     Davidson diagonalization with overlap

---- Real-time Memory Report at c_bands before calling an iterative solver
          1388 MiB given to the printing process from OS
          1185 MiB allocation reported by mallinfo(arena+hblkhd)
         57969 MiB available memory on the node where the printing process lives
     GPU memory used/free/total (MiB): 1638 / 14642 / 16280
------------------
     ethr =  7.89E-08,  avg # of iterations =  4.9

     negative rho (up, down):  4.665E-05 1.076E-03

     total cpu time spent up to now is      207.2 secs

     total energy              =    -288.44257070 Ry
     estimated scf accuracy    <       0.00001671 Ry

     total magnetization       =     1.34 Bohr mag/cell
     absolute magnetization    =     1.40 Bohr mag/cell
[tb_dev] Currently allocated     1.37E+00 Mbytes, locked:    0 /  10
[tb_pin] Currently allocated     0.00E+00 Mbytes, locked:    0 /   0

     iteration # 13     ecut=    40.00 Ry     beta= 0.20
     Davidson diagonalization with overlap

---- Real-time Memory Report at c_bands before calling an iterative solver
          1388 MiB given to the printing process from OS
          1185 MiB allocation reported by mallinfo(arena+hblkhd)
         57969 MiB available memory on the node where the printing process lives
     GPU memory used/free/total (MiB): 1638 / 14642 / 16280
------------------
     ethr =  4.91E-08,  avg # of iterations =  3.6

     negative rho (up, down):  4.282E-05 1.111E-03

     total cpu time spent up to now is      225.3 secs

     total energy              =    -288.44255144 Ry
     estimated scf accuracy    <       0.00001633 Ry

     total magnetization       =     1.25 Bohr mag/cell
     absolute magnetization    =     1.31 Bohr mag/cell
[tb_dev] Currently allocated     1.37E+00 Mbytes, locked:    0 /  10
[tb_pin] Currently allocated     0.00E+00 Mbytes, locked:    0 /   0

     iteration # 14     ecut=    40.00 Ry     beta= 0.20
     Davidson diagonalization with overlap

---- Real-time Memory Report at c_bands before calling an iterative solver
          1388 MiB given to the printing process from OS
          1185 MiB allocation reported by mallinfo(arena+hblkhd)
         57969 MiB available memory on the node where the printing process lives
     GPU memory used/free/total (MiB): 1638 / 14642 / 16280
------------------
     ethr =  4.80E-08,  avg # of iterations =  3.0

     negative rho (up, down):  4.373E-05 1.100E-03

     total cpu time spent up to now is      241.8 secs

     total energy              =    -288.44262580 Ry
     estimated scf accuracy    <       0.00001591 Ry

     total magnetization       =     1.32 Bohr mag/cell
     absolute magnetization    =     1.38 Bohr mag/cell
[tb_dev] Currently allocated     1.37E+00 Mbytes, locked:    0 /  10
[tb_pin] Currently allocated     0.00E+00 Mbytes, locked:    0 /   0

     iteration # 15     ecut=    40.00 Ry     beta= 0.20
     Davidson diagonalization with overlap

---- Real-time Memory Report at c_bands before calling an iterative solver
          1388 MiB given to the printing process from OS
          1185 MiB allocation reported by mallinfo(arena+hblkhd)
         57964 MiB available memory on the node where the printing process lives
     GPU memory used/free/total (MiB): 1638 / 14642 / 16280
------------------
     ethr =  4.68E-08,  avg # of iterations =  1.5

     negative rho (up, down):  4.516E-05 1.084E-03

     total cpu time spent up to now is      253.9 secs

     total energy              =    -288.44264445 Ry
     estimated scf accuracy    <       0.00001494 Ry

     total magnetization       =     1.30 Bohr mag/cell
     absolute magnetization    =     1.36 Bohr mag/cell
[tb_dev] Currently allocated     1.37E+00 Mbytes, locked:    0 /  10
[tb_pin] Currently allocated     0.00E+00 Mbytes, locked:    0 /   0

     iteration # 16     ecut=    40.00 Ry     beta= 0.20
     Davidson diagonalization with overlap

---- Real-time Memory Report at c_bands before calling an iterative solver
          1388 MiB given to the printing process from OS
          1185 MiB allocation reported by mallinfo(arena+hblkhd)
         57968 MiB available memory on the node where the printing process lives
     GPU memory used/free/total (MiB): 1638 / 14642 / 16280
------------------
     ethr =  4.40E-08,  avg # of iterations =  2.7

     negative rho (up, down):  1.526E-04 9.042E-04

     total cpu time spent up to now is      268.5 secs

     total energy              =    -288.44131103 Ry
     estimated scf accuracy    <       0.00001562 Ry

     total magnetization       =     1.27 Bohr mag/cell
     absolute magnetization    =     1.32 Bohr mag/cell
[tb_dev] Currently allocated     1.37E+00 Mbytes, locked:    0 /  10
[tb_pin] Currently allocated     0.00E+00 Mbytes, locked:    0 /   0

     iteration # 17     ecut=    40.00 Ry     beta= 0.20
     Davidson diagonalization with overlap

---- Real-time Memory Report at c_bands before calling an iterative solver
          1388 MiB given to the printing process from OS
          1185 MiB allocation reported by mallinfo(arena+hblkhd)
         57968 MiB available memory on the node where the printing process lives
[...]
          1389 MiB given to the printing process from OS
          1185 MiB allocation reported by mallinfo(arena+hblkhd)
         57964 MiB available memory on the node where the printing process lives
     GPU memory used/free/total (MiB): 1638 / 14642 / 16280
------------------
     ethr =  4.40E-08,  avg # of iterations =  1.0

     negative rho (up, down):  4.119E-05 1.135E-03

     total cpu time spent up to now is     1133.6 secs

     total energy              =    -288.44257000 Ry
     estimated scf accuracy    <       0.00001558 Ry

     total magnetization       =     1.33 Bohr mag/cell
     absolute magnetization    =     1.38 Bohr mag/cell
[tb_dev] Currently allocated     1.37E+00 Mbytes, locked:    0 /  10
[tb_pin] Currently allocated     0.00E+00 Mbytes, locked:    0 /   0

     iteration # 66     ecut=    40.00 Ry     beta= 0.20
     Davidson diagonalization with overlap

---- Real-time Memory Report at c_bands before calling an iterative solver
          1389 MiB given to the printing process from OS
          1185 MiB allocation reported by mallinfo(arena+hblkhd)
         57968 MiB available memory on the node where the printing process lives
     GPU memory used/free/total (MiB): 1638 / 14642 / 16280
------------------
     ethr =  4.40E-08,  avg # of iterations =  2.2

     negative rho (up, down):  3.527E-05 1.238E-03

     total cpu time spent up to now is     1147.1 secs

     total energy              =    -288.44220378 Ry
     estimated scf accuracy    <       0.00001771 Ry

     total magnetization       =     1.35 Bohr mag/cell
     absolute magnetization    =     1.41 Bohr mag/cell
[tb_dev] Currently allocated     1.37E+00 Mbytes, locked:    0 /  10
[tb_pin] Currently allocated     0.00E+00 Mbytes, locked:    0 /   0

     iteration # 67     ecut=    40.00 Ry     beta= 0.20
     Davidson diagonalization with overlap

---- Real-time Memory Report at c_bands before calling an iterative solver
          1389 MiB given to the printing process from OS
          1185 MiB allocation reported by mallinfo(arena+hblkhd)
         57969 MiB available memory on the node where the printing process lives
     GPU memory used/free/total (MiB): 1638 / 14642 / 16280
------------------
     ethr =  4.40E-08,  avg # of iterations =  4.9

     negative rho (up, down):  2.755E-05 1.371E-03

     total cpu time spent up to now is     1167.9 secs

     total energy              =    -288.44172151 Ry
     estimated scf accuracy    <       0.00005123 Ry

     total magnetization       =     1.45 Bohr mag/cell
     absolute magnetization    =     1.52 Bohr mag/cell
[tb_dev] Currently allocated     1.37E+00 Mbytes, locked:    0 /  10
[tb_pin] Currently allocated     0.00E+00 Mbytes, locked:    0 /   0

     iteration # 68     ecut=    40.00 Ry     beta= 0.20
     Davidson diagonalization with overlap

---- Real-time Memory Report at c_bands before calling an iterative solver
          1389 MiB given to the printing process from OS
          1185 MiB allocation reported by mallinfo(arena+hblkhd)
         57969 MiB available memory on the node where the printing process lives
     GPU memory used/free/total (MiB): 1638 / 14642 / 16280
------------------
     ethr =  4.40E-08,  avg # of iterations =  5.2

     negative rho (up, down):  8.254E-05 1.018E-03

     total cpu time spent up to now is     1189.7 secs

     total energy              =    -288.43964478 Ry
     estimated scf accuracy    <       0.00015106 Ry

     total magnetization       =     1.58 Bohr mag/cell
     absolute magnetization    =     1.66 Bohr mag/cell
[tb_dev] Currently allocated     1.37E+00 Mbytes, locked:    0 /  10
[tb_pin] Currently allocated     0.00E+00 Mbytes, locked:    0 /   0

     iteration # 69     ecut=    40.00 Ry     beta= 0.20
     Davidson diagonalization with overlap

---- Real-time Memory Report at c_bands before calling an iterative solver
          1389 MiB given to the printing process from OS
          1185 MiB allocation reported by mallinfo(arena+hblkhd)
         57969 MiB available memory on the node where the printing process lives
     GPU memory used/free/total (MiB): 1638 / 14642 / 16280
------------------
     ethr =  4.40E-08,  avg # of iterations =  7.0

     negative rho (up, down):  1.731E-04 8.704E-04

     total cpu time spent up to now is     1217.8 secs

     total energy              =    -288.44207566 Ry
     estimated scf accuracy    <       0.00004176 Ry

     total magnetization       =     1.12 Bohr mag/cell
     absolute magnetization    =     1.17 Bohr mag/cell
[tb_dev] Currently allocated     1.37E+00 Mbytes, locked:    0 /  10
[tb_pin] Currently allocated     0.00E+00 Mbytes, locked:    0 /   0

     iteration # 70     ecut=    40.00 Ry     beta= 0.20
     Davidson diagonalization with overlap

---- Real-time Memory Report at c_bands before calling an iterative solver
          1389 MiB given to the printing process from OS
          1185 MiB allocation reported by mallinfo(arena+hblkhd)
         57968 MiB available memory on the node where the printing process lives
     GPU memory used/free/total (MiB): 1638 / 14642 / 16280
------------------
     ethr =  4.40E-08,  avg # of iterations =  5.9

     negative rho (up, down):  3.910E-05 1.171E-03

     total cpu time spent up to now is     1241.9 secs

     total energy              =    -288.43738209 Ry
     estimated scf accuracy    <       0.00026021 Ry

     total magnetization       =     0.76 Bohr mag/cell
     absolute magnetization    =     0.81 Bohr mag/cell
[tb_dev] Currently allocated     1.37E+00 Mbytes, locked:    0 /  10
[tb_pin] Currently allocated     0.00E+00 Mbytes, locked:    0 /   0

     iteration # 71     ecut=    40.00 Ry     beta= 0.20
     Davidson diagonalization with overlap

---- Real-time Memory Report at c_bands before calling an iterative solver
          1389 MiB given to the printing process from OS
          1185 MiB allocation reported by mallinfo(arena+hblkhd)
         57969 MiB available memory on the node where the printing process lives
     GPU memory used/free/total (MiB): 1638 / 14642 / 16280
------------------
     ethr =  4.40E-08,  avg # of iterations =  7.5

     negative rho (up, down):  6.821E-05 1.041E-03

     total cpu time spent up to now is     1270.5 secs

     total energy              =    -288.44211650 Ry
     estimated scf accuracy    <       0.00002542 Ry

     total magnetization       =     1.39 Bohr mag/cell
     absolute magnetization    =     1.45 Bohr mag/cell
[tb_dev] Currently allocated     1.37E+00 Mbytes, locked:    0 /  10
[tb_pin] Currently allocated     0.00E+00 Mbytes, locked:    0 /   0

     iteration # 72     ecut=    40.00 Ry     beta= 0.20
     Davidson diagonalization with overlap

---- Real-time Memory Report at c_bands before calling an iterative solver
          1389 MiB given to the printing process from OS
          1185 MiB allocation reported by mallinfo(arena+hblkhd)
         57969 MiB available memory on the node where the printing process lives
     GPU memory used/free/total (MiB): 1638 / 14642 / 16280
------------------
     ethr =  4.40E-08,  avg # of iterations =  5.4

     negative rho (up, down):  4.930E-05 1.072E-03

     total cpu time spent up to now is     1292.9 secs

     total energy              =    -288.44262472 Ry
     estimated scf accuracy    <       0.00002822 Ry

     total magnetization       =     1.18 Bohr mag/cell
     absolute magnetization    =     1.23 Bohr mag/cell
[tb_dev] Currently allocated     1.37E+00 Mbytes, locked:    0 /  10
[tb_pin] Currently allocated     0.00E+00 Mbytes, locked:    0 /   0

     iteration # 73     ecut=    40.00 Ry     beta= 0.20
     Davidson diagonalization with overlap

---- Real-time Memory Report at c_bands before calling an iterative solver
          1389 MiB given to the printing process from OS
          1185 MiB allocation reported by mallinfo(arena+hblkhd)
         57969 MiB available memory on the node where the printing process lives
     GPU memory used/free/total (MiB): 1638 / 14642 / 16280
------------------
     ethr =  4.40E-08,  avg # of iterations =  3.1

     negative rho (up, down):  4.250E-05 1.114E-03

     total cpu time spent up to now is     1309.3 secs

     total energy              =    -288.44251074 Ry
     estimated scf accuracy    <       0.00001807 Ry

     total magnetization       =     1.24 Bohr mag/cell
     absolute magnetization    =     1.30 Bohr mag/cell
[tb_dev] Currently allocated     1.37E+00 Mbytes, locked:    0 /  10
[tb_pin] Currently allocated     0.00E+00 Mbytes, locked:    0 /   0

     iteration # 74     ecut=    40.00 Ry     beta= 0.20
     Davidson diagonalization with overlap

---- Real-time Memory Report at c_bands before calling an iterative solver
          1389 MiB given to the printing process from OS
          1185 MiB allocation reported by mallinfo(arena+hblkhd)
         57968 MiB available memory on the node where the printing process lives
     GPU memory used/free/total (MiB): 1638 / 14642 / 16280
------------------
     ethr =  4.40E-08,  avg # of iterations =  4.1

     negative rho (up, down):  4.217E-05 1.118E-03

     total cpu time spent up to now is     1328.7 secs

     total energy              =    -288.44260024 Ry
     estimated scf accuracy    <       0.00001646 Ry

     total magnetization       =     1.33 Bohr mag/cell
     absolute magnetization    =     1.38 Bohr mag/cell
[tb_dev] Currently allocated     1.37E+00 Mbytes, locked:    0 /  10
[tb_pin] Currently allocated     0.00E+00 Mbytes, locked:    0 /   0

     iteration # 75     ecut=    40.00 Ry     beta= 0.20
     Davidson diagonalization with overlap

---- Real-time Memory Report at c_bands before calling an iterative solver
          1389 MiB given to the printing process from OS
          1185 MiB allocation reported by mallinfo(arena+hblkhd)
         57950 MiB available memory on the node where the printing process lives
     GPU memory used/free/total (MiB): 1638 / 14642 / 16280
------------------
     ethr =  4.40E-08,  avg # of iterations =  1.0

     negative rho (up, down):  4.183E-05 1.123E-03

     total cpu time spent up to now is     1339.9 secs

     total energy              =    -288.44259334 Ry
     estimated scf accuracy    <       0.00001709 Ry

     total magnetization       =     1.33 Bohr mag/cell
     absolute magnetization    =     1.39 Bohr mag/cell
[tb_dev] Currently allocated     1.37E+00 Mbytes, locked:    0 /  10
[tb_pin] Currently allocated     0.00E+00 Mbytes, locked:    0 /   0

     iteration # 76     ecut=    40.00 Ry     beta= 0.20
     Davidson diagonalization with overlap

---- Real-time Memory Report at c_bands before calling an iterative solver
          1389 MiB given to the printing process from OS
          1185 MiB allocation reported by mallinfo(arena+hblkhd)
         57957 MiB available memory on the node where the printing process lives
     GPU memory used/free/total (MiB): 1638 / 14642 / 16280
------------------
     ethr =  4.40E-08,  avg # of iterations =  1.3

     negative rho (up, down):  4.241E-05 1.115E-03

     total cpu time spent up to now is     1351.6 secs

     total energy              =    -288.44260435 Ry
     estimated scf accuracy    <       0.00001771 Ry

     total magnetization       =     1.34 Bohr mag/cell
     absolute magnetization    =     1.40 Bohr mag/cell
[tb_dev] Currently allocated     1.37E+00 Mbytes, locked:    0 /  10
[tb_pin] Currently allocated     0.00E+00 Mbytes, locked:    0 /   0

     iteration # 77     ecut=    40.00 Ry     beta= 0.20
     Davidson diagonalization with overlap

---- Real-time Memory Report at c_bands before calling an iterative solver
          1389 MiB given to the printing process from OS
          1185 MiB allocation reported by mallinfo(arena+hblkhd)
         57948 MiB available memory on the node where the printing process lives
     GPU memory used/free/total (MiB): 1638 / 14642 / 16280
------------------
     ethr =  4.40E-08,  avg # of iterations =  1.2

     negative rho (up, down):  4.026E-05 1.150E-03

     total cpu time spent up to now is     1363.5 secs

     total energy              =    -288.44253036 Ry
     estimated scf accuracy    <       0.00001644 Ry

     total magnetization       =     1.33 Bohr mag/cell
     absolute magnetization    =     1.38 Bohr mag/cell
[tb_dev] Currently allocated     1.37E+00 Mbytes, locked:    0 /  10
[tb_pin] Currently allocated     0.00E+00 Mbytes, locked:    0 /   0

     iteration # 78     ecut=    40.00 Ry     beta= 0.20
     Davidson diagonalization with overlap

---- Real-time Memory Report at c_bands before calling an iterative solver
          1389 MiB given to the printing process from OS
          1185 MiB allocation reported by mallinfo(arena+hblkhd)
         57956 MiB available memory on the node where the printing process lives
     GPU memory used/free/total (MiB): 1638 / 14642 / 16280
------------------
     ethr =  4.40E-08,  avg # of iterations =  2.9

     negative rho (up, down):  4.157E-05 1.127E-03

     total cpu time spent up to now is     1379.7 secs

     total energy              =    -288.44257881 Ry
     estimated scf accuracy    <       0.00002125 Ry

     total magnetization       =     1.37 Bohr mag/cell
     absolute magnetization    =     1.43 Bohr mag/cell
[tb_dev] Currently allocated     1.37E+00 Mbytes, locked:    0 /  10
[tb_pin] Currently allocated     0.00E+00 Mbytes, locked:    0 /   0

     iteration # 79     ecut=    40.00 Ry     beta= 0.20
     Davidson diagonalization with overlap

---- Real-time Memory Report at c_bands before calling an iterative solver
          1389 MiB given to the printing process from OS
          1185 MiB allocation reported by mallinfo(arena+hblkhd)
         57958 MiB available memory on the node where the printing process lives
     GPU memory used/free/total (MiB): 1638 / 14642 / 16280
------------------
     ethr =  4.40E-08,  avg # of iterations =  1.9

     negative rho (up, down):  3.841E-05 1.180E-03

     total cpu time spent up to now is     1392.5 secs

     total energy              =    -288.44245892 Ry
     estimated scf accuracy    <       0.00001729 Ry

     total magnetization       =     1.34 Bohr mag/cell
     absolute magnetization    =     1.40 Bohr mag/cell
[tb_dev] Currently allocated     1.37E+00 Mbytes, locked:    0 /  10
[tb_pin] Currently allocated     0.00E+00 Mbytes, locked:    0 /   0

     iteration # 80     ecut=    40.00 Ry     beta= 0.20
     Davidson diagonalization with overlap

---- Real-time Memory Report at c_bands before calling an iterative solver
          1389 MiB given to the printing process from OS
          1185 MiB allocation reported by mallinfo(arena+hblkhd)
         57959 MiB available memory on the node where the printing process lives
     GPU memory used/free/total (MiB): 1638 / 14642 / 16280
------------------
     ethr =  4.40E-08,  avg # of iterations =  3.2

     negative rho (up, down):  3.869E-05 1.175E-03

     total cpu time spent up to now is     1409.5 secs

     total energy              =    -288.44252472 Ry
     estimated scf accuracy    <       0.00003381 Ry

     total magnetization       =     1.40 Bohr mag/cell
     absolute magnetization    =     1.46 Bohr mag/cell

     End of self-consistent calculation

     convergence NOT achieved after  80 iterations: stopping

     Writing config to output data dir ./out/aiida.save/
 
     init_run     :     10.91s CPU      2.88s WALL (       1 calls)
     electrons    :   1425.21s CPU   1405.83s WALL (       1 calls)

     Called by init_run:
     wfcinit      :      0.57s CPU      0.57s WALL (       1 calls)
                                        0.57s GPU  (       1 calls)
     potinit      :      0.40s CPU      0.11s WALL (       1 calls)
     hinit0       :      7.55s CPU      1.58s WALL (       1 calls)

     Called by electrons:
     c_bands      :   1203.36s CPU   1228.21s WALL (      81 calls)
     sum_band     :    147.43s CPU    170.60s WALL (      81 calls)
     v_of_rho     :     30.68s CPU      2.82s WALL (      81 calls)
     v_h          :      3.62s CPU      0.32s WALL (      81 calls)
     v_xc         :     27.05s CPU      2.49s WALL (      81 calls)
     newd         :     21.43s CPU      2.25s WALL (      81 calls)
                                        2.25s GPU  (      81 calls)
     mix_rho      :     10.99s CPU      1.06s WALL (      81 calls)

     Called by c_bands:
     init_us_2    :     97.14s CPU    107.53s WALL (  111456 calls)
     init_us_2:gp :     95.26s CPU    105.63s WALL (  111456 calls)
     cegterg      :   1091.75s CPU   1087.64s WALL (   55728 calls)

     Called by sum_band:
     sum_band:wei :      1.17s CPU      1.18s WALL (      81 calls)
                                        1.18s GPU  (      81 calls)
     sum_band:loo :    143.45s CPU    166.40s WALL (      81 calls)
                                      166.40s GPU  (      81 calls)
     sum_band:buf :     10.48s CPU     12.50s WALL (   55728 calls)
                                       12.18s GPU  (   55728 calls)
     sum_band:ini :     42.50s CPU     52.45s WALL (   55728 calls)
                                       52.15s GPU  (   55728 calls)
     sum_band:cal :      1.73s CPU      4.81s WALL (   55728 calls)
                                        2.31s GPU  (   55728 calls)
     sum_band:bec :      8.86s CPU     10.69s WALL (   55728 calls)
                                       10.32s GPU  (   55728 calls)
     addusdens    :      1.87s CPU      2.05s WALL (      81 calls)
                                        2.05s GPU  (      81 calls)
     addusd:skk   :      0.01s CPU      0.01s WALL (     243 calls)
                                        0.01s GPU  (     243 calls)

     Called by *egterg:
     cdiaghg      :    346.12s CPU    360.24s WALL (  245406 calls)
                                      358.62s GPU  (  245406 calls)
     cegterg:over :     22.09s CPU     21.96s WALL (  191054 calls)
     cegterg:upda :     41.02s CPU     40.73s WALL (  191054 calls)
     cegterg:last :      9.69s CPU      9.89s WALL (  122005 calls)
     h_psi        :    575.94s CPU    565.13s WALL (  246782 calls)
                                      563.80s GPU  (  246782 calls)
     s_psi        :     20.56s CPU     28.77s WALL (  246782 calls)
                                       27.08s GPU  (  246782 calls)
     g_psi        :      1.39s CPU      3.80s WALL (  191054 calls)
                                        2.61s GPU  (  191054 calls)

     Called by h_psi:
     h_psi:calbec :      8.96s CPU     18.76s WALL (  246782 calls)
                                       17.30s GPU  (  246782 calls)
     vloc_psi     :    505.77s CPU    498.59s WALL (  246782 calls)
                                      497.03s GPU  (  246782 calls)
     add_vuspsi   :     27.59s CPU     32.83s WALL (  246782 calls)
                                       31.37s GPU  (  246782 calls)

     General routines
     calbec       :      7.95s CPU      7.91s WALL (  302510 calls)
     fft          :      3.73s CPU      0.62s WALL (    2025 calls)
                                        0.42s GPU  (    1863 calls)
     ffts         :      0.54s CPU      0.09s WALL (     324 calls)
                                        0.01s GPU  (     162 calls)
     fftw         :     17.11s CPU    375.67s WALL (  839774 calls)
                                      371.02s GPU  (  839774 calls)
     interpolate  :      5.51s CPU      0.49s WALL (     162 calls)
     davcio       :      1.17s CPU      0.66s WALL (    1394 calls)
 
     Parallel routines
 
     PWSCF        :  24m 0.19s CPU  23m30.04s WALL

 
   This run was terminated on:  18:36:47  23Oct2023            

=------------------------------------------------------------------------------=
   JOB DONE.
=------------------------------------------------------------------------------=
