
     Program PWSCF v.7.2 starts on 23Oct2023 at 21:50: 7 

     This program is part of the open-source Quantum ESPRESSO suite
     for quantum simulation of materials; please cite
         "P. Giannozzi et al., J. Phys.:Condens. Matter 21 395502 (2009);
         "P. Giannozzi et al., J. Phys.:Condens. Matter 29 465901 (2017);
         "P. Giannozzi et al., J. Chem. Phys. 152 154105 (2020);
          URL http://www.quantum-espresso.org", 
     in publications or presentations arising from this work. More details at
     http://www.quantum-espresso.org/quote

     Parallel version (MPI & OpenMP), running on      12 processor cores
     Number of MPI processes:                 1
     Threads/MPI process:                    12

     MPI processes distributed on     1 nodes
     60442 MiB available memory on the printing compute node when the environment starts
 
     Reading input from aiida.in

     Current dimensions of program PWSCF are:
     Max number of different atomic species (ntypx) = 10
     Max number of k-points (npk) =  40000
     Max angular momentum in pseudopotentials (lmaxx) =  4
     file Ba.pbesol-spn-kjpaw_psl.1.0.0.UPF: wavefunction(s)  5S 6S renormalized
     Message from routine setup:
     using ibrav=0 with symmetry is DISCOURAGED, use correct ibrav instead
 
     Subspace diagonalization in iterative solution of the eigenvalue problem:
     a serial algorithm will be used

 
     G-vector sticks info
     --------------------
     sticks:   dense  smooth     PW     G-vecs:    dense   smooth      PW
     Sum        6707    3365    913               621885   219863   31527
 
     Using Slab Decomposition
 


     bravais-lattice index     =            0
     lattice parameter (alat)  =      16.2804  a.u.
     unit-cell volume          =    3501.5184 (a.u.)^3
     number of atoms/cell      =           12
     number of atomic types    =            2
     number of electrons       =       136.00
     number of Kohn-Sham states=           82
     kinetic-energy cutoff     =      60.0000  Ry
     charge density cutoff     =     480.0000  Ry
     scf convergence threshold =      2.4E-09
     mixing beta               =       0.2000
     number of iterations used =            8  plain     mixing
     Exchange-correlation= SLA  PW   PSX  PSC
                           (   1   4  10   8   0   0   0)

     GPU acceleration is ACTIVE.


     GPU used by master process:

        Device Number: 0
        Device name: Tesla P100-PCIE-16GB
        Compute capability : 60
        Ratio of single to double precision performance  : 2
        Memory Clock Rate (KHz): 715000
        Memory Bus Width (bits): 4096
        Peak Memory Bandwidth (GB/s): 732.16

     celldm(1)=  16.280369  celldm(2)=   0.000000  celldm(3)=   0.000000
     celldm(4)=   0.000000  celldm(5)=   0.000000  celldm(6)=   0.000000

     crystal axes: (cart. coord. in units of alat)
               a(1) = (   1.000000   0.000000   0.000000 )  
               a(2) = (   0.000000   0.661447   0.000000 )  
               a(3) = (   0.000000   0.000000   1.226785 )  

     reciprocal axes: (cart. coord. in units 2 pi/alat)
               b(1) = (  1.000000  0.000000  0.000000 )  
               b(2) = (  0.000000  1.511836  0.000000 )  
               b(3) = (  0.000000  0.000000  0.815139 )  


     PseudoPot. # 1 for Ba read from file:
     ./pseudo/Ba.pbesol-spn-kjpaw_psl.1.0.0.UPF
     MD5 check sum: f28c4a63d325c1a0d00fd3a4f19b8d73
     Pseudo is Projector augmented-wave + core cor, Zval = 10.0
     Generated using "atomic" code by A. Dal Corso  v.6.0 svn rev. 13079
     Shape of augmentation charge: PSQ
     Using radial grid of 1251 points,  7 beta functions with: 
                l(1) =   0
                l(2) =   0
                l(3) =   0
                l(4) =   1
                l(5) =   1
                l(6) =   2
                l(7) =   2
     Q(r) pseudized with 0 coefficients 


     PseudoPot. # 2 for Sn read from file:
     ./pseudo/sn_pbesol_v1.4.uspp.F.UPF
     MD5 check sum: 463fec1d5456f1e96ec1bfcad4b7b038
     Pseudo is Ultrasoft + core correction, Zval = 14.0
     Generated by new atomic code, or converted to UPF format
     Using radial grid of  891 points,  6 beta functions with: 
                l(1) =   0
                l(2) =   0
                l(3) =   1
                l(4) =   1
                l(5) =   2
                l(6) =   2
     Q(r) pseudized with  8 coefficients,  rinner =    1.350   1.350   1.350
                                                       1.350   1.350

     atomic species   valence    mass     pseudopotential
        Ba            10.00   137.32700     Ba( 1.00)
        Sn            14.00   118.71000     Sn( 1.00)

     Starting magnetic structure 
     atomic species   magnetization
        Ba           0.100
        Sn           0.100

      8 Sym. Ops., with inversion, found ( 6 have fractional translation)


                                    s                        frac. trans.

      isym =  1     identity                                     

 cryst.   s( 1) = (     1          0          0      )
                  (     0          1          0      )
                  (     0          0          1      )

 cart.    s( 1) = (  1.0000000  0.0000000  0.0000000 )
                  (  0.0000000  1.0000000  0.0000000 )
                  (  0.0000000  0.0000000  1.0000000 )


      isym =  2     180 deg rotation - cart. axis [0,0,1]        

 cryst.   s( 2) = (    -1          0          0      )    f =(  0.5000000 )
                  (     0         -1          0      )       (  0.0000000 )
                  (     0          0          1      )       (  0.5000000 )

 cart.    s( 2) = ( -1.0000000  0.0000000  0.0000000 )    f =(  0.5000000 )
                  (  0.0000000 -1.0000000  0.0000000 )       (  0.0000000 )
                  (  0.0000000  0.0000000  1.0000000 )       (  0.6133926 )


      isym =  3     180 deg rotation - cart. axis [0,1,0]        

 cryst.   s( 3) = (    -1          0          0      )    f =(  0.0000000 )
                  (     0          1          0      )       (  0.5000000 )
                  (     0          0         -1      )       (  0.0000000 )

 cart.    s( 3) = ( -1.0000000  0.0000000  0.0000000 )    f =(  0.0000000 )
                  (  0.0000000  1.0000000  0.0000000 )       (  0.3307236 )
                  (  0.0000000  0.0000000 -1.0000000 )       (  0.0000000 )


      isym =  4     180 deg rotation - cart. axis [1,0,0]        

 cryst.   s( 4) = (     1          0          0      )    f =( -0.5000000 )
                  (     0         -1          0      )       (  0.5000000 )
                  (     0          0         -1      )       (  0.5000000 )

 cart.    s( 4) = (  1.0000000  0.0000000  0.0000000 )    f =( -0.5000000 )
                  (  0.0000000 -1.0000000  0.0000000 )       (  0.3307236 )
                  (  0.0000000  0.0000000 -1.0000000 )       (  0.6133926 )


      isym =  5     inversion                                    

 cryst.   s( 5) = (    -1          0          0      )
                  (     0         -1          0      )
                  (     0          0         -1      )

 cart.    s( 5) = ( -1.0000000  0.0000000  0.0000000 )
                  (  0.0000000 -1.0000000  0.0000000 )
                  (  0.0000000  0.0000000 -1.0000000 )


      isym =  6     inv. 180 deg rotation - cart. axis [0,0,1]   

 cryst.   s( 6) = (     1          0          0      )    f =( -0.5000000 )
                  (     0          1          0      )       (  0.0000000 )
                  (     0          0         -1      )       (  0.5000000 )

 cart.    s( 6) = (  1.0000000  0.0000000  0.0000000 )    f =( -0.5000000 )
                  (  0.0000000  1.0000000  0.0000000 )       (  0.0000000 )
                  (  0.0000000  0.0000000 -1.0000000 )       (  0.6133926 )


      isym =  7     inv. 180 deg rotation - cart. axis [0,1,0]   

 cryst.   s( 7) = (     1          0          0      )    f =(  0.0000000 )
                  (     0         -1          0      )       (  0.5000000 )
                  (     0          0          1      )       (  0.0000000 )

 cart.    s( 7) = (  1.0000000  0.0000000  0.0000000 )    f =(  0.0000000 )
                  (  0.0000000 -1.0000000  0.0000000 )       (  0.3307236 )
                  (  0.0000000  0.0000000  1.0000000 )       (  0.0000000 )


      isym =  8     inv. 180 deg rotation - cart. axis [1,0,0]   

 cryst.   s( 8) = (    -1          0          0      )    f =(  0.5000000 )
                  (     0          1          0      )       (  0.5000000 )
                  (     0          0          1      )       (  0.5000000 )

 cart.    s( 8) = ( -1.0000000  0.0000000  0.0000000 )    f =(  0.5000000 )
                  (  0.0000000  1.0000000  0.0000000 )       (  0.3307236 )
                  (  0.0000000  0.0000000  1.0000000 )       (  0.6133926 )


   Cartesian axes

     site n.     atom                  positions (alat units)
         1           Ba  tau(   1) = (   0.9817000   0.4960854   0.8399798  )
         2           Ba  tau(   2) = (   0.4817000   0.4960854   1.0001980  )
         3           Ba  tau(   3) = (   0.0183000   0.1653618   0.3868054  )
         4           Ba  tau(   4) = (   0.5183000   0.1653618   0.2265872  )
         5           Ba  tau(   5) = (   0.8380000   0.4960854   0.0967934  )
         6           Ba  tau(   6) = (   0.3380000   0.4960854   0.5165993  )
         7           Ba  tau(   7) = (   0.1620000   0.1653618   1.1299919  )
         8           Ba  tau(   8) = (   0.6620000   0.1653618   0.7101860  )
         9           Sn  tau(   9) = (   0.7508000   0.4960854   0.4898553  )
        10           Sn  tau(  10) = (   0.2508000   0.4960854   0.1235373  )
        11           Sn  tau(  11) = (   0.2492000   0.1653618   0.7369299  )
        12           Sn  tau(  12) = (   0.7492000   0.1653618   1.1032479  )

   Crystallographic axes

     site n.     atom                  positions (cryst. coord.)
         1           Ba  tau(   1) = (  0.9817000  0.7500000  0.6847000  )
         2           Ba  tau(   2) = (  0.4817000  0.7500000  0.8153000  )
         3           Ba  tau(   3) = (  0.0183000  0.2500000  0.3153000  )
         4           Ba  tau(   4) = (  0.5183000  0.2500000  0.1847000  )
         5           Ba  tau(   5) = (  0.8380000  0.7500000  0.0789000  )
         6           Ba  tau(   6) = (  0.3380000  0.7500000  0.4211000  )
         7           Ba  tau(   7) = (  0.1620000  0.2500000  0.9211000  )
         8           Ba  tau(   8) = (  0.6620000  0.2500000  0.5789000  )
         9           Sn  tau(   9) = (  0.7508000  0.7500000  0.3993000  )
        10           Sn  tau(  10) = (  0.2508000  0.7500000  0.1007000  )
        11           Sn  tau(  11) = (  0.2492000  0.2500000  0.6007000  )
        12           Sn  tau(  12) = (  0.7492000  0.2500000  0.8993000  )

     number of k points=    45  Marzari-Vanderbilt smearing, width (Ry)=  0.0100
                       cart. coord. in units 2pi/alat
        k(    1) = (   0.0000000   0.0000000   0.0000000), wk =   0.0062500
        k(    2) = (   0.0000000   0.0000000   0.2037847), wk =   0.0125000
        k(    3) = (   0.0000000   0.0000000  -0.4075693), wk =   0.0062500
        k(    4) = (   0.0000000   0.1889796   0.0000000), wk =   0.0125000
        k(    5) = (   0.0000000   0.1889796   0.2037847), wk =   0.0250000
        k(    6) = (   0.0000000   0.1889796  -0.4075693), wk =   0.0125000
        k(    7) = (   0.0000000   0.3779591   0.0000000), wk =   0.0125000
        k(    8) = (   0.0000000   0.3779591   0.2037847), wk =   0.0250000
        k(    9) = (   0.0000000   0.3779591  -0.4075693), wk =   0.0125000
        k(   10) = (   0.0000000   0.5669387   0.0000000), wk =   0.0125000
        k(   11) = (   0.0000000   0.5669387   0.2037847), wk =   0.0250000
        k(   12) = (   0.0000000   0.5669387  -0.4075693), wk =   0.0125000
        k(   13) = (   0.0000000  -0.7559182   0.0000000), wk =   0.0062500
        k(   14) = (   0.0000000  -0.7559182   0.2037847), wk =   0.0125000
        k(   15) = (   0.0000000  -0.7559182  -0.4075693), wk =   0.0062500
        k(   16) = (   0.2000000   0.0000000   0.0000000), wk =   0.0125000
        k(   17) = (   0.2000000   0.0000000   0.2037847), wk =   0.0250000
        k(   18) = (   0.2000000   0.0000000  -0.4075693), wk =   0.0125000
        k(   19) = (   0.2000000   0.1889796   0.0000000), wk =   0.0250000
        k(   20) = (   0.2000000   0.1889796   0.2037847), wk =   0.0500000
        k(   21) = (   0.2000000   0.1889796  -0.4075693), wk =   0.0250000
        k(   22) = (   0.2000000   0.3779591   0.0000000), wk =   0.0250000
        k(   23) = (   0.2000000   0.3779591   0.2037847), wk =   0.0500000
        k(   24) = (   0.2000000   0.3779591  -0.4075693), wk =   0.0250000
        k(   25) = (   0.2000000   0.5669387   0.0000000), wk =   0.0250000
        k(   26) = (   0.2000000   0.5669387   0.2037847), wk =   0.0500000
        k(   27) = (   0.2000000   0.5669387  -0.4075693), wk =   0.0250000
        k(   28) = (   0.2000000  -0.7559182   0.0000000), wk =   0.0125000
        k(   29) = (   0.2000000  -0.7559182   0.2037847), wk =   0.0250000
        k(   30) = (   0.2000000  -0.7559182  -0.4075693), wk =   0.0125000
        k(   31) = (   0.4000000   0.0000000   0.0000000), wk =   0.0125000
        k(   32) = (   0.4000000   0.0000000   0.2037847), wk =   0.0250000
        k(   33) = (   0.4000000   0.0000000  -0.4075693), wk =   0.0125000
        k(   34) = (   0.4000000   0.1889796   0.0000000), wk =   0.0250000
        k(   35) = (   0.4000000   0.1889796   0.2037847), wk =   0.0500000
        k(   36) = (   0.4000000   0.1889796  -0.4075693), wk =   0.0250000
        k(   37) = (   0.4000000   0.3779591   0.0000000), wk =   0.0250000
        k(   38) = (   0.4000000   0.3779591   0.2037847), wk =   0.0500000
        k(   39) = (   0.4000000   0.3779591  -0.4075693), wk =   0.0250000
        k(   40) = (   0.4000000   0.5669387   0.0000000), wk =   0.0250000
        k(   41) = (   0.4000000   0.5669387   0.2037847), wk =   0.0500000
        k(   42) = (   0.4000000   0.5669387  -0.4075693), wk =   0.0250000
        k(   43) = (   0.4000000  -0.7559182   0.0000000), wk =   0.0125000
        k(   44) = (   0.4000000  -0.7559182   0.2037847), wk =   0.0250000
        k(   45) = (   0.4000000  -0.7559182  -0.4075693), wk =   0.0125000

                       cryst. coord.
        k(    1) = (   0.0000000   0.0000000   0.0000000), wk =   0.0062500
        k(    2) = (   0.0000000   0.0000000   0.2500000), wk =   0.0125000
        k(    3) = (   0.0000000   0.0000000  -0.5000000), wk =   0.0062500
        k(    4) = (   0.0000000   0.1250000   0.0000000), wk =   0.0125000
        k(    5) = (   0.0000000   0.1250000   0.2500000), wk =   0.0250000
        k(    6) = (   0.0000000   0.1250000  -0.5000000), wk =   0.0125000
        k(    7) = (   0.0000000   0.2500000   0.0000000), wk =   0.0125000
        k(    8) = (   0.0000000   0.2500000   0.2500000), wk =   0.0250000
        k(    9) = (   0.0000000   0.2500000  -0.5000000), wk =   0.0125000
        k(   10) = (   0.0000000   0.3750000   0.0000000), wk =   0.0125000
        k(   11) = (   0.0000000   0.3750000   0.2500000), wk =   0.0250000
        k(   12) = (   0.0000000   0.3750000  -0.5000000), wk =   0.0125000
        k(   13) = (   0.0000000  -0.5000000   0.0000000), wk =   0.0062500
        k(   14) = (   0.0000000  -0.5000000   0.2500000), wk =   0.0125000
        k(   15) = (   0.0000000  -0.5000000  -0.5000000), wk =   0.0062500
        k(   16) = (   0.2000000   0.0000000   0.0000000), wk =   0.0125000
        k(   17) = (   0.2000000   0.0000000   0.2500000), wk =   0.0250000
        k(   18) = (   0.2000000   0.0000000  -0.5000000), wk =   0.0125000
        k(   19) = (   0.2000000   0.1250000   0.0000000), wk =   0.0250000
        k(   20) = (   0.2000000   0.1250000   0.2500000), wk =   0.0500000
        k(   21) = (   0.2000000   0.1250000  -0.5000000), wk =   0.0250000
        k(   22) = (   0.2000000   0.2500000   0.0000000), wk =   0.0250000
        k(   23) = (   0.2000000   0.2500000   0.2500000), wk =   0.0500000
        k(   24) = (   0.2000000   0.2500000  -0.5000000), wk =   0.0250000
        k(   25) = (   0.2000000   0.3750000   0.0000000), wk =   0.0250000
        k(   26) = (   0.2000000   0.3750000   0.2500000), wk =   0.0500000
        k(   27) = (   0.2000000   0.3750000  -0.5000000), wk =   0.0250000
        k(   28) = (   0.2000000  -0.5000000   0.0000000), wk =   0.0125000
        k(   29) = (   0.2000000  -0.5000000   0.2500000), wk =   0.0250000
        k(   30) = (   0.2000000  -0.5000000  -0.5000000), wk =   0.0125000
        k(   31) = (   0.4000000   0.0000000   0.0000000), wk =   0.0125000
        k(   32) = (   0.4000000   0.0000000   0.2500000), wk =   0.0250000
        k(   33) = (   0.4000000   0.0000000  -0.5000000), wk =   0.0125000
        k(   34) = (   0.4000000   0.1250000   0.0000000), wk =   0.0250000
        k(   35) = (   0.4000000   0.1250000   0.2500000), wk =   0.0500000
        k(   36) = (   0.4000000   0.1250000  -0.5000000), wk =   0.0250000
        k(   37) = (   0.4000000   0.2500000   0.0000000), wk =   0.0250000
        k(   38) = (   0.4000000   0.2500000   0.2500000), wk =   0.0500000
        k(   39) = (   0.4000000   0.2500000  -0.5000000), wk =   0.0250000
        k(   40) = (   0.4000000   0.3750000   0.0000000), wk =   0.0250000
        k(   41) = (   0.4000000   0.3750000   0.2500000), wk =   0.0500000
        k(   42) = (   0.4000000   0.3750000  -0.5000000), wk =   0.0250000
        k(   43) = (   0.4000000  -0.5000000   0.0000000), wk =   0.0125000
        k(   44) = (   0.4000000  -0.5000000   0.2500000), wk =   0.0250000
        k(   45) = (   0.4000000  -0.5000000  -0.5000000), wk =   0.0125000

     Dense  grid:   621885 G-vectors     FFT dimensions: ( 120,  80, 144)

     Smooth grid:   219863 G-vectors     FFT dimensions: (  90,  54, 100)

     Dynamical RAM for                 wfc:      34.38 MB

     Dynamical RAM for     wfc (w. buffer):    3129.02 MB

     Dynamical RAM for           str. fact:      18.98 MB

     Dynamical RAM for           local pot:       0.00 MB

     Dynamical RAM for          nlocal pot:      93.93 MB

     Dynamical RAM for                qrad:       4.69 MB

     Dynamical RAM for          rho,v,vnew:     120.22 MB

     Dynamical RAM for               rhoin:      40.07 MB

     Dynamical RAM for            rho*nmix:     303.65 MB

     Dynamical RAM for           G-vectors:      37.26 MB

     Dynamical RAM for          h,s,v(r/c):       1.23 MB

     Dynamical RAM for          <psi|beta>:       0.28 MB

     Dynamical RAM for                 psi:      68.77 MB

     Dynamical RAM for                hpsi:      68.77 MB

     Dynamical RAM for                spsi:      68.77 MB

     Dynamical RAM for      wfcinit/wfcrot:      68.92 MB

     Dynamical RAM for           addusdens:    2030.69 MB

     Dynamical RAM for          addusforce:    2163.61 MB

     Dynamical RAM for         addusstress:    2101.86 MB

     Estimated static dynamical RAM per process >       3.45 GB

     Estimated max dynamical RAM per process >       5.86 GB

     Atomic positions and unit cell read from directory:
     ./out/aiida.save/
 
     Generating pointlists ...
     new r_m :   0.1661 (alat units)  2.7038 (a.u.) for type    1
     new r_m :   0.1661 (alat units)  2.7038 (a.u.) for type    2

     The initial density is read from file :
     ./out/aiida.save/charge-density


     negative rho (up, down):  3.203E+00 1.967E+00
     Starting wfcs from file
     Checking if some PAW data can be deallocated... 

     total cpu time spent up to now is        9.4 secs

     per-process dynamical memory:   763.3 Mb

     Self-consistent Calculation
[tb_dev] Currently allocated     9.16E-05 Mbytes, locked:    0 /   2
[tb_pin] Currently allocated     0.00E+00 Mbytes, locked:    0 /   0

     iteration #  1     ecut=    60.00 Ry     beta= 0.20
     Davidson diagonalization with overlap

---- Real-time Memory Report at c_bands before calling an iterative solver
          1412 MiB given to the printing process from OS
           783 MiB allocation reported by mallinfo(arena+hblkhd)
         58582 MiB available memory on the node where the printing process lives
     GPU memory used/free/total (MiB): 1776 / 14504 / 16280
------------------
     c_bands:  1 eigenvalues not converged
     c_bands:  1 eigenvalues not converged
     c_bands:  1 eigenvalues not converged
     c_bands:  1 eigenvalues not converged
     c_bands:  1 eigenvalues not converged
     c_bands:  1 eigenvalues not converged
     c_bands:  1 eigenvalues not converged
     c_bands:  2 eigenvalues not converged
     c_bands:  2 eigenvalues not converged
     c_bands:  1 eigenvalues not converged
     c_bands:  1 eigenvalues not converged
     c_bands:  1 eigenvalues not converged
     c_bands:  1 eigenvalues not converged
     c_bands:  1 eigenvalues not converged
     c_bands:  1 eigenvalues not converged
     c_bands:  1 eigenvalues not converged
     c_bands:  1 eigenvalues not converged
     c_bands:  1 eigenvalues not converged
     c_bands:  1 eigenvalues not converged
     c_bands:  1 eigenvalues not converged
     c_bands:  1 eigenvalues not converged
     c_bands:  2 eigenvalues not converged
     ethr =  1.00E-05,  avg # of iterations = 12.8
     Minimization algorithm failed to find Fermi energy: reverting to bisection
     Possible cause: smearing is larger than the electronic band-gap.

     negative rho (up, down):  3.410E+00 2.033E+00

     total cpu time spent up to now is       43.3 secs

     total energy              =   -4074.02859886 Ry
     estimated scf accuracy    <       1.09175237 Ry

     total magnetization       =     0.00 Bohr mag/cell
     absolute magnetization    =     6.77 Bohr mag/cell
[tb_dev] Currently allocated     1.99E+01 Mbytes, locked:    0 /  10
[tb_pin] Currently allocated     0.00E+00 Mbytes, locked:    0 /   0

     iteration #  2     ecut=    60.00 Ry     beta= 0.20
     Davidson diagonalization with overlap

---- Real-time Memory Report at c_bands before calling an iterative solver
          5188 MiB given to the printing process from OS
           207 MiB allocation reported by mallinfo(arena+hblkhd)
         51136 MiB available memory on the node where the printing process lives
     GPU memory used/free/total (MiB): 5298 / 10982 / 16280
------------------
     ethr =  8.03E-04,  avg # of iterations =  2.6
     Minimization algorithm failed to find Fermi energy: reverting to bisection
     Possible cause: smearing is larger than the electronic band-gap.

     negative rho (up, down):  3.466E+00 2.034E+00

     total cpu time spent up to now is       60.7 secs

     total energy              =   -4074.07137064 Ry
     estimated scf accuracy    <       0.92362991 Ry

     total magnetization       =     0.00 Bohr mag/cell
     absolute magnetization    =     5.24 Bohr mag/cell
[tb_dev] Currently allocated     1.99E+01 Mbytes, locked:    0 /  10
[tb_pin] Currently allocated     0.00E+00 Mbytes, locked:    0 /   0

     iteration #  3     ecut=    60.00 Ry     beta= 0.20
     Davidson diagonalization with overlap

---- Real-time Memory Report at c_bands before calling an iterative solver
          5261 MiB given to the printing process from OS
           243 MiB allocation reported by mallinfo(arena+hblkhd)
         51100 MiB available memory on the node where the printing process lives
     GPU memory used/free/total (MiB): 5298 / 10982 / 16280
------------------
     ethr =  6.79E-04,  avg # of iterations =  2.0
     Minimization algorithm failed to find Fermi energy: reverting to bisection
     Possible cause: smearing is larger than the electronic band-gap.

     negative rho (up, down):  3.386E+00 1.983E+00

     total cpu time spent up to now is       77.5 secs

     total energy              =   -4074.05292984 Ry
     estimated scf accuracy    <       2.17602797 Ry

     total magnetization       =     0.00 Bohr mag/cell
     absolute magnetization    =     5.06 Bohr mag/cell
[tb_dev] Currently allocated     1.99E+01 Mbytes, locked:    0 /  10
[tb_pin] Currently allocated     0.00E+00 Mbytes, locked:    0 /   0

     iteration #  4     ecut=    60.00 Ry     beta= 0.20
     Davidson diagonalization with overlap

---- Real-time Memory Report at c_bands before calling an iterative solver
          5312 MiB given to the printing process from OS
           278 MiB allocation reported by mallinfo(arena+hblkhd)
         51065 MiB available memory on the node where the printing process lives
     GPU memory used/free/total (MiB): 5298 / 10982 / 16280
------------------
     ethr =  6.79E-04,  avg # of iterations =  1.3
     Minimization algorithm failed to find Fermi energy: reverting to bisection
     Possible cause: smearing is larger than the electronic band-gap.

     negative rho (up, down):  3.395E+00 1.993E+00

     total cpu time spent up to now is       93.6 secs

     total energy              =   -4074.06411480 Ry
     estimated scf accuracy    <       2.08771263 Ry

     total magnetization       =     0.00 Bohr mag/cell
     absolute magnetization    =     6.05 Bohr mag/cell
[tb_dev] Currently allocated     1.99E+01 Mbytes, locked:    0 /  10
[tb_pin] Currently allocated     0.00E+00 Mbytes, locked:    0 /   0

     iteration #  5     ecut=    60.00 Ry     beta= 0.20
     Davidson diagonalization with overlap

---- Real-time Memory Report at c_bands before calling an iterative solver
          5348 MiB given to the printing process from OS
           314 MiB allocation reported by mallinfo(arena+hblkhd)
         51030 MiB available memory on the node where the printing process lives
     GPU memory used/free/total (MiB): 5298 / 10982 / 16280
------------------
     ethr =  6.79E-04,  avg # of iterations =  1.0
     Minimization algorithm failed to find Fermi energy: reverting to bisection
     Possible cause: smearing is larger than the electronic band-gap.

     negative rho (up, down):  3.393E+00 2.118E+00

     total cpu time spent up to now is      109.3 secs

     total energy              =   -4074.10051276 Ry
     estimated scf accuracy    <       2.23306250 Ry

     total magnetization       =    -0.00 Bohr mag/cell
     absolute magnetization    =     6.06 Bohr mag/cell
[tb_dev] Currently allocated     1.99E+01 Mbytes, locked:    0 /  10
[tb_pin] Currently allocated     0.00E+00 Mbytes, locked:    0 /   0

     iteration #  6     ecut=    60.00 Ry     beta= 0.20
     Davidson diagonalization with overlap

---- Real-time Memory Report at c_bands before calling an iterative solver
          5383 MiB given to the printing process from OS
           350 MiB allocation reported by mallinfo(arena+hblkhd)
         50997 MiB available memory on the node where the printing process lives
     GPU memory used/free/total (MiB): 5298 / 10982 / 16280
------------------
     ethr =  6.79E-04,  avg # of iterations =  3.2
     Minimization algorithm failed to find Fermi energy: reverting to bisection
     Possible cause: smearing is larger than the electronic band-gap.

     negative rho (up, down):  3.190E+00 2.146E+00

     total cpu time spent up to now is      127.5 secs

     total energy              =   -4074.04108501 Ry
     estimated scf accuracy    <       6.58515993 Ry

     total magnetization       =     0.00 Bohr mag/cell
     absolute magnetization    =     3.10 Bohr mag/cell
[tb_dev] Currently allocated     1.99E+01 Mbytes, locked:    0 /  10
[tb_pin] Currently allocated     0.00E+00 Mbytes, locked:    0 /   0

     iteration #  7     ecut=    60.00 Ry     beta= 0.20
     Davidson diagonalization with overlap

---- Real-time Memory Report at c_bands before calling an iterative solver
          5412 MiB given to the printing process from OS
           379 MiB allocation reported by mallinfo(arena+hblkhd)
         50968 MiB available memory on the node where the printing process lives
     GPU memory used/free/total (MiB): 5298 / 10982 / 16280
------------------
     ethr =  6.79E-04,  avg # of iterations =  2.6
     Minimization algorithm failed to find Fermi energy: reverting to bisection
     Possible cause: smearing is larger than the electronic band-gap.

     negative rho (up, down):  3.040E+00 2.395E+00

     total cpu time spent up to now is      145.0 secs

     total energy              =   -4074.09280100 Ry
     estimated scf accuracy    <       3.39364473 Ry

     total magnetization       =     0.01 Bohr mag/cell
     absolute magnetization    =     6.09 Bohr mag/cell
[tb_dev] Currently allocated     1.99E+01 Mbytes, locked:    0 /  10
[tb_pin] Currently allocated     0.00E+00 Mbytes, locked:    0 /   0

     iteration #  8     ecut=    60.00 Ry     beta= 0.20
     Davidson diagonalization with overlap

---- Real-time Memory Report at c_bands before calling an iterative solver
          5441 MiB given to the printing process from OS
           409 MiB allocation reported by mallinfo(arena+hblkhd)
         50939 MiB available memory on the node where the printing process lives
     GPU memory used/free/total (MiB): 5298 / 10982 / 16280
------------------
     ethr =  6.79E-04,  avg # of iterations =  4.1
     Minimization algorithm failed to find Fermi energy: reverting to bisection
     Possible cause: smearing is larger than the electronic band-gap.

     negative rho (up, down):  3.477E+00 1.749E+00

     total cpu time spent up to now is      164.0 secs

     total energy              =   -4073.88756065 Ry
     estimated scf accuracy    <       9.39181483 Ry

     total magnetization       =     0.01 Bohr mag/cell
     absolute magnetization    =     9.90 Bohr mag/cell
[tb_dev] Currently allocated     1.99E+01 Mbytes, locked:    0 /  10
[tb_pin] Currently allocated     0.00E+00 Mbytes, locked:    0 /   0

     iteration #  9     ecut=    60.00 Ry     beta= 0.20
     Davidson diagonalization with overlap

---- Real-time Memory Report at c_bands before calling an iterative solver
          5472 MiB given to the printing process from OS
           439 MiB allocation reported by mallinfo(arena+hblkhd)
         50909 MiB available memory on the node where the printing process lives
     GPU memory used/free/total (MiB): 5298 / 10982 / 16280
------------------
     ethr =  6.79E-04,  avg # of iterations =  3.6
     Minimization algorithm failed to find Fermi energy: reverting to bisection
     Possible cause: smearing is larger than the electronic band-gap.

     negative rho (up, down):  3.427E+00 1.756E+00

     total cpu time spent up to now is      183.6 secs

     total energy              =   -4074.07991999 Ry
     estimated scf accuracy    <       4.03185097 Ry

     total magnetization       =    -0.01 Bohr mag/cell
     absolute magnetization    =     7.08 Bohr mag/cell
[tb_dev] Currently allocated     1.99E+01 Mbytes, locked:    0 /  10
[tb_pin] Currently allocated     0.00E+00 Mbytes, locked:    0 /   0

     iteration # 10     ecut=    60.00 Ry     beta= 0.20
     Davidson diagonalization with overlap

---- Real-time Memory Report at c_bands before calling an iterative solver
          5502 MiB given to the printing process from OS
           470 MiB allocation reported by mallinfo(arena+hblkhd)
         50879 MiB available memory on the node where the printing process lives
     GPU memory used/free/total (MiB): 5298 / 10982 / 16280
------------------
     ethr =  6.79E-04,  avg # of iterations =  1.0
     Minimization algorithm failed to find Fermi energy: reverting to bisection
     Possible cause: smearing is larger than the electronic band-gap.

     negative rho (up, down):  3.309E+00 1.700E+00

     total cpu time spent up to now is      199.5 secs

     total energy              =   -4074.08231160 Ry
     estimated scf accuracy    <       3.44025658 Ry

     total magnetization       =    -0.00 Bohr mag/cell
     absolute magnetization    =     7.14 Bohr mag/cell
[tb_dev] Currently allocated     1.99E+01 Mbytes, locked:    0 /  10
[tb_pin] Currently allocated     0.00E+00 Mbytes, locked:    0 /   0

     iteration # 11     ecut=    60.00 Ry     beta= 0.20
     Davidson diagonalization with overlap

---- Real-time Memory Report at c_bands before calling an iterative solver
          5518 MiB given to the printing process from OS
           487 MiB allocation reported by mallinfo(arena+hblkhd)
         50860 MiB available memory on the node where the printing process lives
     GPU memory used/free/total (MiB): 5298 / 10982 / 16280
------------------
     ethr =  6.79E-04,  avg # of iterations =  1.3
     Minimization algorithm failed to find Fermi energy: reverting to bisection
     Possible cause: smearing is larger than the electronic band-gap.

     negative rho (up, down):  3.168E+00 1.583E+00

     total cpu time spent up to now is      216.0 secs

     total energy              =   -4074.05031558 Ry
     estimated scf accuracy    <       3.10375936 Ry

     total magnetization       =    -0.00 Bohr mag/cell
     absolute magnetization    =     7.06 Bohr mag/cell
[tb_dev] Currently allocated     1.99E+01 Mbytes, locked:    0 /  10
[tb_pin] Currently allocated     0.00E+00 Mbytes, locked:    0 /   0

     iteration # 12     ecut=    60.00 Ry     beta= 0.20
     Davidson diagonalization with overlap

---- Real-time Memory Report at c_bands before calling an iterative solver
          5542 MiB given to the printing process from OS
           504 MiB allocation reported by mallinfo(arena+hblkhd)
         50844 MiB available memory on the node where the printing process lives
     GPU memory used/free/total (MiB): 5298 / 10982 / 16280
------------------
     ethr =  6.79E-04,  avg # of iterations =  5.3
     Minimization algorithm failed to find Fermi energy: reverting to bisection
     Possible cause: smearing is larger than the electronic band-gap.

     negative rho (up, down):  3.166E+00 1.675E+00

     total cpu time spent up to now is      236.4 secs

     total energy              =   -4074.00121778 Ry
     estimated scf accuracy    <      16.30557985 Ry

     total magnetization       =    -0.01 Bohr mag/cell
     absolute magnetization    =    13.20 Bohr mag/cell
[tb_dev] Currently allocated     1.99E+01 Mbytes, locked:    0 /  10
[tb_pin] Currently allocated     0.00E+00 Mbytes, locked:    0 /   0

     iteration # 13     ecut=    60.00 Ry     beta= 0.20
     Davidson diagonalization with overlap

---- Real-time Memory Report at c_bands before calling an iterative solver
          5559 MiB given to the printing process from OS
           520 MiB allocation reported by mallinfo(arena+hblkhd)
         50826 MiB available memory on the node where the printing process lives
     GPU memory used/free/total (MiB): 5298 / 10982 / 16280
------------------
     ethr =  6.79E-04,  avg # of iterations =  3.0
     Minimization algorithm failed to find Fermi energy: reverting to bisection
     Possible cause: smearing is larger than the electronic band-gap.

     negative rho (up, down):  3.008E+00 1.782E+00

     total cpu time spent up to now is      254.8 secs

     total energy              =   -4074.00418369 Ry
     estimated scf accuracy    <       3.81916727 Ry

     total magnetization       =    -0.00 Bohr mag/cell
     absolute magnetization    =     5.65 Bohr mag/cell
[tb_dev] Currently allocated     1.99E+01 Mbytes, locked:    0 /  10
[tb_pin] Currently allocated     0.00E+00 Mbytes, locked:    0 /   0

     iteration # 14     ecut=    60.00 Ry     beta= 0.20
     Davidson diagonalization with overlap

---- Real-time Memory Report at c_bands before calling an iterative solver
          5576 MiB given to the printing process from OS
           537 MiB allocation reported by mallinfo(arena+hblkhd)
         50813 MiB available memory on the node where the printing process lives
     GPU memory used/free/total (MiB): 5298 / 10982 / 16280
------------------
     ethr =  6.79E-04,  avg # of iterations =  2.8
     Minimization algorithm failed to find Fermi energy: reverting to bisection
     Possible cause: smearing is larger than the electronic band-gap.

     negative rho (up, down):  3.002E+00 1.857E+00

     total cpu time spent up to now is      272.4 secs

     total energy              =   -4074.04262821 Ry
     estimated scf accuracy    <       0.40836430 Ry

     total magnetization       =     0.00 Bohr mag/cell
     absolute magnetization    =     2.89 Bohr mag/cell
[tb_dev] Currently allocated     1.99E+01 Mbytes, locked:    0 /  10
[tb_pin] Currently allocated     0.00E+00 Mbytes, locked:    0 /   0

     iteration # 15     ecut=    60.00 Ry     beta= 0.20
     Davidson diagonalization with overlap

---- Real-time Memory Report at c_bands before calling an iterative solver
          5593 MiB given to the printing process from OS
           554 MiB allocation reported by mallinfo(arena+hblkhd)
         50793 MiB available memory on the node where the printing process lives
     GPU memory used/free/total (MiB): 5298 / 10982 / 16280
------------------
     ethr =  3.00E-04,  avg # of iterations =  5.1
     Minimization algorithm failed to find Fermi energy: reverting to bisection
     Possible cause: smearing is larger than the electronic band-gap.

     negative rho (up, down):  3.080E+00 2.156E+00

     total cpu time spent up to now is      291.9 secs

     total energy              =   -4074.03640362 Ry
     estimated scf accuracy    <       2.71545899 Ry

     total magnetization       =     0.01 Bohr mag/cell
     absolute magnetization    =     9.97 Bohr mag/cell
[tb_dev] Currently allocated     1.99E+01 Mbytes, locked:    0 /  10
[tb_pin] Currently allocated     0.00E+00 Mbytes, locked:    0 /   0

     iteration # 16     ecut=    60.00 Ry     beta= 0.20
     Davidson diagonalization with overlap

---- Real-time Memory Report at c_bands before calling an iterative solver
          5610 MiB given to the printing process from OS
           571 MiB allocation reported by mallinfo(arena+hblkhd)
         50778 MiB available memory on the node where the printing process lives
     GPU memory used/free/total (MiB): 5298 / 10982 / 16280
------------------
     ethr =  3.00E-04,  avg # of iterations =  4.0
     Minimization algorithm failed to find Fermi energy: reverting to bisection
     Possible cause: smearing is larger than the electronic band-gap.

     negative rho (up, down):  3.000E+00 2.199E+00

     total cpu time spent up to now is      311.5 secs

     total energy              =   -4074.14610188 Ry
     estimated scf accuracy    <       4.23733154 Ry

     total magnetization       =     0.00 Bohr mag/cell
     absolute magnetization    =     5.17 Bohr mag/cell
[tb_dev] Currently allocated     1.99E+01 Mbytes, locked:    0 /  10
[tb_pin] Currently allocated     0.00E+00 Mbytes, locked:    0 /   0

     iteration # 17     ecut=    60.00 Ry     beta= 0.20
     Davidson diagonalization with overlap

---- Real-time Memory Report at c_bands before calling an iterative solver
          5627 MiB given to the printing process from OS
           588 MiB allocation reported by mallinfo(arena+hblkhd)
         50760 MiB available memory on the node where the printing process lives
     GPU memory used/free/total (MiB): 5298 / 10982 / 16280
------------------
     ethr =  3.00E-04,  avg # of iterations =  3.2
     Minimization algorithm failed to find Fermi energy: reverting to bisection
     Possible cause: smearing is larger than the electronic band-gap.

     negative rho (up, down):  3.072E+00 1.930E+00

     total cpu time spent up to now is      329.4 secs

     total energy              =   -4074.06725374 Ry
     estimated scf accuracy    <       8.42624375 Ry

     total magnetization       =     0.01 Bohr mag/cell
     absolute magnetization    =     7.33 Bohr mag/cell
[tb_dev] Currently allocated     1.99E+01 Mbytes, locked:    0 /  10
[tb_pin] Currently allocated     0.00E+00 Mbytes, locked:    0 /   0

     iteration # 18     ecut=    60.00 Ry     beta= 0.20
     Davidson diagonalization with overlap

---- Real-time Memory Report at c_bands before calling an iterative solver
          5644 MiB given to the printing process from OS
           605 MiB allocation reported by mallinfo(arena+hblkhd)
         50745 MiB available memory on the node where the printing process lives
     GPU memory used/free/total (MiB): 5298 / 10982 / 16280
------------------
     ethr =  3.00E-04,  avg # of iterations =  2.8
     Minimization algorithm failed to find Fermi energy: reverting to bisection
     Possible cause: smearing is larger than the electronic band-gap.

     negative rho (up, down):  2.929E+00 2.034E+00

     total cpu time spent up to now is      347.2 secs

     total energy              =   -4074.11147238 Ry
     estimated scf accuracy    <       6.48124391 Ry

     total magnetization       =     0.00 Bohr mag/cell
     absolute magnetization    =     6.91 Bohr mag/cell
[tb_dev] Currently allocated     1.99E+01 Mbytes, locked:    0 /  10
[tb_pin] Currently allocated     0.00E+00 Mbytes, locked:    0 /   0

     iteration # 19     ecut=    60.00 Ry     beta= 0.20
     Davidson diagonalization with overlap

---- Real-time Memory Report at c_bands before calling an iterative solver
          5661 MiB given to the printing process from OS
           621 MiB allocation reported by mallinfo(arena+hblkhd)
         50728 MiB available memory on the node where the printing process lives
     GPU memory used/free/total (MiB): 5298 / 10982 / 16280
------------------
     ethr =  3.00E-04,  avg # of iterations =  2.7
     Minimization algorithm failed to find Fermi energy: reverting to bisection
     Possible cause: smearing is larger than the electronic band-gap.

     negative rho (up, down):  3.050E+00 2.017E+00

     total cpu time spent up to now is      364.9 secs

     total energy              =   -4074.06955841 Ry
     estimated scf accuracy    <       6.87817698 Ry

     total magnetization       =     0.01 Bohr mag/cell
     absolute magnetization    =     7.82 Bohr mag/cell
[tb_dev] Currently allocated     1.99E+01 Mbytes, locked:    0 /  10
[tb_pin] Currently allocated     0.00E+00 Mbytes, locked:    0 /   0

     iteration # 20     ecut=    60.00 Ry     beta= 0.20
     Davidson diagonalization with overlap

---- Real-time Memory Report at c_bands before calling an iterative solver
          5677 MiB given to the printing process from OS
           638 MiB allocation reported by mallinfo(arena+hblkhd)
         50712 MiB available memory on the node where the printing process lives
     GPU memory used/free/total (MiB): 5298 / 10982 / 16280
------------------
     ethr =  3.00E-04,  avg # of iterations =  2.1
     Minimization algorithm failed to find Fermi energy: reverting to bisection
     Possible cause: smearing is larger than the electronic band-gap.

     negative rho (up, down):  3.109E+00 1.988E+00

     total cpu time spent up to now is      381.8 secs

     total energy              =   -4074.06575135 Ry
     estimated scf accuracy    <       3.70535784 Ry

     total magnetization       =     0.00 Bohr mag/cell
     absolute magnetization    =     5.69 Bohr mag/cell
[tb_dev] Currently allocated     1.99E+01 Mbytes, locked:    0 /  10
[tb_pin] Currently allocated     0.00E+00 Mbytes, locked:    0 /   0

     iteration # 21     ecut=    60.00 Ry     beta= 0.20
     Davidson diagonalization with overlap

---- Real-time Memory Report at c_bands before calling an iterative solver
          5701 MiB given to the printing process from OS
           655 MiB allocation reported by mallinfo(arena+hblkhd)
         50694 MiB available memory on the node where the printing process lives
     GPU memory used/free/total (MiB): 5298 / 10982 / 16280
------------------
     ethr =  3.00E-04,  avg # of iterations =  1.5
     Minimization algorithm failed to find Fermi energy: reverting to bisection
     Possible cause: smearing is larger than the electronic band-gap.

     negative rho (up, down):  3.119E+00 1.892E+00

     total cpu time spent up to now is      398.2 secs

     total energy              =   -4074.03560732 Ry
     estimated scf accuracy    <       2.79499890 Ry

     total magnetization       =     0.00 Bohr mag/cell
     absolute magnetization    =     4.74 Bohr mag/cell
[tb_dev] Currently allocated     1.99E+01 Mbytes, locked:    0 /  10
[tb_pin] Currently allocated     0.00E+00 Mbytes, locked:    0 /   0

     iteration # 22     ecut=    60.00 Ry     beta= 0.20
     Davidson diagonalization with overlap

---- Real-time Memory Report at c_bands before calling an iterative solver
          5718 MiB given to the printing process from OS
           672 MiB allocation reported by mallinfo(arena+hblkhd)
         50677 MiB available memory on the node where the printing process lives
     GPU memory used/free/total (MiB): 5298 / 10982 / 16280
------------------
     ethr =  3.00E-04,  avg # of iterations =  2.3
     Minimization algorithm failed to find Fermi energy: reverting to bisection
     Possible cause: smearing is larger than the electronic band-gap.

     negative rho (up, down):  3.222E+00 1.826E+00

     total cpu time spent up to now is      415.6 secs

     total energy              =   -4074.04345785 Ry
     estimated scf accuracy    <       1.72494735 Ry

     total magnetization       =     0.01 Bohr mag/cell
     absolute magnetization    =     7.77 Bohr mag/cell
[tb_dev] Currently allocated     1.99E+01 Mbytes, locked:    0 /  10
[tb_pin] Currently allocated     0.00E+00 Mbytes, locked:    0 /   0

     iteration # 23     ecut=    60.00 Ry     beta= 0.20
     Davidson diagonalization with overlap

---- Real-time Memory Report at c_bands before calling an iterative solver
          5734 MiB given to the printing process from OS
           689 MiB allocation reported by mallinfo(arena+hblkhd)
         50661 MiB available memory on the node where the printing process lives
     GPU memory used/free/total (MiB): 5298 / 10982 / 16280
------------------
     ethr =  3.00E-04,  avg # of iterations =  3.0
     Minimization algorithm failed to find Fermi energy: reverting to bisection
     Possible cause: smearing is larger than the electronic band-gap.

     negative rho (up, down):  3.232E+00 1.830E+00

     total cpu time spent up to now is      433.9 secs

     total energy              =   -4074.07224741 Ry
     estimated scf accuracy    <       3.40610760 Ry

     total magnetization       =     0.00 Bohr mag/cell
     absolute magnetization    =     9.30 Bohr mag/cell
[tb_dev] Currently allocated     1.99E+01 Mbytes, locked:    0 /  10
[tb_pin] Currently allocated     0.00E+00 Mbytes, locked:    0 /   0

     iteration # 24     ecut=    60.00 Ry     beta= 0.20
     Davidson diagonalization with overlap

---- Real-time Memory Report at c_bands before calling an iterative solver
          5751 MiB given to the printing process from OS
           706 MiB allocation reported by mallinfo(arena+hblkhd)
         50644 MiB available memory on the node where the printing process lives
     GPU memory used/free/total (MiB): 5298 / 10982 / 16280
------------------
     ethr =  3.00E-04,  avg # of iterations =  1.0
     Minimization algorithm failed to find Fermi energy: reverting to bisection
     Possible cause: smearing is larger than the electronic band-gap.

     negative rho (up, down):  3.207E+00 1.890E+00

     total cpu time spent up to now is      449.8 secs

     total energy              =   -4074.03708209 Ry
     estimated scf accuracy    <       2.71120280 Ry

     total magnetization       =     0.00 Bohr mag/cell
     absolute magnetization    =     8.85 Bohr mag/cell
[tb_dev] Currently allocated     1.99E+01 Mbytes, locked:    0 /  10
[tb_pin] Currently allocated     0.00E+00 Mbytes, locked:    0 /   0

     iteration # 25     ecut=    60.00 Ry     beta= 0.20
     Davidson diagonalization with overlap

---- Real-time Memory Report at c_bands before calling an iterative solver
          5768 MiB given to the printing process from OS
           722 MiB allocation reported by mallinfo(arena+hblkhd)
         50626 MiB available memory on the node where the printing process lives
     GPU memory used/free/total (MiB): 5298 / 10982 / 16280
------------------
     ethr =  3.00E-04,  avg # of iterations =  2.0
     Minimization algorithm failed to find Fermi energy: reverting to bisection
     Possible cause: smearing is larger than the electronic band-gap.

     negative rho (up, down):  3.303E+00 1.862E+00

     total cpu time spent up to now is      466.8 secs

     total energy              =   -4074.05114302 Ry
     estimated scf accuracy    <       1.35062036 Ry

     total magnetization       =    -0.00 Bohr mag/cell
     absolute magnetization    =     7.28 Bohr mag/cell
[tb_dev] Currently allocated     1.99E+01 Mbytes, locked:    0 /  10
[tb_pin] Currently allocated     0.00E+00 Mbytes, locked:    0 /   0

     iteration # 26     ecut=    60.00 Ry     beta= 0.20
     Davidson diagonalization with overlap

---- Real-time Memory Report at c_bands before calling an iterative solver
          5791 MiB given to the printing process from OS
           739 MiB allocation reported by mallinfo(arena+hblkhd)
         50611 MiB available memory on the node where the printing process lives
     GPU memory used/free/total (MiB): 5298 / 10982 / 16280
------------------
     ethr =  3.00E-04,  avg # of iterations =  1.0
     Minimization algorithm failed to find Fermi energy: reverting to bisection
     Possible cause: smearing is larger than the electronic band-gap.

     negative rho (up, down):  3.444E+00 1.863E+00

     total cpu time spent up to now is      482.7 secs

     total energy              =   -4074.07311343 Ry
     estimated scf accuracy    <       1.35107221 Ry

     total magnetization       =    -0.00 Bohr mag/cell
     absolute magnetization    =     7.37 Bohr mag/cell
[tb_dev] Currently allocated     1.99E+01 Mbytes, locked:    0 /  10
[tb_pin] Currently allocated     0.00E+00 Mbytes, locked:    0 /   0

     iteration # 27     ecut=    60.00 Ry     beta= 0.20
     Davidson diagonalization with overlap

---- Real-time Memory Report at c_bands before calling an iterative solver
          5808 MiB given to the printing process from OS
           756 MiB allocation reported by mallinfo(arena+hblkhd)
         50593 MiB available memory on the node where the printing process lives
     GPU memory used/free/total (MiB): 5298 / 10982 / 16280
------------------
     ethr =  3.00E-04,  avg # of iterations =  3.2
     Minimization algorithm failed to find Fermi energy: reverting to bisection
     Possible cause: smearing is larger than the electronic band-gap.

     negative rho (up, down):  3.372E+00 1.886E+00

     total cpu time spent up to now is      501.0 secs

     total energy              =   -4074.09946028 Ry
     estimated scf accuracy    <       5.57968914 Ry

     total magnetization       =    -0.00 Bohr mag/cell
     absolute magnetization    =     9.26 Bohr mag/cell
[tb_dev] Currently allocated     1.99E+01 Mbytes, locked:    0 /  10
[tb_pin] Currently allocated     0.00E+00 Mbytes, locked:    0 /   0

     iteration # 28     ecut=    60.00 Ry     beta= 0.20
     Davidson diagonalization with overlap

---- Real-time Memory Report at c_bands before calling an iterative solver
          5825 MiB given to the printing process from OS
           773 MiB allocation reported by mallinfo(arena+hblkhd)
         50577 MiB available memory on the node where the printing process lives
     GPU memory used/free/total (MiB): 5298 / 10982 / 16280
------------------
     ethr =  3.00E-04,  avg # of iterations =  1.0
     Minimization algorithm failed to find Fermi energy: reverting to bisection
     Possible cause: smearing is larger than the electronic band-gap.

     negative rho (up, down):  3.300E+00 1.844E+00

     total cpu time spent up to now is      517.0 secs

     total energy              =   -4074.04965304 Ry
     estimated scf accuracy    <       5.03145959 Ry

     total magnetization       =    -0.00 Bohr mag/cell
     absolute magnetization    =     9.03 Bohr mag/cell
[tb_dev] Currently allocated     1.99E+01 Mbytes, locked:    0 /  10
[tb_pin] Currently allocated     0.00E+00 Mbytes, locked:    0 /   0

     iteration # 29     ecut=    60.00 Ry     beta= 0.20
     Davidson diagonalization with overlap

---- Real-time Memory Report at c_bands before calling an iterative solver
          5842 MiB given to the printing process from OS
           790 MiB allocation reported by mallinfo(arena+hblkhd)
         50560 MiB available memory on the node where the printing process lives
     GPU memory used/free/total (MiB): 5298 / 10982 / 16280
------------------
     ethr =  3.00E-04,  avg # of iterations =  2.7
     Minimization algorithm failed to find Fermi energy: reverting to bisection
     Possible cause: smearing is larger than the electronic band-gap.

     negative rho (up, down):  3.207E+00 1.952E+00

     total cpu time spent up to now is      534.5 secs

     total energy              =   -4074.00928921 Ry
     estimated scf accuracy    <       3.02897333 Ry

     total magnetization       =    -0.00 Bohr mag/cell
     absolute magnetization    =     8.69 Bohr mag/cell
[tb_dev] Currently allocated     1.99E+01 Mbytes, locked:    0 /  10
[tb_pin] Currently allocated     0.00E+00 Mbytes, locked:    0 /   0

     iteration # 30     ecut=    60.00 Ry     beta= 0.20
     Davidson diagonalization with overlap

---- Real-time Memory Report at c_bands before calling an iterative solver
          5859 MiB given to the printing process from OS
           807 MiB allocation reported by mallinfo(arena+hblkhd)
         50541 MiB available memory on the node where the printing process lives
     GPU memory used/free/total (MiB): 5298 / 10982 / 16280
------------------
     ethr =  3.00E-04,  avg # of iterations =  2.9
     Minimization algorithm failed to find Fermi energy: reverting to bisection
     Possible cause: smearing is larger than the electronic band-gap.

     negative rho (up, down):  3.203E+00 1.963E+00

     total cpu time spent up to now is      552.6 secs

     total energy              =   -4074.04228879 Ry
     estimated scf accuracy    <       0.52773536 Ry

     total magnetization       =    -0.00 Bohr mag/cell
     absolute magnetization    =     4.81 Bohr mag/cell
[tb_dev] Currently allocated     1.99E+01 Mbytes, locked:    0 /  10
[tb_pin] Currently allocated     0.00E+00 Mbytes, locked:    0 /   0

     iteration # 31     ecut=    60.00 Ry     beta= 0.20
     Davidson diagonalization with overlap

---- Real-time Memory Report at c_bands before calling an iterative solver
          5883 MiB given to the printing process from OS
           824 MiB allocation reported by mallinfo(arena+hblkhd)
         50526 MiB available memory on the node where the printing process lives
     GPU memory used/free/total (MiB): 5298 / 10982 / 16280
------------------
     ethr =  3.00E-04,  avg # of iterations =  1.0
     Minimization algorithm failed to find Fermi energy: reverting to bisection
     Possible cause: smearing is larger than the electronic band-gap.

     negative rho (up, down):  3.296E+00 1.913E+00

     total cpu time spent up to now is      568.4 secs

     total energy              =   -4074.04383161 Ry
     estimated scf accuracy    <       0.63011354 Ry

     total magnetization       =    -0.00 Bohr mag/cell
     absolute magnetization    =     5.18 Bohr mag/cell
[tb_dev] Currently allocated     1.99E+01 Mbytes, locked:    0 /  10
[tb_pin] Currently allocated     0.00E+00 Mbytes, locked:    0 /   0

     iteration # 32     ecut=    60.00 Ry     beta= 0.20
     Davidson diagonalization with overlap

---- Real-time Memory Report at c_bands before calling an iterative solver
          5900 MiB given to the printing process from OS
           840 MiB allocation reported by mallinfo(arena+hblkhd)
         50504 MiB available memory on the node where the printing process lives
     GPU memory used/free/total (MiB): 5298 / 10982 / 16280
------------------
     ethr =  3.00E-04,  avg # of iterations =  1.6
     Minimization algorithm failed to find Fermi energy: reverting to bisection
     Possible cause: smearing is larger than the electronic band-gap.

     negative rho (up, down):  3.428E+00 1.982E+00

     total cpu time spent up to now is      584.9 secs

     total energy              =   -4074.09390592 Ry
     estimated scf accuracy    <       1.01342846 Ry

     total magnetization       =    -0.00 Bohr mag/cell
     absolute magnetization    =     6.17 Bohr mag/cell
[tb_dev] Currently allocated     1.99E+01 Mbytes, locked:    0 /  10
[tb_pin] Currently allocated     0.00E+00 Mbytes, locked:    0 /   0

     iteration # 33     ecut=    60.00 Ry     beta= 0.20
     Davidson diagonalization with overlap

---- Real-time Memory Report at c_bands before calling an iterative solver
          5917 MiB given to the printing process from OS
           857 MiB allocation reported by mallinfo(arena+hblkhd)
         50491 MiB available memory on the node where the printing process lives
     GPU memory used/free/total (MiB): 5298 / 10982 / 16280
------------------
     ethr =  3.00E-04,  avg # of iterations =  3.1
     Minimization algorithm failed to find Fermi energy: reverting to bisection
     Possible cause: smearing is larger than the electronic band-gap.

     negative rho (up, down):  3.400E+00 1.731E+00

     total cpu time spent up to now is      603.4 secs

     total energy              =   -4073.92612258 Ry
     estimated scf accuracy    <       8.22122386 Ry

     total magnetization       =    -0.00 Bohr mag/cell
     absolute magnetization    =    10.92 Bohr mag/cell
[tb_dev] Currently allocated     1.99E+01 Mbytes, locked:    0 /  10
[tb_pin] Currently allocated     0.00E+00 Mbytes, locked:    0 /   0

     iteration # 34     ecut=    60.00 Ry     beta= 0.20
     Davidson diagonalization with overlap

---- Real-time Memory Report at c_bands before calling an iterative solver
          5941 MiB given to the printing process from OS
           874 MiB allocation reported by mallinfo(arena+hblkhd)
         50471 MiB available memory on the node where the printing process lives
     GPU memory used/free/total (MiB): 5298 / 10982 / 16280
------------------
     ethr =  3.00E-04,  avg # of iterations =  4.5
     Minimization algorithm failed to find Fermi energy: reverting to bisection
     Possible cause: smearing is larger than the electronic band-gap.

     negative rho (up, down):  3.410E+00 1.730E+00

     total cpu time spent up to now is      624.1 secs

     total energy              =   -4074.05576704 Ry
     estimated scf accuracy    <       1.13364999 Ry

     total magnetization       =     0.01 Bohr mag/cell
     absolute magnetization    =     5.84 Bohr mag/cell
[tb_dev] Currently allocated     1.99E+01 Mbytes, locked:    0 /  10
[tb_pin] Currently allocated     0.00E+00 Mbytes, locked:    0 /   0

     iteration # 35     ecut=    60.00 Ry     beta= 0.20
     Davidson diagonalization with overlap

---- Real-time Memory Report at c_bands before calling an iterative solver
          5958 MiB given to the printing process from OS
           891 MiB allocation reported by mallinfo(arena+hblkhd)
         50460 MiB available memory on the node where the printing process lives
     GPU memory used/free/total (MiB): 5298 / 10982 / 16280
------------------
     ethr =  3.00E-04,  avg # of iterations =  3.5
     Minimization algorithm failed to find Fermi energy: reverting to bisection
     Possible cause: smearing is larger than the electronic band-gap.

     negative rho (up, down):  3.260E+00 1.839E+00

     total cpu time spent up to now is      643.2 secs

     total energy              =   -4074.05116021 Ry
     estimated scf accuracy    <       6.40442118 Ry

     total magnetization       =     0.00 Bohr mag/cell
     absolute magnetization    =     9.19 Bohr mag/cell
[tb_dev] Currently allocated     1.99E+01 Mbytes, locked:    0 /  10
[tb_pin] Currently allocated     0.00E+00 Mbytes, locked:    0 /   0

     iteration # 36     ecut=    60.00 Ry     beta= 0.20
     Davidson diagonalization with overlap

---- Real-time Memory Report at c_bands before calling an iterative solver
          5974 MiB given to the printing process from OS
           908 MiB allocation reported by mallinfo(arena+hblkhd)
         50441 MiB available memory on the node where the printing process lives
     GPU memory used/free/total (MiB): 5298 / 10982 / 16280
------------------
     ethr =  3.00E-04,  avg # of iterations =  3.3
     Minimization algorithm failed to find Fermi energy: reverting to bisection
     Possible cause: smearing is larger than the electronic band-gap.

     negative rho (up, down):  3.333E+00 1.782E+00

     total cpu time spent up to now is      661.5 secs

     total energy              =   -4074.08945517 Ry
     estimated scf accuracy    <       3.63668247 Ry

     total magnetization       =     0.00 Bohr mag/cell
     absolute magnetization    =     8.80 Bohr mag/cell
[tb_dev] Currently allocated     1.99E+01 Mbytes, locked:    0 /  10
[tb_pin] Currently allocated     0.00E+00 Mbytes, locked:    0 /   0

     iteration # 37     ecut=    60.00 Ry     beta= 0.20
     Davidson diagonalization with overlap

---- Real-time Memory Report at c_bands before calling an iterative solver
          5990 MiB given to the printing process from OS
           925 MiB allocation reported by mallinfo(arena+hblkhd)
         50422 MiB available memory on the node where the printing process lives
     GPU memory used/free/total (MiB): 5298 / 10982 / 16280
------------------
     ethr =  3.00E-04,  avg # of iterations =  1.4
     Minimization algorithm failed to find Fermi energy: reverting to bisection
     Possible cause: smearing is larger than the electronic band-gap.

     negative rho (up, down):  3.285E+00 1.893E+00

     total cpu time spent up to now is      677.8 secs

     total energy              =   -4074.06826068 Ry
     estimated scf accuracy    <       4.01795789 Ry

     total magnetization       =    -0.00 Bohr mag/cell
     absolute magnetization    =     8.97 Bohr mag/cell
[tb_dev] Currently allocated     1.99E+01 Mbytes, locked:    0 /  10
[tb_pin] Currently allocated     0.00E+00 Mbytes, locked:    0 /   0

     iteration # 38     ecut=    60.00 Ry     beta= 0.20
     Davidson diagonalization with overlap

---- Real-time Memory Report at c_bands before calling an iterative solver
          6007 MiB given to the printing process from OS
           941 MiB allocation reported by mallinfo(arena+hblkhd)
         50403 MiB available memory on the node where the printing process lives
     GPU memory used/free/total (MiB): 5298 / 10982 / 16280
------------------
     ethr =  3.00E-04,  avg # of iterations =  1.9
     Minimization algorithm failed to find Fermi energy: reverting to bisection
     Possible cause: smearing is larger than the electronic band-gap.

     negative rho (up, down):  3.357E+00 1.840E+00

     total cpu time spent up to now is      694.7 secs

     total energy              =   -4074.05563640 Ry
     estimated scf accuracy    <       3.61965916 Ry

     total magnetization       =    -0.00 Bohr mag/cell
     absolute magnetization    =     8.43 Bohr mag/cell
[tb_dev] Currently allocated     1.99E+01 Mbytes, locked:    0 /  10
[tb_pin] Currently allocated     0.00E+00 Mbytes, locked:    0 /   0

     iteration # 39     ecut=    60.00 Ry     beta= 0.20
     Davidson diagonalization with overlap

---- Real-time Memory Report at c_bands before calling an iterative solver
          6024 MiB given to the printing process from OS
           958 MiB allocation reported by mallinfo(arena+hblkhd)
         50385 MiB available memory on the node where the printing process lives
     GPU memory used/free/total (MiB): 5298 / 10982 / 16280
------------------
     ethr =  3.00E-04,  avg # of iterations =  2.0
     Minimization algorithm failed to find Fermi energy: reverting to bisection
     Possible cause: smearing is larger than the electronic band-gap.

     negative rho (up, down):  3.345E+00 1.833E+00

     total cpu time spent up to now is      711.8 secs

     total energy              =   -4074.06537058 Ry
     estimated scf accuracy    <       3.13916808 Ry

     total magnetization       =    -0.00 Bohr mag/cell
     absolute magnetization    =     8.18 Bohr mag/cell
[tb_dev] Currently allocated     1.99E+01 Mbytes, locked:    0 /  10
[tb_pin] Currently allocated     0.00E+00 Mbytes, locked:    0 /   0

     iteration # 40     ecut=    60.00 Ry     beta= 0.20
     Davidson diagonalization with overlap

---- Real-time Memory Report at c_bands before calling an iterative solver
          6041 MiB given to the printing process from OS
           975 MiB allocation reported by mallinfo(arena+hblkhd)
         50370 MiB available memory on the node where the printing process lives
     GPU memory used/free/total (MiB): 5298 / 10982 / 16280
------------------
     ethr =  3.00E-04,  avg # of iterations =  1.2
     Minimization algorithm failed to find Fermi energy: reverting to bisection
     Possible cause: smearing is larger than the electronic band-gap.

     negative rho (up, down):  3.309E+00 1.781E+00

     total cpu time spent up to now is      728.0 secs

     total energy              =   -4074.03008814 Ry
     estimated scf accuracy    <       2.78856860 Ry

     total magnetization       =    -0.00 Bohr mag/cell
     absolute magnetization    =     8.27 Bohr mag/cell
[tb_dev] Currently allocated     1.99E+01 Mbytes, locked:    0 /  10
[tb_pin] Currently allocated     0.00E+00 Mbytes, locked:    0 /   0

     iteration # 41     ecut=    60.00 Ry     beta= 0.20
     Davidson diagonalization with overlap

---- Real-time Memory Report at c_bands before calling an iterative solver
          6064 MiB given to the printing process from OS
           992 MiB allocation reported by mallinfo(arena+hblkhd)
         50354 MiB available memory on the node where the printing process lives
     GPU memory used/free/total (MiB): 5298 / 10982 / 16280
------------------
     ethr =  3.00E-04,  avg # of iterations =  3.7
     Minimization algorithm failed to find Fermi energy: reverting to bisection
     Possible cause: smearing is larger than the electronic band-gap.

     negative rho (up, down):  3.277E+00 1.863E+00

     total cpu time spent up to now is      747.1 secs

     total energy              =   -4074.04497638 Ry
     estimated scf accuracy    <       3.49045846 Ry

     total magnetization       =     0.00 Bohr mag/cell
     absolute magnetization    =     3.96 Bohr mag/cell
[tb_dev] Currently allocated     1.99E+01 Mbytes, locked:    0 /  10
[tb_pin] Currently allocated     0.00E+00 Mbytes, locked:    0 /   0

     iteration # 42     ecut=    60.00 Ry     beta= 0.20
     Davidson diagonalization with overlap

---- Real-time Memory Report at c_bands before calling an iterative solver
          6088 MiB given to the printing process from OS
          1009 MiB allocation reported by mallinfo(arena+hblkhd)
         50337 MiB available memory on the node where the printing process lives
     GPU memory used/free/total (MiB): 5298 / 10982 / 16280
------------------
     ethr =  3.00E-04,  avg # of iterations =  2.9
     Minimization algorithm failed to find Fermi energy: reverting to bisection
     Possible cause: smearing is larger than the electronic band-gap.

     negative rho (up, down):  3.284E+00 1.854E+00

     total cpu time spent up to now is      765.2 secs

     total energy              =   -4074.10757109 Ry
     estimated scf accuracy    <       3.14426494 Ry

     total magnetization       =    -0.00 Bohr mag/cell
     absolute magnetization    =     7.46 Bohr mag/cell
[tb_dev] Currently allocated     1.99E+01 Mbytes, locked:    0 /  10
[tb_pin] Currently allocated     0.00E+00 Mbytes, locked:    0 /   0

     iteration # 43     ecut=    60.00 Ry     beta= 0.20
     Davidson diagonalization with overlap

---- Real-time Memory Report at c_bands before calling an iterative solver
          6105 MiB given to the printing process from OS
          1026 MiB allocation reported by mallinfo(arena+hblkhd)
         50318 MiB available memory on the node where the printing process lives
     GPU memory used/free/total (MiB): 5298 / 10982 / 16280
------------------
     ethr =  3.00E-04,  avg # of iterations =  3.1
     Minimization algorithm failed to find Fermi energy: reverting to bisection
     Possible cause: smearing is larger than the electronic band-gap.

     negative rho (up, down):  3.233E+00 2.133E+00

     total cpu time spent up to now is      783.2 secs

     total energy              =   -4073.85386489 Ry
     estimated scf accuracy    <       6.28724739 Ry

     total magnetization       =     0.00 Bohr mag/cell
     absolute magnetization    =    10.29 Bohr mag/cell
[tb_dev] Currently allocated     1.99E+01 Mbytes, locked:    0 /  10
[tb_pin] Currently allocated     0.00E+00 Mbytes, locked:    0 /   0

     iteration # 44     ecut=    60.00 Ry     beta= 0.20
     Davidson diagonalization with overlap

---- Real-time Memory Report at c_bands before calling an iterative solver
          6122 MiB given to the printing process from OS
          1043 MiB allocation reported by mallinfo(arena+hblkhd)
         50306 MiB available memory on the node where the printing process lives
     GPU memory used/free/total (MiB): 5298 / 10982 / 16280
------------------
     ethr =  3.00E-04,  avg # of iterations =  4.0
     Minimization algorithm failed to find Fermi energy: reverting to bisection
     Possible cause: smearing is larger than the electronic band-gap.

     negative rho (up, down):  3.081E+00 2.099E+00

     total cpu time spent up to now is      803.7 secs

     total energy              =   -4074.00842620 Ry
     estimated scf accuracy    <       1.38602614 Ry

     total magnetization       =     0.00 Bohr mag/cell
     absolute magnetization    =     3.07 Bohr mag/cell
[tb_dev] Currently allocated     1.99E+01 Mbytes, locked:    0 /  10
[tb_pin] Currently allocated     0.00E+00 Mbytes, locked:    0 /   0

     iteration # 45     ecut=    60.00 Ry     beta= 0.20
     Davidson diagonalization with overlap

---- Real-time Memory Report at c_bands before calling an iterative solver
          6139 MiB given to the printing process from OS
          1059 MiB allocation reported by mallinfo(arena+hblkhd)
         50284 MiB available memory on the node where the printing process lives
     GPU memory used/free/total (MiB): 5298 / 10982 / 16280
------------------
     ethr =  3.00E-04,  avg # of iterations =  4.5
     Minimization algorithm failed to find Fermi energy: reverting to bisection
     Possible cause: smearing is larger than the electronic band-gap.

     negative rho (up, down):  3.101E+00 2.118E+00

     total cpu time spent up to now is      823.4 secs

     total energy              =   -4074.08659211 Ry
     estimated scf accuracy    <       1.56915012 Ry

     total magnetization       =     0.00 Bohr mag/cell
     absolute magnetization    =     5.93 Bohr mag/cell
[tb_dev] Currently allocated     1.99E+01 Mbytes, locked:    0 /  10
[tb_pin] Currently allocated     0.00E+00 Mbytes, locked:    0 /   0

     iteration # 46     ecut=    60.00 Ry     beta= 0.20
     Davidson diagonalization with overlap

---- Real-time Memory Report at c_bands before calling an iterative solver
          6162 MiB given to the printing process from OS
          1076 MiB allocation reported by mallinfo(arena+hblkhd)
         50267 MiB available memory on the node where the printing process lives
     GPU memory used/free/total (MiB): 5298 / 10982 / 16280
------------------
     ethr =  3.00E-04,  avg # of iterations =  4.0
     Minimization algorithm failed to find Fermi energy: reverting to bisection
     Possible cause: smearing is larger than the electronic band-gap.

     negative rho (up, down):  3.168E+00 2.327E+00

     total cpu time spent up to now is      842.4 secs

     total energy              =   -4074.15592676 Ry
     estimated scf accuracy    <       6.93435191 Ry

     total magnetization       =     0.01 Bohr mag/cell
     absolute magnetization    =     9.36 Bohr mag/cell
[tb_dev] Currently allocated     1.99E+01 Mbytes, locked:    0 /  10
[tb_pin] Currently allocated     0.00E+00 Mbytes, locked:    0 /   0

     iteration # 47     ecut=    60.00 Ry     beta= 0.20
     Davidson diagonalization with overlap

---- Real-time Memory Report at c_bands before calling an iterative solver
          6179 MiB given to the printing process from OS
          1093 MiB allocation reported by mallinfo(arena+hblkhd)
         50251 MiB available memory on the node where the printing process lives
     GPU memory used/free/total (MiB): 5298 / 10982 / 16280
------------------
     ethr =  3.00E-04,  avg # of iterations =  4.9
     Minimization algorithm failed to find Fermi energy: reverting to bisection
     Possible cause: smearing is larger than the electronic band-gap.

     negative rho (up, down):  3.053E+00 2.578E+00

     total cpu time spent up to now is      862.7 secs

     total energy              =   -4073.99540521 Ry
     estimated scf accuracy    <      11.59435115 Ry

     total magnetization       =     0.01 Bohr mag/cell
     absolute magnetization    =     8.69 Bohr mag/cell
[tb_dev] Currently allocated     1.99E+01 Mbytes, locked:    0 /  10
[tb_pin] Currently allocated     0.00E+00 Mbytes, locked:    0 /   0

     iteration # 48     ecut=    60.00 Ry     beta= 0.20
     Davidson diagonalization with overlap

---- Real-time Memory Report at c_bands before calling an iterative solver
          6196 MiB given to the printing process from OS
          1110 MiB allocation reported by mallinfo(arena+hblkhd)
         50238 MiB available memory on the node where the printing process lives
     GPU memory used/free/total (MiB): 5298 / 10982 / 16280
------------------
     ethr =  3.00E-04,  avg # of iterations =  5.2
     Minimization algorithm failed to find Fermi energy: reverting to bisection
     Possible cause: smearing is larger than the electronic band-gap.

     negative rho (up, down):  2.900E+00 2.289E+00

     total cpu time spent up to now is      884.0 secs

     total energy              =   -4073.84919040 Ry
     estimated scf accuracy    <       9.80991865 Ry

     total magnetization       =    -0.00 Bohr mag/cell
     absolute magnetization    =     5.75 Bohr mag/cell
[tb_dev] Currently allocated     1.99E+01 Mbytes, locked:    0 /  10
[tb_pin] Currently allocated     0.00E+00 Mbytes, locked:    0 /   0

     iteration # 49     ecut=    60.00 Ry     beta= 0.20
     Davidson diagonalization with overlap

---- Real-time Memory Report at c_bands before calling an iterative solver
          6220 MiB given to the printing process from OS
          1127 MiB allocation reported by mallinfo(arena+hblkhd)
         50221 MiB available memory on the node where the printing process lives
     GPU memory used/free/total (MiB): 5298 / 10982 / 16280
------------------
     ethr =  3.00E-04,  avg # of iterations =  5.7
     Minimization algorithm failed to find Fermi energy: reverting to bisection
     Possible cause: smearing is larger than the electronic band-gap.

     negative rho (up, down):  3.025E+00 2.105E+00

     total cpu time spent up to now is      906.9 secs

     total energy              =   -4074.00556325 Ry
     estimated scf accuracy    <       6.14942361 Ry

     total magnetization       =     0.01 Bohr mag/cell
     absolute magnetization    =    11.57 Bohr mag/cell
[tb_dev] Currently allocated     1.99E+01 Mbytes, locked:    0 /  10
[tb_pin] Currently allocated     0.00E+00 Mbytes, locked:    0 /   0

     iteration # 50     ecut=    60.00 Ry     beta= 0.20
     Davidson diagonalization with overlap

---- Real-time Memory Report at c_bands before calling an iterative solver
          6237 MiB given to the printing process from OS
          1144 MiB allocation reported by mallinfo(arena+hblkhd)
         50193 MiB available memory on the node where the printing process lives
     GPU memory used/free/total (MiB): 5298 / 10982 / 16280
------------------
     ethr =  3.00E-04,  avg # of iterations =  4.6
     Minimization algorithm failed to find Fermi energy: reverting to bisection
     Possible cause: smearing is larger than the electronic band-gap.

     negative rho (up, down):  3.051E+00 2.103E+00

     total cpu time spent up to now is      926.9 secs

     total energy              =   -4074.03805791 Ry
     estimated scf accuracy    <       1.08911708 Ry

     total magnetization       =     0.00 Bohr mag/cell
     absolute magnetization    =     5.79 Bohr mag/cell
[tb_dev] Currently allocated     1.99E+01 Mbytes, locked:    0 /  10
[tb_pin] Currently allocated     0.00E+00 Mbytes, locked:    0 /   0

     iteration # 51     ecut=    60.00 Ry     beta= 0.20
     Davidson diagonalization with overlap

---- Real-time Memory Report at c_bands before calling an iterative solver
          6254 MiB given to the printing process from OS
          1160 MiB allocation reported by mallinfo(arena+hblkhd)
         50179 MiB available memory on the node where the printing process lives
     GPU memory used/free/total (MiB): 5298 / 10982 / 16280
------------------
     ethr =  3.00E-04,  avg # of iterations =  3.2
     Minimization algorithm failed to find Fermi energy: reverting to bisection
     Possible cause: smearing is larger than the electronic band-gap.

     negative rho (up, down):  3.143E+00 2.038E+00

     total cpu time spent up to now is      945.0 secs

     total energy              =   -4074.05187443 Ry
     estimated scf accuracy    <       0.71119995 Ry

     total magnetization       =    -0.00 Bohr mag/cell
     absolute magnetization    =     2.57 Bohr mag/cell
[tb_dev] Currently allocated     1.99E+01 Mbytes, locked:    0 /  10
[tb_pin] Currently allocated     0.00E+00 Mbytes, locked:    0 /   0

     iteration # 52     ecut=    60.00 Ry     beta= 0.20
     Davidson diagonalization with overlap

---- Real-time Memory Report at c_bands before calling an iterative solver
          6270 MiB given to the printing process from OS
          1198 MiB allocation reported by mallinfo(arena+hblkhd)
         50155 MiB available memory on the node where the printing process lives
     GPU memory used/free/total (MiB): 5298 / 10982 / 16280
------------------
     ethr =  3.00E-04,  avg # of iterations =  1.5
     Minimization algorithm failed to find Fermi energy: reverting to bisection
     Possible cause: smearing is larger than the electronic band-gap.

     negative rho (up, down):  3.179E+00 2.000E+00

     total cpu time spent up to now is      961.3 secs

     total energy              =   -4074.06434879 Ry
     estimated scf accuracy    <       0.81143946 Ry

     total magnetization       =    -0.00 Bohr mag/cell
     absolute magnetization    =     1.48 Bohr mag/cell
[tb_dev] Currently allocated     1.99E+01 Mbytes, locked:    0 /  10
[tb_pin] Currently allocated     0.00E+00 Mbytes, locked:    0 /   0

     iteration # 53     ecut=    60.00 Ry     beta= 0.20
     Davidson diagonalization with overlap

---- Real-time Memory Report at c_bands before calling an iterative solver
          6286 MiB given to the printing process from OS
          1215 MiB allocation reported by mallinfo(arena+hblkhd)
[...]
     Possible cause: smearing is larger than the electronic band-gap.

     negative rho (up, down):  3.180E+00 2.036E+00

     total cpu time spent up to now is     1225.0 secs

     total energy              =   -4074.03327283 Ry
     estimated scf accuracy    <       0.12045874 Ry

     total magnetization       =     0.00 Bohr mag/cell
     absolute magnetization    =     3.25 Bohr mag/cell
[tb_dev] Currently allocated     1.99E+01 Mbytes, locked:    0 /  10
[tb_pin] Currently allocated     0.00E+00 Mbytes, locked:    0 /   0

     iteration # 68     ecut=    60.00 Ry     beta= 0.20
     Davidson diagonalization with overlap

---- Real-time Memory Report at c_bands before calling an iterative solver
          6513 MiB given to the printing process from OS
          1479 MiB allocation reported by mallinfo(arena+hblkhd)
         49881 MiB available memory on the node where the printing process lives
     GPU memory used/free/total (MiB): 5298 / 10982 / 16280
------------------
     ethr =  8.86E-05,  avg # of iterations =  2.1
     Minimization algorithm failed to find Fermi energy: reverting to bisection
     Possible cause: smearing is larger than the electronic band-gap.

     negative rho (up, down):  3.217E+00 2.005E+00

     total cpu time spent up to now is     1242.4 secs

     total energy              =   -4074.03503493 Ry
     estimated scf accuracy    <       0.14638700 Ry

     total magnetization       =    -0.00 Bohr mag/cell
     absolute magnetization    =     3.13 Bohr mag/cell
[tb_dev] Currently allocated     1.99E+01 Mbytes, locked:    0 /  10
[tb_pin] Currently allocated     0.00E+00 Mbytes, locked:    0 /   0

     iteration # 69     ecut=    60.00 Ry     beta= 0.20
     Davidson diagonalization with overlap

---- Real-time Memory Report at c_bands before calling an iterative solver
          6530 MiB given to the printing process from OS
          1495 MiB allocation reported by mallinfo(arena+hblkhd)
         49863 MiB available memory on the node where the printing process lives
     GPU memory used/free/total (MiB): 5298 / 10982 / 16280
------------------
     ethr =  8.86E-05,  avg # of iterations =  1.0
     Minimization algorithm failed to find Fermi energy: reverting to bisection
     Possible cause: smearing is larger than the electronic band-gap.

     negative rho (up, down):  3.196E+00 2.003E+00

     total cpu time spent up to now is     1258.5 secs

     total energy              =   -4074.03435943 Ry
     estimated scf accuracy    <       0.21195616 Ry

     total magnetization       =    -0.00 Bohr mag/cell
     absolute magnetization    =     3.17 Bohr mag/cell
[tb_dev] Currently allocated     1.99E+01 Mbytes, locked:    0 /  10
[tb_pin] Currently allocated     0.00E+00 Mbytes, locked:    0 /   0

     iteration # 70     ecut=    60.00 Ry     beta= 0.20
     Davidson diagonalization with overlap

---- Real-time Memory Report at c_bands before calling an iterative solver
          6546 MiB given to the printing process from OS
          1512 MiB allocation reported by mallinfo(arena+hblkhd)
         49847 MiB available memory on the node where the printing process lives
     GPU memory used/free/total (MiB): 5298 / 10982 / 16280
------------------
     ethr =  8.86E-05,  avg # of iterations =  2.0
     Minimization algorithm failed to find Fermi energy: reverting to bisection
     Possible cause: smearing is larger than the electronic band-gap.

     negative rho (up, down):  3.243E+00 1.990E+00

     total cpu time spent up to now is     1275.7 secs

     total energy              =   -4074.04002553 Ry
     estimated scf accuracy    <       0.17188381 Ry

     total magnetization       =     0.00 Bohr mag/cell
     absolute magnetization    =     3.83 Bohr mag/cell
[tb_dev] Currently allocated     1.99E+01 Mbytes, locked:    0 /  10
[tb_pin] Currently allocated     0.00E+00 Mbytes, locked:    0 /   0

     iteration # 71     ecut=    60.00 Ry     beta= 0.20
     Davidson diagonalization with overlap

---- Real-time Memory Report at c_bands before calling an iterative solver
          6563 MiB given to the printing process from OS
          1529 MiB allocation reported by mallinfo(arena+hblkhd)
         49829 MiB available memory on the node where the printing process lives
     GPU memory used/free/total (MiB): 5298 / 10982 / 16280
------------------
     ethr =  8.86E-05,  avg # of iterations =  4.9
     Minimization algorithm failed to find Fermi energy: reverting to bisection
     Possible cause: smearing is larger than the electronic band-gap.

     negative rho (up, down):  3.251E+00 1.963E+00

     total cpu time spent up to now is     1295.4 secs

     total energy              =   -4074.05192829 Ry
     estimated scf accuracy    <       1.73725789 Ry

     total magnetization       =    -0.00 Bohr mag/cell
     absolute magnetization    =     5.25 Bohr mag/cell
[tb_dev] Currently allocated     1.99E+01 Mbytes, locked:    0 /  10
[tb_pin] Currently allocated     0.00E+00 Mbytes, locked:    0 /   0

     iteration # 72     ecut=    60.00 Ry     beta= 0.20
     Davidson diagonalization with overlap

---- Real-time Memory Report at c_bands before calling an iterative solver
          6587 MiB given to the printing process from OS
          1546 MiB allocation reported by mallinfo(arena+hblkhd)
         49812 MiB available memory on the node where the printing process lives
     GPU memory used/free/total (MiB): 5298 / 10982 / 16280
------------------
     ethr =  8.86E-05,  avg # of iterations =  1.9
     Minimization algorithm failed to find Fermi energy: reverting to bisection
     Possible cause: smearing is larger than the electronic band-gap.

     negative rho (up, down):  3.250E+00 1.952E+00

     total cpu time spent up to now is     1312.4 secs

     total energy              =   -4074.06493102 Ry
     estimated scf accuracy    <       1.66793626 Ry

     total magnetization       =    -0.00 Bohr mag/cell
     absolute magnetization    =     5.52 Bohr mag/cell
[tb_dev] Currently allocated     1.99E+01 Mbytes, locked:    0 /  10
[tb_pin] Currently allocated     0.00E+00 Mbytes, locked:    0 /   0

     iteration # 73     ecut=    60.00 Ry     beta= 0.20
     Davidson diagonalization with overlap

---- Real-time Memory Report at c_bands before calling an iterative solver
          6604 MiB given to the printing process from OS
          1563 MiB allocation reported by mallinfo(arena+hblkhd)
         49796 MiB available memory on the node where the printing process lives
     GPU memory used/free/total (MiB): 5298 / 10982 / 16280
------------------
     ethr =  8.86E-05,  avg # of iterations =  3.5
     Minimization algorithm failed to find Fermi energy: reverting to bisection
     Possible cause: smearing is larger than the electronic band-gap.

     negative rho (up, down):  3.258E+00 1.954E+00

     total cpu time spent up to now is     1330.7 secs

     total energy              =   -4074.06393595 Ry
     estimated scf accuracy    <       3.06090820 Ry

     total magnetization       =    -0.00 Bohr mag/cell
     absolute magnetization    =     6.88 Bohr mag/cell
[tb_dev] Currently allocated     1.99E+01 Mbytes, locked:    0 /  10
[tb_pin] Currently allocated     0.00E+00 Mbytes, locked:    0 /   0

     iteration # 74     ecut=    60.00 Ry     beta= 0.20
     Davidson diagonalization with overlap

---- Real-time Memory Report at c_bands before calling an iterative solver
          6621 MiB given to the printing process from OS
          1580 MiB allocation reported by mallinfo(arena+hblkhd)
         49780 MiB available memory on the node where the printing process lives
     GPU memory used/free/total (MiB): 5298 / 10982 / 16280
------------------
     ethr =  8.86E-05,  avg # of iterations =  2.0
     Minimization algorithm failed to find Fermi energy: reverting to bisection
     Possible cause: smearing is larger than the electronic band-gap.

     negative rho (up, down):  3.118E+00 2.100E+00

     total cpu time spent up to now is     1347.7 secs

     total energy              =   -4073.96682761 Ry
     estimated scf accuracy    <       2.91551609 Ry

     total magnetization       =    -0.00 Bohr mag/cell
     absolute magnetization    =     7.34 Bohr mag/cell
[tb_dev] Currently allocated     1.99E+01 Mbytes, locked:    0 /  10
[tb_pin] Currently allocated     0.00E+00 Mbytes, locked:    0 /   0

     iteration # 75     ecut=    60.00 Ry     beta= 0.20
     Davidson diagonalization with overlap

---- Real-time Memory Report at c_bands before calling an iterative solver
          6638 MiB given to the printing process from OS
          1606 MiB allocation reported by mallinfo(arena+hblkhd)
         49729 MiB available memory on the node where the printing process lives
     GPU memory used/free/total (MiB): 5298 / 10982 / 16280
------------------
     ethr =  8.86E-05,  avg # of iterations =  5.5
     Minimization algorithm failed to find Fermi energy: reverting to bisection
     Possible cause: smearing is larger than the electronic band-gap.

     negative rho (up, down):  3.266E+00 1.925E+00

     total cpu time spent up to now is     1369.8 secs

     total energy              =   -4073.97465325 Ry
     estimated scf accuracy    <       0.92956863 Ry

     total magnetization       =    -0.00 Bohr mag/cell
     absolute magnetization    =     2.05 Bohr mag/cell
[tb_dev] Currently allocated     1.99E+01 Mbytes, locked:    0 /  10
[tb_pin] Currently allocated     0.00E+00 Mbytes, locked:    0 /   0

     iteration # 76     ecut=    60.00 Ry     beta= 0.20
     Davidson diagonalization with overlap

---- Real-time Memory Report at c_bands before calling an iterative solver
          6655 MiB given to the printing process from OS
          1623 MiB allocation reported by mallinfo(arena+hblkhd)
         49727 MiB available memory on the node where the printing process lives
     GPU memory used/free/total (MiB): 5298 / 10982 / 16280
------------------
     ethr =  8.86E-05,  avg # of iterations =  5.4
     Minimization algorithm failed to find Fermi energy: reverting to bisection
     Possible cause: smearing is larger than the electronic band-gap.

     negative rho (up, down):  3.250E+00 1.959E+00

     total cpu time spent up to now is     1391.5 secs

     total energy              =   -4074.02362403 Ry
     estimated scf accuracy    <       2.45270190 Ry

     total magnetization       =    -0.00 Bohr mag/cell
     absolute magnetization    =     7.44 Bohr mag/cell
[tb_dev] Currently allocated     1.99E+01 Mbytes, locked:    0 /  10
[tb_pin] Currently allocated     0.00E+00 Mbytes, locked:    0 /   0

     iteration # 77     ecut=    60.00 Ry     beta= 0.20
     Davidson diagonalization with overlap

---- Real-time Memory Report at c_bands before calling an iterative solver
          6672 MiB given to the printing process from OS
          1640 MiB allocation reported by mallinfo(arena+hblkhd)
         49710 MiB available memory on the node where the printing process lives
     GPU memory used/free/total (MiB): 5298 / 10982 / 16280
------------------
     ethr =  8.86E-05,  avg # of iterations =  3.9
     Minimization algorithm failed to find Fermi energy: reverting to bisection
     Possible cause: smearing is larger than the electronic band-gap.

     negative rho (up, down):  3.224E+00 1.982E+00

     total cpu time spent up to now is     1410.5 secs

     total energy              =   -4074.03616762 Ry
     estimated scf accuracy    <       0.65808226 Ry

     total magnetization       =    -0.00 Bohr mag/cell
     absolute magnetization    =     4.90 Bohr mag/cell
[tb_dev] Currently allocated     1.99E+01 Mbytes, locked:    0 /  10
[tb_pin] Currently allocated     0.00E+00 Mbytes, locked:    0 /   0

     iteration # 78     ecut=    60.00 Ry     beta= 0.20
     Davidson diagonalization with overlap

---- Real-time Memory Report at c_bands before calling an iterative solver
          6695 MiB given to the printing process from OS
          1656 MiB allocation reported by mallinfo(arena+hblkhd)
         49697 MiB available memory on the node where the printing process lives
     GPU memory used/free/total (MiB): 5298 / 10982 / 16280
------------------
     ethr =  8.86E-05,  avg # of iterations =  1.0
     Minimization algorithm failed to find Fermi energy: reverting to bisection
     Possible cause: smearing is larger than the electronic band-gap.

     negative rho (up, down):  3.138E+00 2.067E+00

     total cpu time spent up to now is     1426.5 secs

     total energy              =   -4074.02402227 Ry
     estimated scf accuracy    <       0.58773847 Ry

     total magnetization       =    -0.00 Bohr mag/cell
     absolute magnetization    =     4.88 Bohr mag/cell
[tb_dev] Currently allocated     1.99E+01 Mbytes, locked:    0 /  10
[tb_pin] Currently allocated     0.00E+00 Mbytes, locked:    0 /   0

     iteration # 79     ecut=    60.00 Ry     beta= 0.20
     Davidson diagonalization with overlap

---- Real-time Memory Report at c_bands before calling an iterative solver
          6713 MiB given to the printing process from OS
          1673 MiB allocation reported by mallinfo(arena+hblkhd)
         49679 MiB available memory on the node where the printing process lives
     GPU memory used/free/total (MiB): 5298 / 10982 / 16280
------------------
     ethr =  8.86E-05,  avg # of iterations =  3.1
     Minimization algorithm failed to find Fermi energy: reverting to bisection
     Possible cause: smearing is larger than the electronic band-gap.

     negative rho (up, down):  3.177E+00 2.031E+00

     total cpu time spent up to now is     1444.9 secs

     total energy              =   -4074.02985973 Ry
     estimated scf accuracy    <       0.09037559 Ry

     total magnetization       =    -0.00 Bohr mag/cell
     absolute magnetization    =     1.90 Bohr mag/cell
[tb_dev] Currently allocated     1.99E+01 Mbytes, locked:    0 /  10
[tb_pin] Currently allocated     0.00E+00 Mbytes, locked:    0 /   0

     iteration # 80     ecut=    60.00 Ry     beta= 0.20
     Davidson diagonalization with overlap

---- Real-time Memory Report at c_bands before calling an iterative solver
          6730 MiB given to the printing process from OS
          1690 MiB allocation reported by mallinfo(arena+hblkhd)
         49665 MiB available memory on the node where the printing process lives
     GPU memory used/free/total (MiB): 5298 / 10982 / 16280
------------------
     ethr =  6.65E-05,  avg # of iterations =  3.2
     Minimization algorithm failed to find Fermi energy: reverting to bisection
     Possible cause: smearing is larger than the electronic band-gap.

     negative rho (up, down):  3.131E+00 2.080E+00

     total cpu time spent up to now is     1462.9 secs

     total energy              =   -4074.03796755 Ry
     estimated scf accuracy    <       0.15981206 Ry

     total magnetization       =     0.00 Bohr mag/cell
     absolute magnetization    =     2.54 Bohr mag/cell

     End of self-consistent calculation

     convergence NOT achieved after  80 iterations: stopping

     Writing config to output data dir ./out/aiida.save/
 
     init_run     :     53.08s CPU      8.64s WALL (       1 calls)
     electrons    :   4023.49s CPU   1453.75s WALL (       1 calls)

     Called by init_run:
     wfcinit      :      0.80s CPU      0.80s WALL (       1 calls)
                                        0.80s GPU  (       1 calls)
     potinit      :     36.31s CPU      3.53s WALL (       1 calls)
     hinit0       :      9.06s CPU      3.06s WALL (       1 calls)

     Called by electrons:
     c_bands      :    905.80s CPU    962.27s WALL (      80 calls)
     sum_band     :    218.34s CPU    225.11s WALL (      80 calls)
     v_of_rho     :     84.32s CPU      8.24s WALL (      81 calls)
     v_h          :     14.32s CPU      1.36s WALL (      81 calls)
     v_xc         :     70.00s CPU      6.88s WALL (      81 calls)
     newd         :    173.34s CPU     16.39s WALL (      81 calls)
                                       16.39s GPU  (      81 calls)
     PAW_pot      :   2527.85s CPU    228.60s WALL (      81 calls)
     mix_rho      :    119.48s CPU     12.71s WALL (      80 calls)

     Called by c_bands:
     init_us_2    :     27.54s CPU     39.16s WALL (   14400 calls)
     init_us_2:gp :     27.23s CPU     38.86s WALL (   14400 calls)
     cegterg      :    711.05s CPU    742.27s WALL (    7200 calls)

     Called by sum_band:
     sum_band:wei :      1.25s CPU      1.26s WALL (      80 calls)
                                        1.26s GPU  (      80 calls)
     sum_band:loo :    195.18s CPU    201.77s WALL (      80 calls)
                                      201.77s GPU  (      80 calls)
     sum_band:buf :     80.25s CPU     81.09s WALL (    7200 calls)
                                       81.03s GPU  (    7200 calls)
     sum_band:ini :     13.52s CPU     16.24s WALL (    7200 calls)
                                       16.20s GPU  (    7200 calls)
     sum_band:cal :      0.31s CPU      8.82s WALL (    7200 calls)
                                        8.39s GPU  (    7200 calls)
     sum_band:bec :      2.64s CPU      2.80s WALL (    7200 calls)
                                        2.75s GPU  (    7200 calls)
     addusdens    :     13.99s CPU     14.14s WALL (      80 calls)
                                       14.14s GPU  (      80 calls)
     addusd:skk   :      0.07s CPU      0.07s WALL (     160 calls)
                                        0.07s GPU  (     160 calls)

     Called by *egterg:
     cdiaghg      :    153.73s CPU    176.15s WALL (   28302 calls)
                                      175.95s GPU  (   28302 calls)
     cegterg:over :     21.71s CPU     22.24s WALL (   21192 calls)
     cegterg:upda :     21.08s CPU     21.75s WALL (   21192 calls)
     cegterg:last :     20.66s CPU     20.88s WALL (   12504 calls)
     h_psi        :    441.22s CPU    448.11s WALL (   28392 calls)
                                      446.89s GPU  (   28392 calls)
     s_psi        :      6.95s CPU     30.50s WALL (   28392 calls)
                                       28.15s GPU  (   28392 calls)
     g_psi        :      0.15s CPU      2.36s WALL (   21192 calls)
                                        2.22s GPU  (   21192 calls)

     Called by h_psi:
     h_psi:calbec :      1.05s CPU     24.36s WALL (   28392 calls)
                                       24.18s GPU  (   28392 calls)
     vloc_psi     :    382.73s CPU    388.17s WALL (   28392 calls)
                                      388.00s GPU  (   28392 calls)
     add_vuspsi   :      8.42s CPU     30.35s WALL (   28392 calls)
                                       30.16s GPU  (   28392 calls)

     General routines
     calbec       :      1.04s CPU      1.07s WALL (   35592 calls)
     fft          :      4.16s CPU      1.00s WALL (    2023 calls)
                                        0.76s GPU  (    1861 calls)
     ffts         :      0.34s CPU      0.11s WALL (     322 calls)
                                        0.02s GPU  (     160 calls)
     fftw         :      4.69s CPU    332.86s WALL (  247024 calls)
                                      330.33s GPU  (  247024 calls)
     interpolate  :     14.23s CPU      1.24s WALL (     162 calls)
     davcio       :      0.10s CPU      4.52s WALL (     198 calls)
 
     Parallel routines

     PAW routines
     PAW_pot      :   2527.85s CPU    228.60s WALL (      81 calls)
     PAW_symme    :      1.03s CPU      0.17s WALL (     160 calls)
 
     PWSCF        :      1h 7m CPU  24m26.56s WALL

 
   This run was terminated on:  22:14:34  23Oct2023            

=------------------------------------------------------------------------------=
   JOB DONE.
=------------------------------------------------------------------------------=
