
     Program PWSCF v.7.2 starts on 28Nov2023 at 20:49: 8 
        Git branch: develop
        Last git commit: 9055681be6fc8200e6fffe76ed5fda34c2696339
        Last git commit date: Wed Nov 8 16:29:39 2023 +0000
        Last git commit subject: Merge branch 'calbec_fix' into 'develop'

     This program is part of the open-source Quantum ESPRESSO suite
     for quantum simulation of materials; please cite
         "P. Giannozzi et al., J. Phys.:Condens. Matter 21 395502 (2009);
         "P. Giannozzi et al., J. Phys.:Condens. Matter 29 465901 (2017);
         "P. Giannozzi et al., J. Chem. Phys. 152 154105 (2020);
          URL http://www.quantum-espresso.org", 
     in publications or presentations arising from this work. More details at
     http://www.quantum-espresso.org/quote

     Parallel version (MPI), running on    56 processors

     MPI processes distributed on     1 nodes
     487122 MiB available memory on the printing compute node when the environment starts

     Reading input from aiida.in

     Current dimensions of program PWSCF are:
     Max number of different atomic species (ntypx) = 10
     Max number of k-points (npk) =  40000
     Max angular momentum in pseudopotentials (lmaxx) =  4
     file In.pbesol-dn-rrkjus_psl.0.2.2.UPF: wavefunction(s)  5S renormalized
     Message from routine setup:
     using ibrav=0 with symmetry is DISCOURAGED, use correct ibrav instead

     K-points division:     npool     =       8
     R & G space division:  proc/nbgrp/npool/nimage =       7
     Subspace diagonalization in iterative solution of the eigenvalue problem:
     a serial algorithm will be used


     Parallelization info
     --------------------
     sticks:   dense  smooth     PW     G-vecs:    dense   smooth      PW
     Min         293     146     43                 8625     3047     497
     Max         295     147     43                 8625     3048     497
     Sum        2053    1027    301                60375    21331    3479

     Using Slab Decomposition



     bravais-lattice index     =            0
     lattice parameter (alat)  =       8.5786  a.u.
     unit-cell volume          =     446.4180 (a.u.)^3
     number of atoms/cell      =            4
     number of atomic types    =            4
     number of electrons       =        52.00
     number of Kohn-Sham states=           31
     kinetic-energy cutoff     =      50.0000  Ry
     charge density cutoff     =     400.0000  Ry
     scf convergence threshold =      8.0E-10
     mixing beta               =       0.4000
     number of iterations used =            8  plain     mixing
     Exchange-correlation= SLA  PW   PSX  PSC
                           (   1   4  10   8   0   0   0)

     celldm(1)=   8.578649  celldm(2)=   0.000000  celldm(3)=   0.000000
     celldm(4)=   0.000000  celldm(5)=   0.000000  celldm(6)=   0.000000

     crystal axes: (cart. coord. in units of alat)
               a(1) = (   0.000000   0.707107   0.707107 )  
               a(2) = (   0.707107   0.000000   0.707107 )  
               a(3) = (   0.707107   0.707107   0.000000 )  

     reciprocal axes: (cart. coord. in units 2 pi/alat)
               b(1) = ( -0.707107  0.707107  0.707107 )  
               b(2) = (  0.707107 -0.707107  0.707107 )  
               b(3) = (  0.707107  0.707107 -0.707107 )  


     PseudoPot. # 1 for Cr read from file:
     ./pseudo/cr_pbesol_v1.5.uspp.F.UPF
     MD5 check sum: a621641e0be27168676a837af8893d0f
     Pseudo is Ultrasoft + core correction, Zval = 14.0
     Generated by new atomic code, or converted to UPF format
     Using radial grid of  857 points,  6 beta functions with: 
                l(1) =   0
                l(2) =   0
                l(3) =   1
                l(4) =   1
                l(5) =   2
                l(6) =   2
     Q(r) pseudized with  8 coefficients,  rinner =    0.950   0.950   0.950
                                                       0.950   0.950

     PseudoPot. # 2 for In read from file:
     ./pseudo/In.pbesol-dn-rrkjus_psl.0.2.2.UPF
     MD5 check sum: 2a3399a31491503da6b8c7d8e01e9843
     Pseudo is Ultrasoft + core correction, Zval = 13.0
     Generated using "atomic" code by A. Dal Corso  v.6.0 svn rev. 13079
     Using radial grid of 1241 points,  6 beta functions with: 
                l(1) =   0
                l(2) =   0
                l(3) =   1
                l(4) =   1
                l(5) =   2
                l(6) =   2
     Q(r) pseudized with 0 coefficients 


     PseudoPot. # 3 for V  read from file:
     ./pseudo/v_pbesol_v1.4.uspp.F.UPF
     MD5 check sum: 72fa7d0034c41d8adc50bbc8c632b9f9
     Pseudo is Ultrasoft + core correction, Zval = 13.0
     Generated by new atomic code, or converted to UPF format
     Using radial grid of  853 points,  6 beta functions with: 
                l(1) =   0
                l(2) =   0
                l(3) =   1
                l(4) =   1
                l(5) =   2
                l(6) =   2
     Q(r) pseudized with  8 coefficients,  rinner =    1.100   1.100   1.100
                                                       1.100   1.100

     PseudoPot. # 4 for Zr read from file:
     ./pseudo/zr_pbesol_v1.uspp.F.UPF
     MD5 check sum: f29f2a20533738a515abe666fee35838
     Pseudo is Ultrasoft + core correction, Zval = 12.0
     Generated by new atomic code, or converted to UPF format
     Using radial grid of  887 points,  6 beta functions with: 
                l(1) =   0
                l(2) =   0
                l(3) =   1
                l(4) =   1
                l(5) =   2
                l(6) =   2
     Q(r) pseudized with  6 coefficients,  rinner =    1.200   1.200   1.200
                                                       1.200   1.200

     atomic species   valence    mass     pseudopotential
     Cr               14.00    51.99610     Cr( 1.00)
     In               13.00   114.81800     In( 1.00)
     V                13.00    50.94150     V ( 1.00)
     Zr               12.00    91.22400     Zr( 1.00)

     Starting magnetic structure 
     atomic species   magnetization
     Cr              0.357
     In              0.100
     V               0.385
     Zr              0.417

     24 Sym. Ops. (no inversion) found


                                    s                        frac. trans.

      isym =  1     identity                                     

 cryst.   s( 1) = (     1          0          0      )
                  (     0          1          0      )
                  (     0          0          1      )

 cart.    s( 1) = (  1.0000000 -0.0000000  0.0000000 )
                  ( -0.0000000  1.0000000  0.0000000 )
                  ( -0.0000000  0.0000000  1.0000000 )


      isym =  2     180 deg rotation - cart. axis [0,0,1]        

 cryst.   s( 2) = (     0          1         -1      )
                  (     1          0         -1      )
                  (     0          0         -1      )

 cart.    s( 2) = ( -1.0000000  0.0000000  0.0000000 )
                  (  0.0000000 -1.0000000  0.0000000 )
                  (  0.0000000 -0.0000000  1.0000000 )


      isym =  3     180 deg rotation - cart. axis [0,1,0]        

 cryst.   s( 3) = (     0         -1          1      )
                  (     0         -1          0      )
                  (     1         -1          0      )

 cart.    s( 3) = ( -1.0000000 -0.0000000 -0.0000000 )
                  (  0.0000000  1.0000000 -0.0000000 )
                  (  0.0000000  0.0000000 -1.0000000 )


      isym =  4     180 deg rotation - cart. axis [1,0,0]        

 cryst.   s( 4) = (    -1          0          0      )
                  (    -1          0          1      )
                  (    -1          1          0      )

 cart.    s( 4) = (  1.0000000  0.0000000 -0.0000000 )
                  ( -0.0000000 -1.0000000 -0.0000000 )
                  ( -0.0000000 -0.0000000 -1.0000000 )


      isym =  5     120 deg rotation - cart. axis [-1,-1,-1]     

 cryst.   s( 5) = (     0          0          1      )
                  (     1          0          0      )
                  (     0          1          0      )

 cart.    s( 5) = (  0.0000000  1.0000000 -0.0000000 )
                  (  0.0000000 -0.0000000  1.0000000 )
                  (  1.0000000 -0.0000000  0.0000000 )


      isym =  6     120 deg rotation - cart. axis [-1,1,1]       

 cryst.   s( 6) = (     1         -1          0      )
                  (     0         -1          1      )
                  (     0         -1          0      )

 cart.    s( 6) = ( -0.0000000 -1.0000000 -0.0000000 )
                  ( -0.0000000  0.0000000  1.0000000 )
                  ( -1.0000000  0.0000000  0.0000000 )


      isym =  7     120 deg rotation - cart. axis [1,1,-1]       

 cryst.   s( 7) = (    -1          1          0      )
                  (    -1          0          0      )
                  (    -1          0          1      )

 cart.    s( 7) = ( -0.0000000  1.0000000  0.0000000 )
                  ( -0.0000000 -0.0000000 -1.0000000 )
                  ( -1.0000000 -0.0000000 -0.0000000 )


      isym =  8     120 deg rotation - cart. axis [1,-1,1]       

 cryst.   s( 8) = (     0          0         -1      )
                  (     0          1         -1      )
                  (     1          0         -1      )

 cart.    s( 8) = (  0.0000000 -1.0000000  0.0000000 )
                  (  0.0000000  0.0000000 -1.0000000 )
                  (  1.0000000  0.0000000 -0.0000000 )


      isym =  9     120 deg rotation - cart. axis [1,1,1]        

 cryst.   s( 9) = (     0          1          0      )
                  (     0          0          1      )
                  (     1          0          0      )

 cart.    s( 9) = ( -0.0000000  0.0000000  1.0000000 )
                  (  1.0000000  0.0000000 -0.0000000 )
                  (  0.0000000  1.0000000 -0.0000000 )


      isym = 10     120 deg rotation - cart. axis [-1,1,-1]      

 cryst.   s(10) = (    -1          0          1      )
                  (    -1          1          0      )
                  (    -1          0          0      )

 cart.    s(10) = (  0.0000000 -0.0000000  1.0000000 )
                  ( -1.0000000 -0.0000000 -0.0000000 )
                  ( -0.0000000 -1.0000000 -0.0000000 )


      isym = 11     120 deg rotation - cart. axis [1,-1,-1]      

 cryst.   s(11) = (     1          0         -1      )
                  (     0          0         -1      )
                  (     0          1         -1      )

 cart.    s(11) = (  0.0000000  0.0000000 -1.0000000 )
                  ( -1.0000000  0.0000000  0.0000000 )
                  ( -0.0000000  1.0000000  0.0000000 )


      isym = 12     120 deg rotation - cart. axis [-1,-1,1]      

 cryst.   s(12) = (     0         -1          0      )
                  (     1         -1          0      )
                  (     0         -1          1      )

 cart.    s(12) = ( -0.0000000 -0.0000000 -1.0000000 )
                  (  1.0000000 -0.0000000  0.0000000 )
                  (  0.0000000 -1.0000000  0.0000000 )


      isym = 13     inv. 180 deg rotation - cart. axis [1,1,0]   

 cryst.   s(13) = (     1          0         -1      )
                  (     0          1         -1      )
                  (     0          0         -1      )

 cart.    s(13) = (  0.0000000 -1.0000000  0.0000000 )
                  ( -1.0000000  0.0000000  0.0000000 )
                  ( -0.0000000  0.0000000  1.0000000 )


      isym = 14     inv. 180 deg rotation - cart. axis [1,-1,0]  

 cryst.   s(14) = (     0          1          0      )
                  (     1          0          0      )
                  (     0          0          1      )

 cart.    s(14) = ( -0.0000000  1.0000000  0.0000000 )
                  (  1.0000000 -0.0000000  0.0000000 )
                  (  0.0000000 -0.0000000  1.0000000 )


      isym = 15     inv.  90 deg rotation - cart. axis [0,0,-1]  

 cryst.   s(15) = (     0         -1          0      )
                  (     0         -1          1      )
                  (     1         -1          0      )

 cart.    s(15) = ( -0.0000000 -1.0000000 -0.0000000 )
                  (  1.0000000  0.0000000 -0.0000000 )
                  (  0.0000000  0.0000000 -1.0000000 )


      isym = 16     inv.  90 deg rotation - cart. axis [0,0,1]   

 cryst.   s(16) = (    -1          0          1      )
                  (    -1          0          0      )
                  (    -1          1          0      )

 cart.    s(16) = (  0.0000000  1.0000000 -0.0000000 )
                  ( -1.0000000 -0.0000000 -0.0000000 )
                  ( -0.0000000 -0.0000000 -1.0000000 )


      isym = 17     inv. 180 deg rotation - cart. axis [1,0,1]   

 cryst.   s(17) = (     1         -1          0      )
                  (     0         -1          0      )
                  (     0         -1          1      )

 cart.    s(17) = ( -0.0000000 -0.0000000 -1.0000000 )
                  ( -0.0000000  1.0000000  0.0000000 )
                  ( -1.0000000  0.0000000  0.0000000 )


      isym = 18     inv. 180 deg rotation - cart. axis [-1,0,1]  

 cryst.   s(18) = (     0          0          1      )
                  (     0          1          0      )
                  (     1          0          0      )

 cart.    s(18) = (  0.0000000 -0.0000000  1.0000000 )
                  (  0.0000000  1.0000000 -0.0000000 )
                  (  1.0000000  0.0000000 -0.0000000 )


      isym = 19     inv.  90 deg rotation - cart. axis [0,1,0]   

 cryst.   s(19) = (     0          0         -1      )
                  (     1          0         -1      )
                  (     0          1         -1      )

 cart.    s(19) = (  0.0000000  0.0000000 -1.0000000 )
                  (  0.0000000 -1.0000000  0.0000000 )
                  (  1.0000000 -0.0000000  0.0000000 )


      isym = 20     inv.  90 deg rotation - cart. axis [0,-1,0]  

 cryst.   s(20) = (    -1          1          0      )
                  (    -1          0          1      )
                  (    -1          0          0      )

 cart.    s(20) = ( -0.0000000  0.0000000  1.0000000 )
                  ( -0.0000000 -1.0000000 -0.0000000 )
                  ( -1.0000000 -0.0000000 -0.0000000 )


      isym = 21     inv. 180 deg rotation - cart. axis [0,1,1]   

 cryst.   s(21) = (    -1          0          0      )
                  (    -1          1          0      )
                  (    -1          0          1      )

 cart.    s(21) = (  1.0000000 -0.0000000  0.0000000 )
                  ( -0.0000000 -0.0000000 -1.0000000 )
                  ( -0.0000000 -1.0000000 -0.0000000 )


      isym = 22     inv. 180 deg rotation - cart. axis [0,1,-1]  

 cryst.   s(22) = (     1          0          0      )
                  (     0          0          1      )
                  (     0          1          0      )

 cart.    s(22) = (  1.0000000  0.0000000 -0.0000000 )
                  ( -0.0000000  0.0000000  1.0000000 )
                  ( -0.0000000  1.0000000  0.0000000 )


      isym = 23     inv.  90 deg rotation - cart. axis [-1,0,0]  

 cryst.   s(23) = (     0          1         -1      )
                  (     0          0         -1      )
                  (     1          0         -1      )

 cart.    s(23) = ( -1.0000000  0.0000000  0.0000000 )
                  (  0.0000000  0.0000000 -1.0000000 )
                  (  0.0000000  1.0000000 -0.0000000 )


      isym = 24     inv.  90 deg rotation - cart. axis [1,0,0]   

 cryst.   s(24) = (     0         -1          1      )
                  (     1         -1          0      )
                  (     0         -1          0      )

 cart.    s(24) = ( -1.0000000 -0.0000000 -0.0000000 )
                  (  0.0000000 -0.0000000  1.0000000 )
                  (  0.0000000 -1.0000000  0.0000000 )


   Cartesian axes

     site n.     atom                  positions (alat units)
         1        Zr     tau(   1) = (   0.3535534   0.3535534   0.3535534  )
         2        V      tau(   2) = (   0.7071068   0.0000000   0.0000000  )
         3        Cr     tau(   3) = (   0.0000000   0.0000000   0.0000000  )
         4        In     tau(   4) = (   0.3535534   0.3535534   1.0606602  )

   Crystallographic axes

     site n.     atom                  positions (cryst. coord.)
         1        Zr     tau(   1) = (  0.2500000  0.2500000  0.2500000  )
         2        V      tau(   2) = ( -0.5000000  0.5000000  0.5000000  )
         3        Cr     tau(   3) = (  0.0000000  0.0000000  0.0000000  )
         4        In     tau(   4) = (  0.7500000  0.7500000 -0.2500000  )

     number of k points=    72  Marzari-Vanderbilt smearing, width (Ry)=  0.0200
                       cart. coord. in units 2pi/alat
        k(    1) = (   0.0000000   0.0000000   0.0000000), wk =   0.0005787
        k(    2) = (   0.0589256   0.0589256  -0.0589256), wk =   0.0046296
        k(    3) = (   0.1178511   0.1178511  -0.1178511), wk =   0.0046296
        k(    4) = (   0.1767767   0.1767767  -0.1767767), wk =   0.0046296
        k(    5) = (   0.2357023   0.2357023  -0.2357023), wk =   0.0046296
        k(    6) = (   0.2946278   0.2946278  -0.2946278), wk =   0.0046296
        k(    7) = (  -0.3535534  -0.3535534   0.3535534), wk =   0.0023148
        k(    8) = (   0.1178511   0.0000000  -0.0000000), wk =   0.0034722
        k(    9) = (   0.1767767   0.0589256  -0.0589256), wk =   0.0138889
        k(   10) = (   0.2357023   0.1178511  -0.1178511), wk =   0.0138889
        k(   11) = (   0.2946278   0.1767767  -0.1767767), wk =   0.0138889
        k(   12) = (   0.3535534   0.2357023  -0.2357023), wk =   0.0138889
        k(   13) = (  -0.2946278  -0.4124790   0.4124790), wk =   0.0138889
        k(   14) = (  -0.2357023  -0.3535534   0.3535534), wk =   0.0138889
        k(   15) = (  -0.1767767  -0.2946278   0.2946278), wk =   0.0138889
        k(   16) = (  -0.1178511  -0.2357023   0.2357023), wk =   0.0138889
        k(   17) = (  -0.0589256  -0.1767767   0.1767767), wk =   0.0138889
        k(   18) = (  -0.0000000  -0.1178511   0.1178511), wk =   0.0069444
        k(   19) = (   0.2357023   0.0000000  -0.0000000), wk =   0.0034722
        k(   20) = (   0.2946278   0.0589256  -0.0589256), wk =   0.0138889
        k(   21) = (   0.3535534   0.1178511  -0.1178511), wk =   0.0138889
        k(   22) = (   0.4124790   0.1767767  -0.1767767), wk =   0.0138889
        k(   23) = (  -0.2357023  -0.4714045   0.4714045), wk =   0.0138889
        k(   24) = (  -0.1767767  -0.4124790   0.4124790), wk =   0.0138889
        k(   25) = (  -0.1178511  -0.3535534   0.3535534), wk =   0.0138889
        k(   26) = (  -0.0589256  -0.2946278   0.2946278), wk =   0.0138889
        k(   27) = (   0.0000000  -0.2357023   0.2357023), wk =   0.0069444
        k(   28) = (   0.3535534   0.0000000   0.0000000), wk =   0.0034722
        k(   29) = (   0.4124790   0.0589256  -0.0589256), wk =   0.0138889
        k(   30) = (   0.4714045   0.1178511  -0.1178511), wk =   0.0138889
        k(   31) = (  -0.1767767  -0.5303301   0.5303301), wk =   0.0138889
        k(   32) = (  -0.1178511  -0.4714045   0.4714045), wk =   0.0138889
        k(   33) = (  -0.0589256  -0.4124790   0.4124790), wk =   0.0138889
        k(   34) = (   0.0000000  -0.3535534   0.3535534), wk =   0.0069444
        k(   35) = (   0.4714045   0.0000000  -0.0000000), wk =   0.0034722
        k(   36) = (   0.5303301   0.0589256  -0.0589256), wk =   0.0138889
        k(   37) = (  -0.1178511  -0.5892557   0.5892557), wk =   0.0138889
        k(   38) = (  -0.0589256  -0.5303301   0.5303301), wk =   0.0138889
        k(   39) = (  -0.0000000  -0.4714045   0.4714045), wk =   0.0069444
        k(   40) = (   0.5892557   0.0000000  -0.0000000), wk =   0.0034722
        k(   41) = (  -0.0589256  -0.6481812   0.6481812), wk =   0.0138889
        k(   42) = (   0.0000000  -0.5892557   0.5892557), wk =   0.0069444
        k(   43) = (  -0.7071068   0.0000000   0.0000000), wk =   0.0017361
        k(   44) = (   0.2357023   0.1178511   0.0000000), wk =   0.0138889
        k(   45) = (   0.2946278   0.1767767  -0.0589256), wk =   0.0277778
        k(   46) = (   0.3535534   0.2357023  -0.1178511), wk =   0.0277778
        k(   47) = (  -0.2946278  -0.4124790   0.5303301), wk =   0.0277778
        k(   48) = (  -0.2357023  -0.3535534   0.4714045), wk =   0.0138889
        k(   49) = (   0.3535534   0.1178511   0.0000000), wk =   0.0138889
        k(   50) = (   0.4124790   0.1767767  -0.0589256), wk =   0.0277778
        k(   51) = (  -0.2357023  -0.4714045   0.5892557), wk =   0.0277778
        k(   52) = (  -0.1767767  -0.4124790   0.5303301), wk =   0.0277778
        k(   53) = (  -0.1178511  -0.3535534   0.4714045), wk =   0.0277778
        k(   54) = (  -0.0589256  -0.2946278   0.4124790), wk =   0.0277778
        k(   55) = (   0.0000000  -0.2357023   0.3535534), wk =   0.0138889
        k(   56) = (   0.4714045   0.1178511  -0.0000000), wk =   0.0138889
        k(   57) = (  -0.1767767  -0.5303301   0.6481812), wk =   0.0277778
        k(   58) = (  -0.1178511  -0.4714045   0.5892557), wk =   0.0277778
        k(   59) = (  -0.0589256  -0.4124790   0.5303301), wk =   0.0277778
        k(   60) = (  -0.0000000  -0.3535534   0.4714045), wk =   0.0138889
        k(   61) = (  -0.1178511  -0.5892557   0.7071068), wk =   0.0138889
        k(   62) = (  -0.0589256  -0.5303301   0.6481812), wk =   0.0277778
        k(   63) = (  -0.0000000  -0.4714045   0.5892557), wk =   0.0138889
        k(   64) = (  -0.7071068   0.1178511  -0.0000000), wk =   0.0069444
        k(   65) = (  -0.2357023  -0.4714045   0.7071068), wk =   0.0138889
        k(   66) = (  -0.1767767  -0.4124790   0.6481812), wk =   0.0277778
        k(   67) = (  -0.1178511  -0.3535534   0.5892557), wk =   0.0138889
        k(   68) = (  -0.1178511  -0.4714045   0.7071068), wk =   0.0138889
        k(   69) = (  -0.0589256  -0.4124790   0.6481812), wk =   0.0277778
        k(   70) = (   0.0000000  -0.3535534   0.5892557), wk =   0.0138889
        k(   71) = (  -0.7071068   0.2357023   0.0000000), wk =   0.0069444
        k(   72) = (  -0.7071068   0.3535534   0.0000000), wk =   0.0034722

                       cryst. coord.
        k(    1) = (   0.0000000   0.0000000   0.0000000), wk =   0.0005787
        k(    2) = (   0.0000000   0.0000000   0.0833333), wk =   0.0046296
        k(    3) = (   0.0000000   0.0000000   0.1666667), wk =   0.0046296
        k(    4) = (   0.0000000   0.0000000   0.2500000), wk =   0.0046296
        k(    5) = (   0.0000000   0.0000000   0.3333333), wk =   0.0046296
        k(    6) = (  -0.0000000  -0.0000000   0.4166667), wk =   0.0046296
        k(    7) = (  -0.0000000  -0.0000000  -0.5000000), wk =   0.0023148
        k(    8) = (  -0.0000000   0.0833333   0.0833333), wk =   0.0034722
        k(    9) = (   0.0000000   0.0833333   0.1666667), wk =   0.0138889
        k(   10) = (  -0.0000000   0.0833333   0.2500000), wk =   0.0138889
        k(   11) = (   0.0000000   0.0833333   0.3333333), wk =   0.0138889
        k(   12) = (  -0.0000000   0.0833333   0.4166667), wk =   0.0138889
        k(   13) = (  -0.0000000   0.0833333  -0.5000000), wk =   0.0138889
        k(   14) = (  -0.0000000   0.0833333  -0.4166667), wk =   0.0138889
        k(   15) = (  -0.0000000   0.0833333  -0.3333333), wk =   0.0138889
        k(   16) = (  -0.0000000   0.0833333  -0.2500000), wk =   0.0138889
        k(   17) = (  -0.0000000   0.0833333  -0.1666667), wk =   0.0138889
        k(   18) = (   0.0000000   0.0833333  -0.0833333), wk =   0.0069444
        k(   19) = (  -0.0000000   0.1666667   0.1666667), wk =   0.0034722
        k(   20) = (  -0.0000000   0.1666667   0.2500000), wk =   0.0138889
        k(   21) = (   0.0000000   0.1666667   0.3333333), wk =   0.0138889
        k(   22) = (  -0.0000000   0.1666667   0.4166667), wk =   0.0138889
        k(   23) = (  -0.0000000   0.1666667  -0.5000000), wk =   0.0138889
        k(   24) = (  -0.0000000   0.1666667  -0.4166667), wk =   0.0138889
        k(   25) = (  -0.0000000   0.1666667  -0.3333333), wk =   0.0138889
        k(   26) = (   0.0000000   0.1666667  -0.2500000), wk =   0.0138889
        k(   27) = (  -0.0000000   0.1666667  -0.1666667), wk =   0.0069444
        k(   28) = (   0.0000000   0.2500000   0.2500000), wk =   0.0034722
        k(   29) = (   0.0000000   0.2500000   0.3333333), wk =   0.0138889
        k(   30) = (  -0.0000000   0.2500000   0.4166667), wk =   0.0138889
        k(   31) = (   0.0000000   0.2500000  -0.5000000), wk =   0.0138889
        k(   32) = (  -0.0000000   0.2500000  -0.4166667), wk =   0.0138889
        k(   33) = (  -0.0000000   0.2500000  -0.3333333), wk =   0.0138889
        k(   34) = (  -0.0000000   0.2500000  -0.2500000), wk =   0.0069444
        k(   35) = (  -0.0000000   0.3333333   0.3333333), wk =   0.0034722
        k(   36) = (  -0.0000000   0.3333333   0.4166667), wk =   0.0138889
        k(   37) = (   0.0000000   0.3333333  -0.5000000), wk =   0.0138889
        k(   38) = (  -0.0000000   0.3333333  -0.4166667), wk =   0.0138889
        k(   39) = (   0.0000000   0.3333333  -0.3333333), wk =   0.0069444
        k(   40) = (   0.0000000   0.4166667   0.4166667), wk =   0.0034722
        k(   41) = (  -0.0000000   0.4166667  -0.5000000), wk =   0.0138889
        k(   42) = (   0.0000000   0.4166667  -0.4166667), wk =   0.0069444
        k(   43) = (   0.0000000  -0.5000000  -0.5000000), wk =   0.0017361
        k(   44) = (   0.0833333   0.1666667   0.2500000), wk =   0.0138889
        k(   45) = (   0.0833333   0.1666667   0.3333333), wk =   0.0277778
        k(   46) = (   0.0833333   0.1666667   0.4166667), wk =   0.0277778
        k(   47) = (   0.0833333   0.1666667  -0.5000000), wk =   0.0277778
        k(   48) = (   0.0833333   0.1666667  -0.4166667), wk =   0.0138889
        k(   49) = (   0.0833333   0.2500000   0.3333333), wk =   0.0138889
        k(   50) = (   0.0833333   0.2500000   0.4166667), wk =   0.0277778
        k(   51) = (   0.0833333   0.2500000  -0.5000000), wk =   0.0277778
        k(   52) = (   0.0833333   0.2500000  -0.4166667), wk =   0.0277778
        k(   53) = (   0.0833333   0.2500000  -0.3333333), wk =   0.0277778
        k(   54) = (   0.0833333   0.2500000  -0.2500000), wk =   0.0277778
        k(   55) = (   0.0833333   0.2500000  -0.1666667), wk =   0.0138889
        k(   56) = (   0.0833333   0.3333333   0.4166667), wk =   0.0138889
        k(   57) = (   0.0833333   0.3333333  -0.5000000), wk =   0.0277778
        k(   58) = (   0.0833333   0.3333333  -0.4166667), wk =   0.0277778
        k(   59) = (   0.0833333   0.3333333  -0.3333333), wk =   0.0277778
        k(   60) = (   0.0833333   0.3333333  -0.2500000), wk =   0.0138889
        k(   61) = (   0.0833333   0.4166667  -0.5000000), wk =   0.0138889
        k(   62) = (   0.0833333   0.4166667  -0.4166667), wk =   0.0277778
        k(   63) = (   0.0833333   0.4166667  -0.3333333), wk =   0.0138889
        k(   64) = (   0.0833333  -0.5000000  -0.4166667), wk =   0.0069444
        k(   65) = (   0.1666667   0.3333333  -0.5000000), wk =   0.0138889
        k(   66) = (   0.1666667   0.3333333  -0.4166667), wk =   0.0277778
        k(   67) = (   0.1666667   0.3333333  -0.3333333), wk =   0.0138889
        k(   68) = (   0.1666667   0.4166667  -0.4166667), wk =   0.0138889
        k(   69) = (   0.1666667   0.4166667  -0.3333333), wk =   0.0277778
        k(   70) = (   0.1666667   0.4166667  -0.2500000), wk =   0.0138889
        k(   71) = (   0.1666667  -0.5000000  -0.3333333), wk =   0.0069444
        k(   72) = (   0.2500000  -0.5000000  -0.2500000), wk =   0.0034722

     Dense  grid:    60375 G-vectors     FFT dimensions: (  60,  60,  60)

     Smooth grid:    21331 G-vectors     FFT dimensions: (  40,  40,  40)

     Dynamical RAM for                 wfc:       0.18 MB

     Dynamical RAM for     wfc (w. buffer):       3.42 MB

     Dynamical RAM for           str. fact:       0.53 MB

     Dynamical RAM for           local pot:       0.00 MB

     Dynamical RAM for          nlocal pot:       0.42 MB

     Dynamical RAM for                qrad:       6.42 MB

     Dynamical RAM for          rho,v,vnew:       2.27 MB

     Dynamical RAM for               rhoin:       0.76 MB

     Dynamical RAM for            rho*nmix:       4.21 MB

     Dynamical RAM for           G-vectors:       0.52 MB

     Dynamical RAM for          h,s,v(r/c):       0.18 MB

     Dynamical RAM for          <psi|beta>:       0.03 MB

     Dynamical RAM for                 psi:       0.36 MB

     Dynamical RAM for                hpsi:       0.36 MB

     Dynamical RAM for                spsi:       0.36 MB

     Dynamical RAM for      wfcinit/wfcrot:       0.53 MB

     Dynamical RAM for           addusdens:       3.32 MB

     Dynamical RAM for          addusforce:       3.22 MB

     Dynamical RAM for         addusstress:       3.45 MB

     Estimated static dynamical RAM per process >      16.47 MB

     Estimated max dynamical RAM per process >      24.13 MB

     Estimated total dynamical RAM >       1.12 GB

     Check: negative core charge=   -0.000002
     Generating pointlists ...
     new r_m :   0.2526 (alat units)  2.1670 (a.u.) for type    1
     new r_m :   0.2526 (alat units)  2.1670 (a.u.) for type    2
     new r_m :   0.2526 (alat units)  2.1670 (a.u.) for type    3
     new r_m :   0.2526 (alat units)  2.1670 (a.u.) for type    4

     Initial potential from superposition of free atoms

     starting charge      50.9935, renormalised to      52.0000

     negative rho (up, down):  4.462E-02 1.832E-02
     Starting wfcs are   42 randomized atomic wfcs

     total cpu time spent up to now is        1.9 secs

     per-process dynamical memory:    28.5 Mb

     Self-consistent Calculation

     iteration #  1     ecut=    50.00 Ry     beta= 0.40
     Davidson diagonalization with overlap

---- Real-time Memory Report at c_bands before calling an iterative solver
            64 MiB given to the printing process from OS
            27 MiB allocation reported by mallinfo(arena+hblkhd)
        485622 MiB available memory on the node where the printing process lives
------------------
     ethr =  1.00E-02,  avg # of iterations =  2.0

     negative rho (up, down):  3.878E-02 2.354E-02

     total cpu time spent up to now is        2.4 secs

     total energy              =    -562.78748348 Ry
     estimated scf accuracy    <       2.23092682 Ry

     total magnetization       =     6.66 Bohr mag/cell
     absolute magnetization    =     6.73 Bohr mag/cell

     iteration #  2     ecut=    50.00 Ry     beta= 0.40
     Davidson diagonalization with overlap

---- Real-time Memory Report at c_bands before calling an iterative solver
            73 MiB given to the printing process from OS
            32 MiB allocation reported by mallinfo(arena+hblkhd)
        485250 MiB available memory on the node where the printing process lives
------------------
     ethr =  4.29E-03,  avg # of iterations =  6.8

     negative rho (up, down):  3.818E-02 2.395E-02

     total cpu time spent up to now is        3.4 secs

     total energy              =    -562.14468690 Ry
     estimated scf accuracy    <      22.43294689 Ry

     total magnetization       =     0.83 Bohr mag/cell
     absolute magnetization    =     1.32 Bohr mag/cell

     iteration #  3     ecut=    50.00 Ry     beta= 0.40
     Davidson diagonalization with overlap

---- Real-time Memory Report at c_bands before calling an iterative solver
            74 MiB given to the printing process from OS
            32 MiB allocation reported by mallinfo(arena+hblkhd)
        485242 MiB available memory on the node where the printing process lives
------------------
     ethr =  4.29E-03,  avg # of iterations =  4.5

     negative rho (up, down):  3.683E-02 2.607E-02

     total cpu time spent up to now is        4.1 secs

     total energy              =    -563.57154146 Ry
     estimated scf accuracy    <       0.74619955 Ry

     total magnetization       =     5.35 Bohr mag/cell
     absolute magnetization    =     5.49 Bohr mag/cell

     iteration #  4     ecut=    50.00 Ry     beta= 0.40
     Davidson diagonalization with overlap

---- Real-time Memory Report at c_bands before calling an iterative solver
            74 MiB given to the printing process from OS
            32 MiB allocation reported by mallinfo(arena+hblkhd)
        485236 MiB available memory on the node where the printing process lives
------------------
     ethr =  1.43E-03,  avg # of iterations =  4.9

     negative rho (up, down):  3.312E-02 3.219E-02

     total cpu time spent up to now is        4.8 secs

     total energy              =    -563.76532103 Ry
     estimated scf accuracy    <       0.31772905 Ry

     total magnetization       =     6.15 Bohr mag/cell
     absolute magnetization    =     6.26 Bohr mag/cell

     iteration #  5     ecut=    50.00 Ry     beta= 0.40
     Davidson diagonalization with overlap

---- Real-time Memory Report at c_bands before calling an iterative solver
            75 MiB given to the printing process from OS
            33 MiB allocation reported by mallinfo(arena+hblkhd)
        485227 MiB available memory on the node where the printing process lives
------------------
     ethr =  6.11E-04,  avg # of iterations =  1.7

     negative rho (up, down):  3.182E-02 3.459E-02

     total cpu time spent up to now is        5.4 secs

     total energy              =    -563.80533229 Ry
     estimated scf accuracy    <       0.03084013 Ry

     total magnetization       =     5.43 Bohr mag/cell
     absolute magnetization    =     5.55 Bohr mag/cell

     iteration #  6     ecut=    50.00 Ry     beta= 0.40
     Davidson diagonalization with overlap

---- Real-time Memory Report at c_bands before calling an iterative solver
            75 MiB given to the printing process from OS
            33 MiB allocation reported by mallinfo(arena+hblkhd)
        485222 MiB available memory on the node where the printing process lives
------------------
     ethr =  5.93E-05,  avg # of iterations =  6.0

     negative rho (up, down):  3.095E-02 3.560E-02

     total cpu time spent up to now is        6.2 secs

     total energy              =    -563.81782171 Ry
     estimated scf accuracy    <       0.00958887 Ry

     total magnetization       =     4.66 Bohr mag/cell
     absolute magnetization    =     4.83 Bohr mag/cell

     iteration #  7     ecut=    50.00 Ry     beta= 0.40
     Davidson diagonalization with overlap

---- Real-time Memory Report at c_bands before calling an iterative solver
            75 MiB given to the printing process from OS
            33 MiB allocation reported by mallinfo(arena+hblkhd)
        485220 MiB available memory on the node where the printing process lives
------------------
     ethr =  1.84E-05,  avg # of iterations =  5.6

     negative rho (up, down):  3.101E-02 3.500E-02

     total cpu time spent up to now is        7.0 secs

     total energy              =    -563.82335363 Ry
     estimated scf accuracy    <       0.00388903 Ry

     total magnetization       =     4.05 Bohr mag/cell
     absolute magnetization    =     4.27 Bohr mag/cell

     iteration #  8     ecut=    50.00 Ry     beta= 0.40
     Davidson diagonalization with overlap

---- Real-time Memory Report at c_bands before calling an iterative solver
            76 MiB given to the printing process from OS
            33 MiB allocation reported by mallinfo(arena+hblkhd)
        485214 MiB available memory on the node where the printing process lives
------------------
     ethr =  7.48E-06,  avg # of iterations =  5.3

     negative rho (up, down):  3.101E-02 3.315E-02

     total cpu time spent up to now is        7.8 secs

     total energy              =    -563.82117112 Ry
     estimated scf accuracy    <       0.01746613 Ry

     total magnetization       =     3.56 Bohr mag/cell
     absolute magnetization    =     3.86 Bohr mag/cell

     iteration #  9     ecut=    50.00 Ry     beta= 0.40
     Davidson diagonalization with overlap

---- Real-time Memory Report at c_bands before calling an iterative solver
            76 MiB given to the printing process from OS
            33 MiB allocation reported by mallinfo(arena+hblkhd)
        485210 MiB available memory on the node where the printing process lives
------------------
     ethr =  7.48E-06,  avg # of iterations =  7.7

     negative rho (up, down):  3.108E-02 3.267E-02

     total cpu time spent up to now is        9.0 secs

     total energy              =    -563.83363749 Ry
     estimated scf accuracy    <       0.01572873 Ry

     total magnetization       =     2.83 Bohr mag/cell
     absolute magnetization    =     3.25 Bohr mag/cell

     iteration # 10     ecut=    50.00 Ry     beta= 0.40
     Davidson diagonalization with overlap

---- Real-time Memory Report at c_bands before calling an iterative solver
            76 MiB given to the printing process from OS
            34 MiB allocation reported by mallinfo(arena+hblkhd)
        485204 MiB available memory on the node where the printing process lives
------------------
     ethr =  7.48E-06,  avg # of iterations =  3.0

     negative rho (up, down):  3.111E-02 3.574E-02

     total cpu time spent up to now is        9.6 secs

     total energy              =    -563.78613548 Ry
     estimated scf accuracy    <       0.01621665 Ry

     total magnetization       =     2.51 Bohr mag/cell
     absolute magnetization    =     3.03 Bohr mag/cell

     iteration # 11     ecut=    50.00 Ry     beta= 0.40
     Davidson diagonalization with overlap

---- Real-time Memory Report at c_bands before calling an iterative solver
            77 MiB given to the printing process from OS
            34 MiB allocation reported by mallinfo(arena+hblkhd)
        485192 MiB available memory on the node where the printing process lives
------------------
     ethr =  7.48E-06,  avg # of iterations =  8.5

     negative rho (up, down):  3.130E-02 3.210E-02

     total cpu time spent up to now is       10.9 secs

     total energy              =    -563.77240016 Ry
     estimated scf accuracy    <       0.05140234 Ry

     total magnetization       =     4.21 Bohr mag/cell
     absolute magnetization    =     4.44 Bohr mag/cell

     iteration # 12     ecut=    50.00 Ry     beta= 0.40
     Davidson diagonalization with overlap

---- Real-time Memory Report at c_bands before calling an iterative solver
            77 MiB given to the printing process from OS
            34 MiB allocation reported by mallinfo(arena+hblkhd)
        485190 MiB available memory on the node where the printing process lives
------------------
     ethr =  7.48E-06,  avg # of iterations = 10.4

     negative rho (up, down):  3.121E-02 3.253E-02

     total cpu time spent up to now is       12.2 secs

     total energy              =    -563.81886046 Ry
     estimated scf accuracy    <       0.07307802 Ry

     total magnetization       =     1.55 Bohr mag/cell
     absolute magnetization    =     2.73 Bohr mag/cell

     iteration # 13     ecut=    50.00 Ry     beta= 0.40
     Davidson diagonalization with overlap

---- Real-time Memory Report at c_bands before calling an iterative solver
            77 MiB given to the printing process from OS
            34 MiB allocation reported by mallinfo(arena+hblkhd)
        485189 MiB available memory on the node where the printing process lives
------------------
     ethr =  7.48E-06,  avg # of iterations =  5.6

     negative rho (up, down):  3.120E-02 3.283E-02

     total cpu time spent up to now is       13.2 secs

     total energy              =    -563.83172919 Ry
     estimated scf accuracy    <       0.01093377 Ry

     total magnetization       =     2.58 Bohr mag/cell
     absolute magnetization    =     3.05 Bohr mag/cell

     iteration # 14     ecut=    50.00 Ry     beta= 0.40
     Davidson diagonalization with overlap

---- Real-time Memory Report at c_bands before calling an iterative solver
            77 MiB given to the printing process from OS
            34 MiB allocation reported by mallinfo(arena+hblkhd)
        485187 MiB available memory on the node where the printing process lives
------------------
     ethr =  7.48E-06,  avg # of iterations =  1.8

     negative rho (up, down):  3.120E-02 3.282E-02

     total cpu time spent up to now is       13.8 secs

     total energy              =    -563.83141834 Ry
     estimated scf accuracy    <       0.00894176 Ry

     total magnetization       =     2.76 Bohr mag/cell
     absolute magnetization    =     3.19 Bohr mag/cell

     iteration # 15     ecut=    50.00 Ry     beta= 0.40
     Davidson diagonalization with overlap

---- Real-time Memory Report at c_bands before calling an iterative solver
            77 MiB given to the printing process from OS
            34 MiB allocation reported by mallinfo(arena+hblkhd)
        485185 MiB available memory on the node where the printing process lives
------------------
     ethr =  7.48E-06,  avg # of iterations =  1.4

     negative rho (up, down):  3.122E-02 3.331E-02

     total cpu time spent up to now is       14.3 secs

     total energy              =    -563.82529610 Ry
     estimated scf accuracy    <       0.00649170 Ry

     total magnetization       =     2.73 Bohr mag/cell
     absolute magnetization    =     3.17 Bohr mag/cell

     iteration # 16     ecut=    50.00 Ry     beta= 0.40
     Davidson diagonalization with overlap

---- Real-time Memory Report at c_bands before calling an iterative solver
            77 MiB given to the printing process from OS
            34 MiB allocation reported by mallinfo(arena+hblkhd)
        485183 MiB available memory on the node where the printing process lives
------------------
     ethr =  7.48E-06,  avg # of iterations =  5.4

     negative rho (up, down):  3.121E-02 3.305E-02

     total cpu time spent up to now is       15.2 secs

     total energy              =    -563.82926405 Ry
     estimated scf accuracy    <       0.00386635 Ry

     total magnetization       =     3.10 Bohr mag/cell
     absolute magnetization    =     3.48 Bohr mag/cell

     iteration # 17     ecut=    50.00 Ry     beta= 0.40
     Davidson diagonalization with overlap

---- Real-time Memory Report at c_bands before calling an iterative solver
            77 MiB given to the printing process from OS
            34 MiB allocation reported by mallinfo(arena+hblkhd)
        485181 MiB available memory on the node where the printing process lives
------------------
     ethr =  7.44E-06,  avg # of iterations =  1.4

     negative rho (up, down):  3.121E-02 3.306E-02

     total cpu time spent up to now is       15.7 secs

     total energy              =    -563.82967591 Ry
     estimated scf accuracy    <       0.00332961 Ry

     total magnetization       =     2.92 Bohr mag/cell
     absolute magnetization    =     3.35 Bohr mag/cell

     iteration # 18     ecut=    50.00 Ry     beta= 0.40
     Davidson diagonalization with overlap

---- Real-time Memory Report at c_bands before calling an iterative solver
            77 MiB given to the printing process from OS
            34 MiB allocation reported by mallinfo(arena+hblkhd)
        485180 MiB available memory on the node where the printing process lives
------------------
     ethr =  6.40E-06,  avg # of iterations =  1.0

     negative rho (up, down):  3.112E-02 3.374E-02

     total cpu time spent up to now is       16.2 secs

     total energy              =    -563.82312769 Ry
     estimated scf accuracy    <       0.00564520 Ry

     total magnetization       =     2.92 Bohr mag/cell
     absolute magnetization    =     3.34 Bohr mag/cell

     iteration # 19     ecut=    50.00 Ry     beta= 0.40
     Davidson diagonalization with overlap

---- Real-time Memory Report at c_bands before calling an iterative solver
            77 MiB given to the printing process from OS
            34 MiB allocation reported by mallinfo(arena+hblkhd)
        485178 MiB available memory on the node where the printing process lives
------------------
     ethr =  6.40E-06,  avg # of iterations =  3.0

     negative rho (up, down):  3.126E-02 3.293E-02

     total cpu time spent up to now is       16.9 secs

     total energy              =    -563.82523602 Ry
     estimated scf accuracy    <       0.00401455 Ry

     total magnetization       =     3.46 Bohr mag/cell
     absolute magnetization    =     3.74 Bohr mag/cell

     iteration # 20     ecut=    50.00 Ry     beta= 0.40
     Davidson diagonalization with overlap

---- Real-time Memory Report at c_bands before calling an iterative solver
            77 MiB given to the printing process from OS
            34 MiB allocation reported by mallinfo(arena+hblkhd)
        485176 MiB available memory on the node where the printing process lives
------------------
     ethr =  6.40E-06,  avg # of iterations =  5.1

     negative rho (up, down):  3.141E-02 3.248E-02

     total cpu time spent up to now is       17.7 secs

     total energy              =    -563.83243026 Ry
     estimated scf accuracy    <       0.00188411 Ry

     total magnetization       =     2.79 Bohr mag/cell
     absolute magnetization    =     3.24 Bohr mag/cell

     iteration # 21     ecut=    50.00 Ry     beta= 0.40
     Davidson diagonalization with overlap

---- Real-time Memory Report at c_bands before calling an iterative solver
            78 MiB given to the printing process from OS
            34 MiB allocation reported by mallinfo(arena+hblkhd)
        485165 MiB available memory on the node where the printing process lives
------------------
     ethr =  3.62E-06,  avg # of iterations =  4.2

     negative rho (up, down):  3.125E-02 3.249E-02

     total cpu time spent up to now is       18.6 secs

     total energy              =    -563.83487023 Ry
     estimated scf accuracy    <       0.00353188 Ry

     total magnetization       =     2.45 Bohr mag/cell
     absolute magnetization    =     3.01 Bohr mag/cell

     iteration # 22     ecut=    50.00 Ry     beta= 0.40
     Davidson diagonalization with overlap

---- Real-time Memory Report at c_bands before calling an iterative solver
            78 MiB given to the printing process from OS
            34 MiB allocation reported by mallinfo(arena+hblkhd)
        485165 MiB available memory on the node where the printing process lives
------------------
     ethr =  3.62E-06,  avg # of iterations =  5.3

     negative rho (up, down):  3.127E-02 3.262E-02

     total cpu time spent up to now is       19.4 secs

     total energy              =    -563.83709167 Ry
     estimated scf accuracy    <       0.00326151 Ry

     total magnetization       =     2.14 Bohr mag/cell
     absolute magnetization    =     2.77 Bohr mag/cell

     iteration # 23     ecut=    50.00 Ry     beta= 0.40
     Davidson diagonalization with overlap

---- Real-time Memory Report at c_bands before calling an iterative solver
            78 MiB given to the printing process from OS
            34 MiB allocation reported by mallinfo(arena+hblkhd)
        485165 MiB available memory on the node where the printing process lives
------------------
     ethr =  3.62E-06,  avg # of iterations =  7.6

     negative rho (up, down):  3.127E-02 3.280E-02

     total cpu time spent up to now is       20.4 secs

     total energy              =    -563.80669498 Ry
     estimated scf accuracy    <       0.00961777 Ry

     total magnetization       =     1.34 Bohr mag/cell
     absolute magnetization    =     3.15 Bohr mag/cell

     iteration # 24     ecut=    50.00 Ry     beta= 0.40
     Davidson diagonalization with overlap

---- Real-time Memory Report at c_bands before calling an iterative solver
            78 MiB given to the printing process from OS
            34 MiB allocation reported by mallinfo(arena+hblkhd)
        485164 MiB available memory on the node where the printing process lives
------------------
     ethr =  3.62E-06,  avg # of iterations =  9.4

     negative rho (up, down):  3.123E-02 3.283E-02

     total cpu time spent up to now is       21.6 secs

     total energy              =    -563.83164196 Ry
     estimated scf accuracy    <       0.00260995 Ry

     total magnetization       =     2.72 Bohr mag/cell
     absolute magnetization    =     3.16 Bohr mag/cell

     iteration # 25     ecut=    50.00 Ry     beta= 0.40
     Davidson diagonalization with overlap

---- Real-time Memory Report at c_bands before calling an iterative solver
            78 MiB given to the printing process from OS
            34 MiB allocation reported by mallinfo(arena+hblkhd)
        485164 MiB available memory on the node where the printing process lives
------------------
     ethr =  3.62E-06,  avg # of iterations =  1.2

     negative rho (up, down):  3.120E-02 3.310E-02

     total cpu time spent up to now is       22.1 secs

     total energy              =    -563.82872155 Ry
     estimated scf accuracy    <       0.00213028 Ry

     total magnetization       =     2.72 Bohr mag/cell
     absolute magnetization    =     3.15 Bohr mag/cell

     iteration # 26     ecut=    50.00 Ry     beta= 0.40
     Davidson diagonalization with overlap

---- Real-time Memory Report at c_bands before calling an iterative solver
            78 MiB given to the printing process from OS
            34 MiB allocation reported by mallinfo(arena+hblkhd)
        485164 MiB available memory on the node where the printing process lives
------------------
     ethr =  3.62E-06,  avg # of iterations =  3.6

     negative rho (up, down):  3.121E-02 3.290E-02

     total cpu time spent up to now is       22.8 secs

     total energy              =    -563.83068228 Ry
     estimated scf accuracy    <       0.00231332 Ry

     total magnetization       =     2.96 Bohr mag/cell
     absolute magnetization    =     3.32 Bohr mag/cell

     iteration # 27     ecut=    50.00 Ry     beta= 0.40
     Davidson diagonalization with overlap

---- Real-time Memory Report at c_bands before calling an iterative solver
            78 MiB given to the printing process from OS
            34 MiB allocation reported by mallinfo(arena+hblkhd)
        485160 MiB available memory on the node where the printing process lives
------------------
     ethr =  3.62E-06,  avg # of iterations =  1.5

     negative rho (up, down):  3.120E-02 3.314E-02

     total cpu time spent up to now is       23.3 secs

     total energy              =    -563.82942351 Ry
     estimated scf accuracy    <       0.00192784 Ry

     total magnetization       =     2.77 Bohr mag/cell
     absolute magnetization    =     3.19 Bohr mag/cell

     iteration # 28     ecut=    50.00 Ry     beta= 0.40
     Davidson diagonalization with overlap

---- Real-time Memory Report at c_bands before calling an iterative solver
            78 MiB given to the printing process from OS
            34 MiB allocation reported by mallinfo(arena+hblkhd)
        485160 MiB available memory on the node where the printing process lives
------------------
     ethr =  3.62E-06,  avg # of iterations =  1.2

     negative rho (up, down):  3.122E-02 3.295E-02

     total cpu time spent up to now is       23.8 secs

     total energy              =    -563.83079647 Ry
     estimated scf accuracy    <       0.00273138 Ry

     total magnetization       =     2.97 Bohr mag/cell
     absolute magnetization    =     3.33 Bohr mag/cell

     iteration # 29     ecut=    50.00 Ry     beta= 0.40
     Davidson diagonalization with overlap

---- Real-time Memory Report at c_bands before calling an iterative solver
            78 MiB given to the printing process from OS
            34 MiB allocation reported by mallinfo(arena+hblkhd)
        485160 MiB available memory on the node where the printing process lives
------------------
     ethr =  3.62E-06,  avg # of iterations =  1.4

     negative rho (up, down):  3.127E-02 3.253E-02

     total cpu time spent up to now is       24.3 secs

     total energy              =    -563.83165171 Ry
     estimated scf accuracy    <       0.00232795 Ry

     total magnetization       =     2.78 Bohr mag/cell
     absolute magnetization    =     3.21 Bohr mag/cell

     iteration # 30     ecut=    50.00 Ry     beta= 0.40
     Davidson diagonalization with overlap

---- Real-time Memory Report at c_bands before calling an iterative solver
            78 MiB given to the printing process from OS
            34 MiB allocation reported by mallinfo(arena+hblkhd)
        485159 MiB available memory on the node where the printing process lives
------------------
     ethr =  3.62E-06,  avg # of iterations =  5.4

     negative rho (up, down):  3.119E-02 3.330E-02

     total cpu time spent up to now is       25.2 secs

     total energy              =    -563.81841773 Ry
     estimated scf accuracy    <       0.00393008 Ry

     total magnetization       =     2.32 Bohr mag/cell
     absolute magnetization    =     2.91 Bohr mag/cell

     iteration # 31     ecut=    50.00 Ry     beta= 0.40
     Davidson diagonalization with overlap

---- Real-time Memory Report at c_bands before calling an iterative solver
            78 MiB given to the printing process from OS
            34 MiB allocation reported by mallinfo(arena+hblkhd)
        485159 MiB available memory on the node where the printing process lives
------------------
     ethr =  3.62E-06,  avg # of iterations =  7.5

     negative rho (up, down):  3.123E-02 3.298E-02

     total cpu time spent up to now is       26.3 secs

     total energy              =    -563.82959789 Ry
     estimated scf accuracy    <       0.00294506 Ry

     total magnetization       =     3.13 Bohr mag/cell
     absolute magnetization    =     3.46 Bohr mag/cell

     iteration # 32     ecut=    50.00 Ry     beta= 0.40
     Davidson diagonalization with overlap

---- Real-time Memory Report at c_bands before calling an iterative solver
            78 MiB given to the printing process from OS
            34 MiB allocation reported by mallinfo(arena+hblkhd)
        485157 MiB available memory on the node where the printing process lives
------------------
     ethr =  3.62E-06,  avg # of iterations =  4.0

     negative rho (up, down):  3.115E-02 3.368E-02

     total cpu time spent up to now is       27.1 secs

     total energy              =    -563.81886769 Ry
     estimated scf accuracy    <       0.00276826 Ry

     total magnetization       =     2.82 Bohr mag/cell
     absolute magnetization    =     3.24 Bohr mag/cell

     iteration # 33     ecut=    50.00 Ry     beta= 0.40
     Davidson diagonalization with overlap

---- Real-time Memory Report at c_bands before calling an iterative solver
            78 MiB given to the printing process from OS
            34 MiB allocation reported by mallinfo(arena+hblkhd)
        485156 MiB available memory on the node where the printing process lives
------------------
     ethr =  3.62E-06,  avg # of iterations =  6.4

     negative rho (up, down):  3.126E-02 3.261E-02

     total cpu time spent up to now is       28.1 secs

     total energy              =    -563.81993518 Ry
     estimated scf accuracy    <       0.00352406 Ry

     total magnetization       =     3.46 Bohr mag/cell
     absolute magnetization    =     3.72 Bohr mag/cell

     iteration # 34     ecut=    50.00 Ry     beta= 0.40
     Davidson diagonalization with overlap

---- Real-time Memory Report at c_bands before calling an iterative solver
            78 MiB given to the printing process from OS
            34 MiB allocation reported by mallinfo(arena+hblkhd)
        485156 MiB available memory on the node where the printing process lives
------------------
     ethr =  3.62E-06,  avg # of iterations =  8.5

     negative rho (up, down):  3.124E-02 3.259E-02

     total cpu time spent up to now is       29.3 secs

     total energy              =    -563.83374757 Ry
     estimated scf accuracy    <       0.00282362 Ry

     total magnetization       =     2.46 Bohr mag/cell
     absolute magnetization    =     2.98 Bohr mag/cell

     iteration # 35     ecut=    50.00 Ry     beta= 0.40
     Davidson diagonalization with overlap

---- Real-time Memory Report at c_bands before calling an iterative solver
            78 MiB given to the printing process from OS
            34 MiB allocation reported by mallinfo(arena+hblkhd)
        485156 MiB available memory on the node where the printing process lives
------------------
     ethr =  3.62E-06,  avg # of iterations =  1.0

     negative rho (up, down):  3.123E-02 3.274E-02

     total cpu time spent up to now is       29.8 secs

     total energy              =    -563.83205034 Ry
     estimated scf accuracy    <       0.00276625 Ry

     total magnetization       =     2.45 Bohr mag/cell
     absolute magnetization    =     2.97 Bohr mag/cell

     iteration # 36     ecut=    50.00 Ry     beta= 0.40
     Davidson diagonalization with overlap

---- Real-time Memory Report at c_bands before calling an iterative solver
            78 MiB given to the printing process from OS
            34 MiB allocation reported by mallinfo(arena+hblkhd)
        485155 MiB available memory on the node where the printing process lives
------------------
     ethr =  3.62E-06,  avg # of iterations =  1.4

     negative rho (up, down):  3.122E-02 3.289E-02

     total cpu time spent up to now is       30.3 secs

     total energy              =    -563.83087534 Ry
     estimated scf accuracy    <       0.00260542 Ry

     total magnetization       =     2.62 Bohr mag/cell
     absolute magnetization    =     3.07 Bohr mag/cell

     iteration # 37     ecut=    50.00 Ry     beta= 0.40
     Davidson diagonalization with overlap

---- Real-time Memory Report at c_bands before calling an iterative solver
            78 MiB given to the printing process from OS
            34 MiB allocation reported by mallinfo(arena+hblkhd)
        485154 MiB available memory on the node where the printing process lives
------------------
     ethr =  3.62E-06,  avg # of iterations =  2.7

     negative rho (up, down):  3.119E-02 3.325E-02

     total cpu time spent up to now is       31.0 secs

     total energy              =    -563.82685456 Ry
     estimated scf accuracy    <       0.00237434 Ry

     total magnetization       =     2.78 Bohr mag/cell
     absolute magnetization    =     3.18 Bohr mag/cell

     iteration # 38     ecut=    50.00 Ry     beta= 0.40
     Davidson diagonalization with overlap

---- Real-time Memory Report at c_bands before calling an iterative solver
            78 MiB given to the printing process from OS
            34 MiB allocation reported by mallinfo(arena+hblkhd)
        485154 MiB available memory on the node where the printing process lives
------------------
     ethr =  3.62E-06,  avg # of iterations =  5.4

     negative rho (up, down):  3.118E-02 3.469E-02

     total cpu time spent up to now is       31.8 secs

     total energy              =    -563.78515521 Ry
     estimated scf accuracy    <       0.00235973 Ry

     total magnetization       =     3.12 Bohr mag/cell
     absolute magnetization    =     3.44 Bohr mag/cell

     iteration # 39     ecut=    50.00 Ry     beta= 0.40
     Davidson diagonalization with overlap

---- Real-time Memory Report at c_bands before calling an iterative solver
            78 MiB given to the printing process from OS
            34 MiB allocation reported by mallinfo(arena+hblkhd)
        485153 MiB available memory on the node where the printing process lives
------------------
     ethr =  3.62E-06,  avg # of iterations = 10.4

     negative rho (up, down):  3.118E-02 3.451E-02

     total cpu time spent up to now is       33.1 secs

     total energy              =    -563.81271204 Ry
     estimated scf accuracy    <       0.01083234 Ry

     total magnetization       =     4.17 Bohr mag/cell
     absolute magnetization    =     4.36 Bohr mag/cell

     iteration # 40     ecut=    50.00 Ry     beta= 0.40
     Davidson diagonalization with overlap

---- Real-time Memory Report at c_bands before calling an iterative solver
            78 MiB given to the printing process from OS
            34 MiB allocation reported by mallinfo(arena+hblkhd)
        485153 MiB available memory on the node where the printing process lives
------------------
     ethr =  3.62E-06,  avg # of iterations =  1.6

     negative rho (up, down):  3.119E-02 3.500E-02

     total cpu time spent up to now is       33.7 secs

     total energy              =    -563.79915143 Ry
     estimated scf accuracy    <       0.00861453 Ry

     total magnetization       =     4.05 Bohr mag/cell
     absolute magnetization    =     4.26 Bohr mag/cell

     iteration # 41     ecut=    50.00 Ry     beta= 0.40
     Davidson diagonalization with overlap

---- Real-time Memory Report at c_bands before calling an iterative solver
            78 MiB given to the printing process from OS
            34 MiB allocation reported by mallinfo(arena+hblkhd)
        485153 MiB available memory on the node where the printing process lives
------------------
     ethr =  3.62E-06,  avg # of iterations =  4.7

     negative rho (up, down):  3.127E-02 3.250E-02

     total cpu time spent up to now is       34.5 secs

     total energy              =    -563.76281856 Ry
     estimated scf accuracy    <       0.01298847 Ry

     total magnetization       =     4.30 Bohr mag/cell
     absolute magnetization    =     4.49 Bohr mag/cell

     iteration # 42     ecut=    50.00 Ry     beta= 0.40
     Davidson diagonalization with overlap

---- Real-time Memory Report at c_bands before calling an iterative solver
            78 MiB given to the printing process from OS
            34 MiB allocation reported by mallinfo(arena+hblkhd)
        485152 MiB available memory on the node where the printing process lives
------------------
     ethr =  3.62E-06,  avg # of iterations = 11.2

     negative rho (up, down):  3.121E-02 3.293E-02

     total cpu time spent up to now is       35.9 secs

     total energy              =    -563.82372697 Ry
     estimated scf accuracy    <       0.00341713 Ry

     total magnetization       =     2.04 Bohr mag/cell
     absolute magnetization    =     2.70 Bohr mag/cell

     iteration # 43     ecut=    50.00 Ry     beta= 0.40
     Davidson diagonalization with overlap

---- Real-time Memory Report at c_bands before calling an iterative solver
            78 MiB given to the printing process from OS
            34 MiB allocation reported by mallinfo(arena+hblkhd)
        485152 MiB available memory on the node where the printing process lives
------------------
     ethr =  3.62E-06,  avg # of iterations =  6.8

     negative rho (up, down):  3.124E-02 3.254E-02

     total cpu time spent up to now is       36.9 secs

     total energy              =    -563.83091822 Ry
     estimated scf accuracy    <       0.00112762 Ry

     total magnetization       =     2.76 Bohr mag/cell
     absolute magnetization    =     3.15 Bohr mag/cell

     iteration # 44     ecut=    50.00 Ry     beta= 0.40
     Davidson diagonalization with overlap

---- Real-time Memory Report at c_bands before calling an iterative solver
            78 MiB given to the printing process from OS
            34 MiB allocation reported by mallinfo(arena+hblkhd)
        485151 MiB available memory on the node where the printing process lives
------------------
     ethr =  2.17E-06,  avg # of iterations =  7.1

     negative rho (up, down):  3.122E-02 3.261E-02

     total cpu time spent up to now is       38.0 secs

     total energy              =    -563.83335899 Ry
     estimated scf accuracy    <       0.00244584 Ry

     total magnetization       =     2.17 Bohr mag/cell
     absolute magnetization    =     2.78 Bohr mag/cell

     iteration # 45     ecut=    50.00 Ry     beta= 0.40
     Davidson diagonalization with overlap

---- Real-time Memory Report at c_bands before calling an iterative solver
            78 MiB given to the printing process from OS
            34 MiB allocation reported by mallinfo(arena+hblkhd)
        485151 MiB available memory on the node where the printing process lives
------------------
     ethr =  2.17E-06,  avg # of iterations =  2.3

     negative rho (up, down):  3.125E-02 3.257E-02

     total cpu time spent up to now is       38.6 secs

     total energy              =    -563.83526195 Ry
     estimated scf accuracy    <       0.00170287 Ry

     total magnetization       =     2.39 Bohr mag/cell
     absolute magnetization    =     2.89 Bohr mag/cell

     iteration # 46     ecut=    50.00 Ry     beta= 0.40
     Davidson diagonalization with overlap

---- Real-time Memory Report at c_bands before calling an iterative solver
            78 MiB given to the printing process from OS
            34 MiB allocation reported by mallinfo(arena+hblkhd)
        485150 MiB available memory on the node where the printing process lives
------------------
     ethr =  2.17E-06,  avg # of iterations =  4.1

     negative rho (up, down):  3.124E-02 3.256E-02

     total cpu time spent up to now is       39.4 secs

     total energy              =    -563.83550545 Ry
     estimated scf accuracy    <       0.00345313 Ry

     total magnetization       =     1.98 Bohr mag/cell
     absolute magnetization    =     2.69 Bohr mag/cell

     iteration # 47     ecut=    50.00 Ry     beta= 0.40
     Davidson diagonalization with overlap

---- Real-time Memory Report at c_bands before calling an iterative solver
            78 MiB given to the printing process from OS
            34 MiB allocation reported by mallinfo(arena+hblkhd)
        485150 MiB available memory on the node where the printing process lives
------------------
     ethr =  2.17E-06,  avg # of iterations =  1.4

     negative rho (up, down):  3.126E-02 3.259E-02

     total cpu time spent up to now is       39.9 secs

     total energy              =    -563.83766473 Ry
     estimated scf accuracy    <       0.00268999 Ry

     total magnetization       =     2.15 Bohr mag/cell
     absolute magnetization    =     2.76 Bohr mag/cell

     iteration # 48     ecut=    50.00 Ry     beta= 0.40
     Davidson diagonalization with overlap

---- Real-time Memory Report at c_bands before calling an iterative solver
            78 MiB given to the printing process from OS
            34 MiB allocation reported by mallinfo(arena+hblkhd)
        485150 MiB available memory on the node where the printing process lives
------------------
     ethr =  2.17E-06,  avg # of iterations =  4.7

     negative rho (up, down):  3.123E-02 3.257E-02

     total cpu time spent up to now is       40.7 secs

     total energy              =    -563.83405320 Ry
     estimated scf accuracy    <       0.00569472 Ry

     total magnetization       =     1.71 Bohr mag/cell
     absolute magnetization    =     2.67 Bohr mag/cell

     iteration # 49     ecut=    50.00 Ry     beta= 0.40
     Davidson diagonalization with overlap

---- Real-time Memory Report at c_bands before calling an iterative solver
            78 MiB given to the printing process from OS
            34 MiB allocation reported by mallinfo(arena+hblkhd)
        485149 MiB available memory on the node where the printing process lives
------------------
     ethr =  2.17E-06,  avg # of iterations =  4.2

     negative rho (up, down):  3.129E-02 3.263E-02

     total cpu time spent up to now is       41.5 secs

     total energy              =    -563.83402025 Ry
     estimated scf accuracy    <       0.00236510 Ry

     total magnetization       =     2.11 Bohr mag/cell
     absolute magnetization    =     2.74 Bohr mag/cell

     iteration # 50     ecut=    50.00 Ry     beta= 0.40
     Davidson diagonalization with overlap

---- Real-time Memory Report at c_bands before calling an iterative solver
            78 MiB given to the printing process from OS
            34 MiB allocation reported by mallinfo(arena+hblkhd)
        485140 MiB available memory on the node where the printing process lives
------------------
     ethr =  2.17E-06,  avg # of iterations =  8.9

     negative rho (up, down):  3.116E-02 3.367E-02

     total cpu time spent up to now is       42.7 secs

     total energy              =    -563.73276643 Ry
     estimated scf accuracy    <       0.02405036 Ry

     total magnetization       =     0.93 Bohr mag/cell
     absolute magnetization    =     3.68 Bohr mag/cell

     iteration # 51     ecut=    50.00 Ry     beta= 0.40
     Davidson diagonalization with overlap

---- Real-time Memory Report at c_bands before calling an iterative solver
            78 MiB given to the printing process from OS
            34 MiB allocation reported by mallinfo(arena+hblkhd)
        485140 MiB available memory on the node where the printing process lives
------------------
     ethr =  2.17E-06,  avg # of iterations = 11.7

     negative rho (up, down):  3.122E-02 3.580E-02

     total cpu time spent up to now is       44.1 secs

     total energy              =    -563.73361596 Ry
     estimated scf accuracy    <       0.00471749 Ry

     total magnetization       =     3.46 Bohr mag/cell
     absolute magnetization    =     3.73 Bohr mag/cell

     iteration # 52     ecut=    50.00 Ry     beta= 0.40
     Davidson diagonalization with overlap

---- Real-time Memory Report at c_bands before calling an iterative solver
            78 MiB given to the printing process from OS
            34 MiB allocation reported by mallinfo(arena+hblkhd)
        485140 MiB available memory on the node where the printing process lives
------------------
     ethr =  2.17E-06,  avg # of iterations = 12.7

     negative rho (up, down):  3.129E-02 3.266E-02

     total cpu time spent up to now is       45.5 secs

     total energy              =    -563.66260109 Ry
     estimated scf accuracy    <       0.02384116 Ry

     total magnetization       =     4.62 Bohr mag/cell
     absolute magnetization    =     4.81 Bohr mag/cell

     iteration # 53     ecut=    50.00 Ry     beta= 0.40
     Davidson diagonalization with overlap

---- Real-time Memory Report at c_bands before calling an iterative solver
            78 MiB given to the printing process from OS
            34 MiB allocation reported by mallinfo(arena+hblkhd)
        485140 MiB available memory on the node where the printing process lives
------------------
     ethr =  2.17E-06,  avg # of iterations = 15.2

     negative rho (up, down):  3.130E-02 3.267E-02

     total cpu time spent up to now is       47.2 secs

     total energy              =    -563.85380868 Ry
     estimated scf accuracy    <       0.02979391 Ry

     total magnetization       =     0.76 Bohr mag/cell
     absolute magnetization    =     3.91 Bohr mag/cell

     iteration # 54     ecut=    50.00 Ry     beta= 0.40
     Davidson diagonalization with overlap

---- Real-time Memory Report at c_bands before calling an iterative solver
            78 MiB given to the printing process from OS
            34 MiB allocation reported by mallinfo(arena+hblkhd)
        485138 MiB available memory on the node where the printing process lives
------------------
     ethr =  2.17E-06,  avg # of iterations =  1.9

     negative rho (up, down):  3.131E-02 3.268E-02

     total cpu time spent up to now is       47.8 secs

     total energy              =    -563.85700131 Ry
     estimated scf accuracy    <       0.03034026 Ry

     total magnetization       =     0.75 Bohr mag/cell
     absolute magnetization    =     3.93 Bohr mag/cell

     iteration # 55     ecut=    50.00 Ry     beta= 0.40
     Davidson diagonalization with overlap

---- Real-time Memory Report at c_bands before calling an iterative solver
            79 MiB given to the printing process from OS
            34 MiB allocation reported by mallinfo(arena+hblkhd)
        485138 MiB available memory on the node where the printing process lives
------------------
     ethr =  2.17E-06,  avg # of iterations =  2.2

     negative rho (up, down):  3.129E-02 3.266E-02

     total cpu time spent up to now is       48.3 secs

     total energy              =    -563.84834250 Ry
     estimated scf accuracy    <       0.03898424 Ry

     total magnetization       =     0.60 Bohr mag/cell
     absolute magnetization    =     4.17 Bohr mag/cell

     iteration # 56     ecut=    50.00 Ry     beta= 0.40
     Davidson diagonalization with overlap

---- Real-time Memory Report at c_bands before calling an iterative solver
            79 MiB given to the printing process from OS
            34 MiB allocation reported by mallinfo(arena+hblkhd)
        485138 MiB available memory on the node where the printing process lives
------------------
     ethr =  2.17E-06,  avg # of iterations =  2.5

     negative rho (up, down):  3.130E-02 3.268E-02

     total cpu time spent up to now is       48.9 secs

     total energy              =    -563.85460079 Ry
     estimated scf accuracy    <       0.02276253 Ry

     total magnetization       =     0.95 Bohr mag/cell
     absolute magnetization    =     3.67 Bohr mag/cell

     iteration # 57     ecut=    50.00 Ry     beta= 0.40
     Davidson diagonalization with overlap

---- Real-time Memory Report at c_bands before calling an iterative solver
            79 MiB given to the printing process from OS
            34 MiB allocation reported by mallinfo(arena+hblkhd)
        485138 MiB available memory on the node where the printing process lives
------------------
     ethr =  2.17E-06,  avg # of iterations =  1.9

     negative rho (up, down):  3.130E-02 3.268E-02

     total cpu time spent up to now is       49.5 secs

     total energy              =    -563.85328490 Ry
     estimated scf accuracy    <       0.03474485 Ry

     total magnetization       =     0.67 Bohr mag/cell
     absolute magnetization    =     4.06 Bohr mag/cell

     iteration # 58     ecut=    50.00 Ry     beta= 0.40
     Davidson diagonalization with overlap

---- Real-time Memory Report at c_bands before calling an iterative solver
            79 MiB given to the printing process from OS
            34 MiB allocation reported by mallinfo(arena+hblkhd)
        485138 MiB available memory on the node where the printing process lives
------------------
     ethr =  2.17E-06,  avg # of iterations =  1.0

     negative rho (up, down):  3.125E-02 3.267E-02

     total cpu time spent up to now is       49.9 secs

     total energy              =    -563.83338959 Ry
     estimated scf accuracy    <       0.03018954 Ry

     total magnetization       =     0.78 Bohr mag/cell
     absolute magnetization    =     3.92 Bohr mag/cell

     iteration # 59     ecut=    50.00 Ry     beta= 0.40
     Davidson diagonalization with overlap

---- Real-time Memory Report at c_bands before calling an iterative solver
            79 MiB given to the printing process from OS
            34 MiB allocation reported by mallinfo(arena+hblkhd)
        485138 MiB available memory on the node where the printing process lives
------------------
     ethr =  2.17E-06,  avg # of iterations =  7.0

     negative rho (up, down):  3.133E-02 3.273E-02

     total cpu time spent up to now is       51.0 secs

     total energy              =    -563.83989892 Ry
     estimated scf accuracy    <       0.00461069 Ry

     total magnetization       =     1.55 Bohr mag/cell
     absolute magnetization    =     2.84 Bohr mag/cell

     iteration # 60     ecut=    50.00 Ry     beta= 0.40
     Davidson diagonalization with overlap

---- Real-time Memory Report at c_bands before calling an iterative solver
            79 MiB given to the printing process from OS
            34 MiB allocation reported by mallinfo(arena+hblkhd)
        485137 MiB available memory on the node where the printing process lives
------------------
     ethr =  2.17E-06,  avg # of iterations =  8.9

     negative rho (up, down):  3.242E-02 3.283E-02

     total cpu time spent up to now is       52.2 secs

     total energy              =    -563.88812056 Ry
     estimated scf accuracy    <       0.06897407 Ry

     total magnetization       =     0.22 Bohr mag/cell
     absolute magnetization    =     4.84 Bohr mag/cell

     iteration # 61     ecut=    50.00 Ry     beta= 0.40
     Davidson diagonalization with overlap

---- Real-time Memory Report at c_bands before calling an iterative solver
            79 MiB given to the printing process from OS
            34 MiB allocation reported by mallinfo(arena+hblkhd)
        485137 MiB available memory on the node where the printing process lives
------------------
     ethr =  2.17E-06,  avg # of iterations =  8.2
     Minimization algorithm failed to find Fermi energy: reverting to bisection
     Possible cause: smearing is larger than the electronic band-gap.

     negative rho (up, down):  3.118E-02 3.260E-02

     total cpu time spent up to now is       53.3 secs

     total energy              =    -563.72135078 Ry
     estimated scf accuracy    <       0.18513073 Ry

     total magnetization       =     0.03 Bohr mag/cell
     absolute magnetization    =     5.84 Bohr mag/cell

     iteration # 62     ecut=    50.00 Ry     beta= 0.40
     Davidson diagonalization with overlap

---- Real-time Memory Report at c_bands before calling an iterative solver
            79 MiB given to the printing process from OS
            34 MiB allocation reported by mallinfo(arena+hblkhd)
        485136 MiB available memory on the node where the printing process lives
------------------
     ethr =  2.17E-06,  avg # of iterations = 13.0

     negative rho (up, down):  3.118E-02 3.298E-02

     total cpu time spent up to now is       54.7 secs

     total energy              =    -563.82991195 Ry
     estimated scf accuracy    <       0.00899231 Ry

     total magnetization       =     2.31 Bohr mag/cell
     absolute magnetization    =     2.91 Bohr mag/cell

     iteration # 63     ecut=    50.00 Ry     beta= 0.40
     Davidson diagonalization with overlap

---- Real-time Memory Report at c_bands before calling an iterative solver
            79 MiB given to the printing process from OS
            34 MiB allocation reported by mallinfo(arena+hblkhd)
        485135 MiB available memory on the node where the printing process lives
------------------
     ethr =  2.17E-06,  avg # of iterations =  6.3

     negative rho (up, down):  3.117E-02 3.336E-02

     total cpu time spent up to now is       55.6 secs

     total energy              =    -563.82572378 Ry
     estimated scf accuracy    <       0.00456000 Ry

     total magnetization       =     2.72 Bohr mag/cell
     absolute magnetization    =     3.17 Bohr mag/cell

     iteration # 64     ecut=    50.00 Ry     beta= 0.40
     Davidson diagonalization with overlap

---- Real-time Memory Report at c_bands before calling an iterative solver
            79 MiB given to the printing process from OS
            34 MiB allocation reported by mallinfo(arena+hblkhd)
        485134 MiB available memory on the node where the printing process lives
------------------
     ethr =  2.17E-06,  avg # of iterations =  7.6

     negative rho (up, down):  3.115E-02 3.365E-02

     total cpu time spent up to now is       56.7 secs

     total energy              =    -563.82502647 Ry
     estimated scf accuracy    <       0.00413185 Ry

     total magnetization       =     3.14 Bohr mag/cell
     absolute magnetization    =     3.46 Bohr mag/cell

     iteration # 65     ecut=    50.00 Ry     beta= 0.40
[...]

     iteration #480     ecut=    50.00 Ry     beta= 0.40
     Davidson diagonalization with overlap

---- Real-time Memory Report at c_bands before calling an iterative solver
            80 MiB given to the printing process from OS
            34 MiB allocation reported by mallinfo(arena+hblkhd)
        485143 MiB available memory on the node where the printing process lives
------------------
     ethr =  1.51E-06,  avg # of iterations =  4.2

     negative rho (up, down):  3.120E-02 3.275E-02

     total cpu time spent up to now is      472.5 secs

     total energy              =    -563.83208408 Ry
     estimated scf accuracy    <       0.00110940 Ry

     total magnetization       =     2.69 Bohr mag/cell
     absolute magnetization    =     3.08 Bohr mag/cell

     iteration #481     ecut=    50.00 Ry     beta= 0.40
     Davidson diagonalization with overlap

---- Real-time Memory Report at c_bands before calling an iterative solver
            80 MiB given to the printing process from OS
            34 MiB allocation reported by mallinfo(arena+hblkhd)
        485143 MiB available memory on the node where the printing process lives
------------------
     ethr =  1.51E-06,  avg # of iterations =  1.2

     negative rho (up, down):  3.118E-02 3.286E-02

     total cpu time spent up to now is      473.0 secs

     total energy              =    -563.83113891 Ry
     estimated scf accuracy    <       0.00102935 Ry

     total magnetization       =     2.59 Bohr mag/cell
     absolute magnetization    =     3.02 Bohr mag/cell

     iteration #482     ecut=    50.00 Ry     beta= 0.40
     Davidson diagonalization with overlap

---- Real-time Memory Report at c_bands before calling an iterative solver
            80 MiB given to the printing process from OS
            34 MiB allocation reported by mallinfo(arena+hblkhd)
        485143 MiB available memory on the node where the printing process lives
------------------
     ethr =  1.51E-06,  avg # of iterations =  1.5

     negative rho (up, down):  3.116E-02 3.317E-02

     total cpu time spent up to now is      473.5 secs

     total energy              =    -563.82692375 Ry
     estimated scf accuracy    <       0.00110851 Ry

     total magnetization       =     2.70 Bohr mag/cell
     absolute magnetization    =     3.09 Bohr mag/cell

     iteration #483     ecut=    50.00 Ry     beta= 0.40
     Davidson diagonalization with overlap

---- Real-time Memory Report at c_bands before calling an iterative solver
            80 MiB given to the printing process from OS
            34 MiB allocation reported by mallinfo(arena+hblkhd)
        485141 MiB available memory on the node where the printing process lives
------------------
     ethr =  1.51E-06,  avg # of iterations =  7.2

     negative rho (up, down):  3.115E-02 3.348E-02

     total cpu time spent up to now is      474.5 secs

     total energy              =    -563.82499565 Ry
     estimated scf accuracy    <       0.00121381 Ry

     total magnetization       =     3.02 Bohr mag/cell
     absolute magnetization    =     3.33 Bohr mag/cell

     iteration #484     ecut=    50.00 Ry     beta= 0.40
     Davidson diagonalization with overlap

---- Real-time Memory Report at c_bands before calling an iterative solver
            80 MiB given to the printing process from OS
            34 MiB allocation reported by mallinfo(arena+hblkhd)
        485141 MiB available memory on the node where the printing process lives
------------------
     ethr =  1.51E-06,  avg # of iterations =  5.8

     negative rho (up, down):  3.114E-02 3.354E-02

     total cpu time spent up to now is      475.3 secs

     total energy              =    -563.82631880 Ry
     estimated scf accuracy    <       0.00187338 Ry

     total magnetization       =     3.28 Bohr mag/cell
     absolute magnetization    =     3.55 Bohr mag/cell

     iteration #485     ecut=    50.00 Ry     beta= 0.40
     Davidson diagonalization with overlap

---- Real-time Memory Report at c_bands before calling an iterative solver
            80 MiB given to the printing process from OS
            34 MiB allocation reported by mallinfo(arena+hblkhd)
        485141 MiB available memory on the node where the printing process lives
------------------
     ethr =  1.51E-06,  avg # of iterations =  1.0

     negative rho (up, down):  3.115E-02 3.327E-02

     total cpu time spent up to now is      475.8 secs

     total energy              =    -563.82776271 Ry
     estimated scf accuracy    <       0.00256390 Ry

     total magnetization       =     3.32 Bohr mag/cell
     absolute magnetization    =     3.58 Bohr mag/cell

     iteration #486     ecut=    50.00 Ry     beta= 0.40
     Davidson diagonalization with overlap

---- Real-time Memory Report at c_bands before calling an iterative solver
            80 MiB given to the printing process from OS
            34 MiB allocation reported by mallinfo(arena+hblkhd)
        485141 MiB available memory on the node where the printing process lives
------------------
     ethr =  1.51E-06,  avg # of iterations =  4.6

     negative rho (up, down):  3.111E-02 3.400E-02

     total cpu time spent up to now is      476.6 secs

     total energy              =    -563.81640380 Ry
     estimated scf accuracy    <       0.00260995 Ry

     total magnetization       =     3.09 Bohr mag/cell
     absolute magnetization    =     3.40 Bohr mag/cell

     iteration #487     ecut=    50.00 Ry     beta= 0.40
     Davidson diagonalization with overlap

---- Real-time Memory Report at c_bands before calling an iterative solver
            80 MiB given to the printing process from OS
            34 MiB allocation reported by mallinfo(arena+hblkhd)
        485140 MiB available memory on the node where the printing process lives
------------------
     ethr =  1.51E-06,  avg # of iterations =  8.0

     negative rho (up, down):  3.129E-02 3.261E-02

     total cpu time spent up to now is      477.7 secs

     total energy              =    -563.76504896 Ry
     estimated scf accuracy    <       0.00535850 Ry

     total magnetization       =     3.68 Bohr mag/cell
     absolute magnetization    =     3.90 Bohr mag/cell

     iteration #488     ecut=    50.00 Ry     beta= 0.40
     Davidson diagonalization with overlap

---- Real-time Memory Report at c_bands before calling an iterative solver
            80 MiB given to the printing process from OS
            34 MiB allocation reported by mallinfo(arena+hblkhd)
        485139 MiB available memory on the node where the printing process lives
------------------
     ethr =  1.51E-06,  avg # of iterations = 12.5

     negative rho (up, down):  3.125E-02 3.254E-02

     total cpu time spent up to now is      479.2 secs

     total energy              =    -563.82924691 Ry
     estimated scf accuracy    <       0.02333131 Ry

     total magnetization       =     1.00 Bohr mag/cell
     absolute magnetization    =     3.59 Bohr mag/cell

     iteration #489     ecut=    50.00 Ry     beta= 0.40
     Davidson diagonalization with overlap

---- Real-time Memory Report at c_bands before calling an iterative solver
            80 MiB given to the printing process from OS
            34 MiB allocation reported by mallinfo(arena+hblkhd)
        485139 MiB available memory on the node where the printing process lives
------------------
     ethr =  1.51E-06,  avg # of iterations =  7.9

     negative rho (up, down):  3.124E-02 3.255E-02

     total cpu time spent up to now is      480.3 secs

     total energy              =    -563.83793393 Ry
     estimated scf accuracy    <       0.00497328 Ry

     total magnetization       =     1.86 Bohr mag/cell
     absolute magnetization    =     2.64 Bohr mag/cell

     iteration #490     ecut=    50.00 Ry     beta= 0.40
     Davidson diagonalization with overlap

---- Real-time Memory Report at c_bands before calling an iterative solver
            80 MiB given to the printing process from OS
            34 MiB allocation reported by mallinfo(arena+hblkhd)
        485139 MiB available memory on the node where the printing process lives
------------------
     ethr =  1.51E-06,  avg # of iterations =  1.2

     negative rho (up, down):  3.120E-02 3.288E-02

     total cpu time spent up to now is      480.8 secs

     total energy              =    -563.82206504 Ry
     estimated scf accuracy    <       0.00442861 Ry

     total magnetization       =     1.92 Bohr mag/cell
     absolute magnetization    =     2.65 Bohr mag/cell

     iteration #491     ecut=    50.00 Ry     beta= 0.40
     Davidson diagonalization with overlap

---- Real-time Memory Report at c_bands before calling an iterative solver
            80 MiB given to the printing process from OS
            34 MiB allocation reported by mallinfo(arena+hblkhd)
        485139 MiB available memory on the node where the printing process lives
------------------
     ethr =  1.51E-06,  avg # of iterations =  9.7

     negative rho (up, down):  3.116E-02 3.488E-02

     total cpu time spent up to now is      482.0 secs

     total energy              =    -563.75506475 Ry
     estimated scf accuracy    <       0.00156575 Ry

     total magnetization       =     2.73 Bohr mag/cell
     absolute magnetization    =     3.12 Bohr mag/cell

     iteration #492     ecut=    50.00 Ry     beta= 0.40
     Davidson diagonalization with overlap

---- Real-time Memory Report at c_bands before calling an iterative solver
            80 MiB given to the printing process from OS
            34 MiB allocation reported by mallinfo(arena+hblkhd)
        485139 MiB available memory on the node where the printing process lives
------------------
     ethr =  1.51E-06,  avg # of iterations = 12.6

     negative rho (up, down):  3.115E-02 3.352E-02

     total cpu time spent up to now is      483.4 secs

     total energy              =    -563.81012721 Ry
     estimated scf accuracy    <       0.01378810 Ry

     total magnetization       =     4.25 Bohr mag/cell
     absolute magnetization    =     4.44 Bohr mag/cell

     iteration #493     ecut=    50.00 Ry     beta= 0.40
     Davidson diagonalization with overlap

---- Real-time Memory Report at c_bands before calling an iterative solver
            80 MiB given to the printing process from OS
            34 MiB allocation reported by mallinfo(arena+hblkhd)
        485139 MiB available memory on the node where the printing process lives
------------------
     ethr =  1.51E-06,  avg # of iterations = 10.6

     negative rho (up, down):  3.116E-02 3.478E-02

     total cpu time spent up to now is      484.7 secs

     total energy              =    -563.79047335 Ry
     estimated scf accuracy    <       0.00349360 Ry

     total magnetization       =     3.32 Bohr mag/cell
     absolute magnetization    =     3.59 Bohr mag/cell

     iteration #494     ecut=    50.00 Ry     beta= 0.40
     Davidson diagonalization with overlap

---- Real-time Memory Report at c_bands before calling an iterative solver
            80 MiB given to the printing process from OS
            34 MiB allocation reported by mallinfo(arena+hblkhd)
        485138 MiB available memory on the node where the printing process lives
------------------
     ethr =  1.51E-06,  avg # of iterations = 10.2

     negative rho (up, down):  3.117E-02 3.505E-02

     total cpu time spent up to now is      486.0 secs

     total energy              =    -563.80004223 Ry
     estimated scf accuracy    <       0.01254330 Ry

     total magnetization       =     4.19 Bohr mag/cell
     absolute magnetization    =     4.38 Bohr mag/cell

     iteration #495     ecut=    50.00 Ry     beta= 0.40
     Davidson diagonalization with overlap

---- Real-time Memory Report at c_bands before calling an iterative solver
            80 MiB given to the printing process from OS
            34 MiB allocation reported by mallinfo(arena+hblkhd)
        485138 MiB available memory on the node where the printing process lives
------------------
     ethr =  1.51E-06,  avg # of iterations =  4.7

     negative rho (up, down):  3.117E-02 3.495E-02

     total cpu time spent up to now is      486.8 secs

     total energy              =    -563.80361989 Ry
     estimated scf accuracy    <       0.01567365 Ry

     total magnetization       =     4.34 Bohr mag/cell
     absolute magnetization    =     4.53 Bohr mag/cell

     iteration #496     ecut=    50.00 Ry     beta= 0.40
     Davidson diagonalization with overlap

---- Real-time Memory Report at c_bands before calling an iterative solver
            80 MiB given to the printing process from OS
            34 MiB allocation reported by mallinfo(arena+hblkhd)
        485138 MiB available memory on the node where the printing process lives
------------------
     ethr =  1.51E-06,  avg # of iterations =  1.6

     negative rho (up, down):  3.116E-02 3.487E-02

     total cpu time spent up to now is      487.4 secs

     total energy              =    -563.80558431 Ry
     estimated scf accuracy    <       0.01406733 Ry

     total magnetization       =     4.29 Bohr mag/cell
     absolute magnetization    =     4.48 Bohr mag/cell

     iteration #497     ecut=    50.00 Ry     beta= 0.40
     Davidson diagonalization with overlap

---- Real-time Memory Report at c_bands before calling an iterative solver
            80 MiB given to the printing process from OS
            34 MiB allocation reported by mallinfo(arena+hblkhd)
        485138 MiB available memory on the node where the printing process lives
------------------
     ethr =  1.51E-06,  avg # of iterations =  1.8

     negative rho (up, down):  3.121E-02 3.608E-02

     total cpu time spent up to now is      487.9 secs

     total energy              =    -563.76589222 Ry
     estimated scf accuracy    <       0.01315832 Ry

     total magnetization       =     4.24 Bohr mag/cell
     absolute magnetization    =     4.44 Bohr mag/cell

     iteration #498     ecut=    50.00 Ry     beta= 0.40
     Davidson diagonalization with overlap

---- Real-time Memory Report at c_bands before calling an iterative solver
            80 MiB given to the printing process from OS
            34 MiB allocation reported by mallinfo(arena+hblkhd)
        485137 MiB available memory on the node where the printing process lives
------------------
     ethr =  1.51E-06,  avg # of iterations = 10.0

     negative rho (up, down):  3.117E-02 3.499E-02

     total cpu time spent up to now is      489.1 secs

     total energy              =    -563.79859734 Ry
     estimated scf accuracy    <       0.02981415 Ry

     total magnetization       =     4.72 Bohr mag/cell
     absolute magnetization    =     4.91 Bohr mag/cell

     iteration #499     ecut=    50.00 Ry     beta= 0.40
     Davidson diagonalization with overlap

---- Real-time Memory Report at c_bands before calling an iterative solver
            80 MiB given to the printing process from OS
            34 MiB allocation reported by mallinfo(arena+hblkhd)
        485137 MiB available memory on the node where the printing process lives
------------------
     ethr =  1.51E-06,  avg # of iterations =  8.2

     negative rho (up, down):  3.128E-02 3.265E-02

     total cpu time spent up to now is      490.3 secs

     total energy              =    -563.72430723 Ry
     estimated scf accuracy    <       0.01586002 Ry

     total magnetization       =     4.33 Bohr mag/cell
     absolute magnetization    =     4.52 Bohr mag/cell

     iteration #500     ecut=    50.00 Ry     beta= 0.40
     Davidson diagonalization with overlap

---- Real-time Memory Report at c_bands before calling an iterative solver
            80 MiB given to the printing process from OS
            34 MiB allocation reported by mallinfo(arena+hblkhd)
        485137 MiB available memory on the node where the printing process lives
------------------
     ethr =  1.51E-06,  avg # of iterations = 15.1

     negative rho (up, down):  3.115E-02 3.443E-02

     total cpu time spent up to now is      491.9 secs

     total energy              =    -563.67270239 Ry
     estimated scf accuracy    <       0.02024592 Ry

     total magnetization       =     1.21 Bohr mag/cell
     absolute magnetization    =     3.35 Bohr mag/cell

     End of self-consistent calculation

     convergence NOT achieved after 500 iterations: stopping

     Writing config to output data dir ./out/aiida.save/ :
     XML data file, charge density

     init_run     :      1.28s CPU      1.32s WALL (       1 calls)
     electrons    :    471.15s CPU    490.03s WALL (       1 calls)

     Called by init_run:
     wfcinit      :      0.23s CPU      0.24s WALL (       1 calls)
     wfcinit:atom :      0.00s CPU      0.00s WALL (      18 calls)
     wfcinit:wfcr :      0.20s CPU      0.22s WALL (      18 calls)
     potinit      :      0.37s CPU      0.38s WALL (       1 calls)
     hinit0       :      0.61s CPU      0.62s WALL (       1 calls)

     Called by electrons:
     c_bands      :    403.40s CPU    417.35s WALL (     500 calls)
     sum_band     :     41.70s CPU     43.95s WALL (     500 calls)
     v_of_rho     :     15.97s CPU     17.48s WALL (     501 calls)
     v_h          :      0.50s CPU      0.54s WALL (     501 calls)
     v_xc         :     15.46s CPU     16.93s WALL (     501 calls)
     newd         :      5.41s CPU      5.97s WALL (     501 calls)
     mix_rho      :      1.64s CPU      1.72s WALL (     500 calls)

     Called by c_bands:
     init_us_2    :      3.14s CPU      3.28s WALL (   18018 calls)
     init_us_2:cp :      3.11s CPU      3.23s WALL (   18018 calls)
     cegterg      :    257.63s CPU    267.78s WALL (    9000 calls)

     Called by sum_band:
     sum_band:wei :      0.73s CPU      0.75s WALL (     500 calls)
     sum_band:loo :     30.58s CPU     32.11s WALL (     500 calls)
     sum_band:buf :      0.33s CPU      0.34s WALL (    9000 calls)
     sum_band:ini :      1.51s CPU      1.57s WALL (    9000 calls)
     sum_band:cal :      2.99s CPU      3.10s WALL (    9000 calls)
     sum_band:bec :      0.16s CPU      0.17s WALL (    9000 calls)
     addusdens    :      8.68s CPU      8.80s WALL (     500 calls)
                                        0.00s GPU  (     500 calls)
     addusd:skk   :      0.01s CPU      0.01s WALL (    2000 calls)
                                        0.00s GPU  (    2000 calls)

     Called by *egterg:
     cdiaghg      :     51.24s CPU     51.92s WALL (   50334 calls)
     cegterg:over :     10.50s CPU     10.97s WALL (   41334 calls)
     cegterg:upda :      6.04s CPU      6.14s WALL (   41334 calls)
     cegterg:last :     11.55s CPU     11.67s WALL (   22586 calls)
     h_psi        :    164.69s CPU    172.72s WALL (   50352 calls)
     s_psi        :      8.34s CPU      8.64s WALL (   50352 calls)
     g_psi        :      0.62s CPU      0.64s WALL (   41334 calls)

     Called by h_psi:
     h_psi:calbec :     10.36s CPU     10.90s WALL (   50352 calls)
     vloc_psi     :    145.04s CPU    152.10s WALL (   50352 calls)
     add_vuspsi   :      8.57s CPU      8.87s WALL (   50352 calls)

     General routines
     calbec       :     13.23s CPU     13.83s WALL (   59352 calls)
     fft          :      5.28s CPU      6.00s WALL (   12523 calls)
     ffts         :      0.57s CPU      0.63s WALL (    2002 calls)
     fftw         :    137.03s CPU    143.16s WALL ( 1929282 calls)
     interpolate  :      0.96s CPU      1.06s WALL (    1002 calls)
     davcio       :      0.00s CPU      0.01s WALL (      36 calls)

     Parallel routines

     PWSCF        :   7m52.81s CPU   8m11.95s WALL


   This run was terminated on:  20:57:20  28Nov2023            

=------------------------------------------------------------------------------=
   JOB DONE.
=------------------------------------------------------------------------------=
