
     Program PWSCF v.7.2 starts on 23Oct2023 at 21:53: 3 

     This program is part of the open-source Quantum ESPRESSO suite
     for quantum simulation of materials; please cite
         "P. Giannozzi et al., J. Phys.:Condens. Matter 21 395502 (2009);
         "P. Giannozzi et al., J. Phys.:Condens. Matter 29 465901 (2017);
         "P. Giannozzi et al., J. Chem. Phys. 152 154105 (2020);
          URL http://www.quantum-espresso.org", 
     in publications or presentations arising from this work. More details at
     http://www.quantum-espresso.org/quote

     Parallel version (MPI & OpenMP), running on      12 processor cores
     Number of MPI processes:                 1
     Threads/MPI process:                    12

     MPI processes distributed on     1 nodes
     60335 MiB available memory on the printing compute node when the environment starts
 
     Reading input from aiida.in

     Current dimensions of program PWSCF are:
     Max number of different atomic species (ntypx) = 10
     Max number of k-points (npk) =  40000
     Max angular momentum in pseudopotentials (lmaxx) =  4
     file Ba.pbesol-spn-kjpaw_psl.1.0.0.UPF: wavefunction(s)  5S 6S renormalized
     Message from routine setup:
     using ibrav=0 with symmetry is DISCOURAGED, use correct ibrav instead
 
     Subspace diagonalization in iterative solution of the eigenvalue problem:
     a serial algorithm will be used

 
     G-vector sticks info
     --------------------
     sticks:   dense  smooth     PW     G-vecs:    dense   smooth      PW
     Sum        3965    1983    551               261615    92565   13663
 
     Using Slab Decomposition
 


     bravais-lattice index     =            0
     lattice parameter (alat)  =      16.1383  a.u.
     unit-cell volume          =    2706.9752 (a.u.)^3
     number of atoms/cell      =           12
     number of atomic types    =            3
     number of electrons       =       136.00
     number of Kohn-Sham states=           82
     kinetic-energy cutoff     =      40.0000  Ry
     charge density cutoff     =     320.0000  Ry
     scf convergence threshold =      2.4E-09
     mixing beta               =       0.1000
     number of iterations used =            8  plain     mixing
     Exchange-correlation= SLA  PW   PSX  PSC
                           (   1   4  10   8   0   0   0)

     GPU acceleration is ACTIVE.


     GPU used by master process:

        Device Number: 0
        Device name: Tesla P100-PCIE-16GB
        Compute capability : 60
        Ratio of single to double precision performance  : 2
        Memory Clock Rate (KHz): 715000
        Memory Bus Width (bits): 4096
        Peak Memory Bandwidth (GB/s): 732.16

     celldm(1)=  16.138261  celldm(2)=   0.000000  celldm(3)=   0.000000
     celldm(4)=   0.000000  celldm(5)=   0.000000  celldm(6)=   0.000000

     crystal axes: (cart. coord. in units of alat)
               a(1) = (   1.000000   0.000000   0.000000 )  
               a(2) = (   0.000000   0.597190   0.000000 )  
               a(3) = (   0.000000   0.000000   1.078454 )  

     reciprocal axes: (cart. coord. in units 2 pi/alat)
               b(1) = (  1.000000  0.000000  0.000000 )  
               b(2) = (  0.000000  1.674510  0.000000 )  
               b(3) = (  0.000000  0.000000  0.927253 )  


     PseudoPot. # 1 for Ba read from file:
     ./pseudo/Ba.pbesol-spn-kjpaw_psl.1.0.0.UPF
     MD5 check sum: f28c4a63d325c1a0d00fd3a4f19b8d73
     Pseudo is Projector augmented-wave + core cor, Zval = 10.0
     Generated using "atomic" code by A. Dal Corso  v.6.0 svn rev. 13079
     Shape of augmentation charge: PSQ
     Using radial grid of 1251 points,  7 beta functions with: 
                l(1) =   0
                l(2) =   0
                l(3) =   0
                l(4) =   1
                l(5) =   1
                l(6) =   2
                l(7) =   2
     Q(r) pseudized with 0 coefficients 


     PseudoPot. # 2 for Ca read from file:
     ./pseudo/ca_pbesol_v1.uspp.F.UPF
     MD5 check sum: 0533207b58cddeaa036efa5b63902087
     Pseudo is Ultrasoft + core correction, Zval = 10.0
     Generated by new atomic code, or converted to UPF format
     Using radial grid of  845 points,  6 beta functions with: 
                l(1) =   0
                l(2) =   0
                l(3) =   1
                l(4) =   1
                l(5) =   2
                l(6) =   2
     Q(r) pseudized with  8 coefficients,  rinner =    1.500   1.500   1.500
                                                       1.500   1.500

     PseudoPot. # 3 for Ge read from file:
     ./pseudo/ge_pbesol_v1.4.uspp.F.UPF
     MD5 check sum: 7bed0412183f5e553a4d27ec7023354d
     Pseudo is Ultrasoft + core correction, Zval = 14.0
     Generated by new atomic code, or converted to UPF format
     Using radial grid of  873 points,  6 beta functions with: 
                l(1) =   0
                l(2) =   0
                l(3) =   1
                l(4) =   1
                l(5) =   2
                l(6) =   2
     Q(r) pseudized with  8 coefficients,  rinner =    1.400   1.400   1.400
                                                       1.400   1.400

     atomic species   valence    mass     pseudopotential
        Ba            10.00   137.32700     Ba( 1.00)
        Ca            10.00    40.07800     Ca( 1.00)
        Ge            14.00    72.64000     Ge( 1.00)

     Starting magnetic structure 
     atomic species   magnetization
        Ba           0.100
        Ca           0.100
        Ge           0.100

      8 Sym. Ops., with inversion, found ( 6 have fractional translation)


                                    s                        frac. trans.

      isym =  1     identity                                     

 cryst.   s( 1) = (     1          0          0      )
                  (     0          1          0      )
                  (     0          0          1      )

 cart.    s( 1) = (  1.0000000  0.0000000  0.0000000 )
                  (  0.0000000  1.0000000  0.0000000 )
                  (  0.0000000  0.0000000  1.0000000 )


      isym =  2     180 deg rotation - cart. axis [0,0,1]        

 cryst.   s( 2) = (    -1          0          0      )    f =(  0.5000000 )
                  (     0         -1          0      )       (  0.0000000 )
                  (     0          0          1      )       (  0.5000000 )

 cart.    s( 2) = ( -1.0000000  0.0000000  0.0000000 )    f =(  0.5000000 )
                  (  0.0000000 -1.0000000  0.0000000 )       (  0.0000000 )
                  (  0.0000000  0.0000000  1.0000000 )       (  0.5392272 )


      isym =  3     180 deg rotation - cart. axis [0,1,0]        

 cryst.   s( 3) = (    -1          0          0      )    f =(  0.0000000 )
                  (     0          1          0      )       ( -0.5000000 )
                  (     0          0         -1      )       (  0.0000000 )

 cart.    s( 3) = ( -1.0000000  0.0000000  0.0000000 )    f =(  0.0000000 )
                  (  0.0000000  1.0000000  0.0000000 )       ( -0.2985948 )
                  (  0.0000000  0.0000000 -1.0000000 )       (  0.0000000 )


      isym =  4     180 deg rotation - cart. axis [1,0,0]        

 cryst.   s( 4) = (     1          0          0      )    f =( -0.5000000 )
                  (     0         -1          0      )       ( -0.5000000 )
                  (     0          0         -1      )       (  0.5000000 )

 cart.    s( 4) = (  1.0000000  0.0000000  0.0000000 )    f =( -0.5000000 )
                  (  0.0000000 -1.0000000  0.0000000 )       ( -0.2985948 )
                  (  0.0000000  0.0000000 -1.0000000 )       (  0.5392272 )


      isym =  5     inversion                                    

 cryst.   s( 5) = (    -1          0          0      )
                  (     0         -1          0      )
                  (     0          0         -1      )

 cart.    s( 5) = ( -1.0000000  0.0000000  0.0000000 )
                  (  0.0000000 -1.0000000  0.0000000 )
                  (  0.0000000  0.0000000 -1.0000000 )


      isym =  6     inv. 180 deg rotation - cart. axis [0,0,1]   

 cryst.   s( 6) = (     1          0          0      )    f =( -0.5000000 )
                  (     0          1          0      )       (  0.0000000 )
                  (     0          0         -1      )       (  0.5000000 )

 cart.    s( 6) = (  1.0000000  0.0000000  0.0000000 )    f =( -0.5000000 )
                  (  0.0000000  1.0000000  0.0000000 )       (  0.0000000 )
                  (  0.0000000  0.0000000 -1.0000000 )       (  0.5392272 )


      isym =  7     inv. 180 deg rotation - cart. axis [0,1,0]   

 cryst.   s( 7) = (     1          0          0      )    f =(  0.0000000 )
                  (     0         -1          0      )       ( -0.5000000 )
                  (     0          0          1      )       (  0.0000000 )

 cart.    s( 7) = (  1.0000000  0.0000000  0.0000000 )    f =(  0.0000000 )
                  (  0.0000000 -1.0000000  0.0000000 )       ( -0.2985948 )
                  (  0.0000000  0.0000000  1.0000000 )       (  0.0000000 )


      isym =  8     inv. 180 deg rotation - cart. axis [1,0,0]   

 cryst.   s( 8) = (    -1          0          0      )    f =(  0.5000000 )
                  (     0          1          0      )       ( -0.5000000 )
                  (     0          0          1      )       (  0.5000000 )

 cart.    s( 8) = ( -1.0000000  0.0000000  0.0000000 )    f =(  0.5000000 )
                  (  0.0000000  1.0000000  0.0000000 )       ( -0.2985948 )
                  (  0.0000000  0.0000000  1.0000000 )       (  0.5392272 )


   Cartesian axes

     site n.     atom                  positions (alat units)
         1           Ba  tau(   1) = (   0.9760000   0.4478923   0.7301136  )
         2           Ba  tau(   2) = (   0.4760000   0.4478923   0.8875679  )
         3           Ba  tau(   3) = (   0.0240000   0.1492974   0.3483407  )
         4           Ba  tau(   4) = (   0.5240000   0.1492974   0.1908864  )
         5           Ca  tau(   5) = (   0.8580000   0.4478923   0.0776487  )
         6           Ca  tau(   6) = (   0.3580000   0.4478923   0.4615785  )
         7           Ca  tau(   7) = (   0.1420000   0.1492974   1.0008056  )
         8           Ca  tau(   8) = (   0.6420000   0.1492974   0.6168759  )
         9           Ge  tau(   9) = (   0.7220000   0.4478923   0.4227541  )
        10           Ge  tau(  10) = (   0.2220000   0.4478923   0.1164731  )
        11           Ge  tau(  11) = (   0.2780000   0.1492974   0.6557002  )
        12           Ge  tau(  12) = (   0.7780000   0.1492974   0.9619813  )

   Crystallographic axes

     site n.     atom                  positions (cryst. coord.)
         1           Ba  tau(   1) = (  0.9760000  0.7500000  0.6770000  )
         2           Ba  tau(   2) = (  0.4760000  0.7500000  0.8230000  )
         3           Ba  tau(   3) = (  0.0240000  0.2500000  0.3230000  )
         4           Ba  tau(   4) = (  0.5240000  0.2500000  0.1770000  )
         5           Ca  tau(   5) = (  0.8580000  0.7500000  0.0720000  )
         6           Ca  tau(   6) = (  0.3580000  0.7500000  0.4280000  )
         7           Ca  tau(   7) = (  0.1420000  0.2500000  0.9280000  )
         8           Ca  tau(   8) = (  0.6420000  0.2500000  0.5720000  )
         9           Ge  tau(   9) = (  0.7220000  0.7500000  0.3920000  )
        10           Ge  tau(  10) = (  0.2220000  0.7500000  0.1080000  )
        11           Ge  tau(  11) = (  0.2780000  0.2500000  0.6080000  )
        12           Ge  tau(  12) = (  0.7780000  0.2500000  0.8920000  )

     number of k points=    45  Marzari-Vanderbilt smearing, width (Ry)=  0.0100
                       cart. coord. in units 2pi/alat
        k(    1) = (   0.0000000   0.0000000   0.0000000), wk =   0.0044444
        k(    2) = (   0.0000000   0.0000000   0.1854506), wk =   0.0088889
        k(    3) = (   0.0000000   0.0000000   0.3709012), wk =   0.0088889
        k(    4) = (   0.0000000   0.1860566   0.0000000), wk =   0.0088889
        k(    5) = (   0.0000000   0.1860566   0.1854506), wk =   0.0177778
        k(    6) = (   0.0000000   0.1860566   0.3709012), wk =   0.0177778
        k(    7) = (   0.0000000   0.3721133   0.0000000), wk =   0.0088889
        k(    8) = (   0.0000000   0.3721133   0.1854506), wk =   0.0177778
        k(    9) = (   0.0000000   0.3721133   0.3709012), wk =   0.0177778
        k(   10) = (   0.0000000   0.5581699   0.0000000), wk =   0.0088889
        k(   11) = (   0.0000000   0.5581699   0.1854506), wk =   0.0177778
        k(   12) = (   0.0000000   0.5581699   0.3709012), wk =   0.0177778
        k(   13) = (   0.0000000   0.7442266   0.0000000), wk =   0.0088889
        k(   14) = (   0.0000000   0.7442266   0.1854506), wk =   0.0177778
        k(   15) = (   0.0000000   0.7442266   0.3709012), wk =   0.0177778
        k(   16) = (   0.2000000   0.0000000   0.0000000), wk =   0.0088889
        k(   17) = (   0.2000000   0.0000000   0.1854506), wk =   0.0177778
        k(   18) = (   0.2000000   0.0000000   0.3709012), wk =   0.0177778
        k(   19) = (   0.2000000   0.1860566   0.0000000), wk =   0.0177778
        k(   20) = (   0.2000000   0.1860566   0.1854506), wk =   0.0355556
        k(   21) = (   0.2000000   0.1860566   0.3709012), wk =   0.0355556
        k(   22) = (   0.2000000   0.3721133   0.0000000), wk =   0.0177778
        k(   23) = (   0.2000000   0.3721133   0.1854506), wk =   0.0355556
        k(   24) = (   0.2000000   0.3721133   0.3709012), wk =   0.0355556
        k(   25) = (   0.2000000   0.5581699   0.0000000), wk =   0.0177778
        k(   26) = (   0.2000000   0.5581699   0.1854506), wk =   0.0355556
        k(   27) = (   0.2000000   0.5581699   0.3709012), wk =   0.0355556
        k(   28) = (   0.2000000   0.7442266   0.0000000), wk =   0.0177778
        k(   29) = (   0.2000000   0.7442266   0.1854506), wk =   0.0355556
        k(   30) = (   0.2000000   0.7442266   0.3709012), wk =   0.0355556
        k(   31) = (   0.4000000   0.0000000   0.0000000), wk =   0.0088889
        k(   32) = (   0.4000000   0.0000000   0.1854506), wk =   0.0177778
        k(   33) = (   0.4000000   0.0000000   0.3709012), wk =   0.0177778
        k(   34) = (   0.4000000   0.1860566   0.0000000), wk =   0.0177778
        k(   35) = (   0.4000000   0.1860566   0.1854506), wk =   0.0355556
        k(   36) = (   0.4000000   0.1860566   0.3709012), wk =   0.0355556
        k(   37) = (   0.4000000   0.3721133   0.0000000), wk =   0.0177778
        k(   38) = (   0.4000000   0.3721133   0.1854506), wk =   0.0355556
        k(   39) = (   0.4000000   0.3721133   0.3709012), wk =   0.0355556
        k(   40) = (   0.4000000   0.5581699   0.0000000), wk =   0.0177778
        k(   41) = (   0.4000000   0.5581699   0.1854506), wk =   0.0355556
        k(   42) = (   0.4000000   0.5581699   0.3709012), wk =   0.0355556
        k(   43) = (   0.4000000   0.7442266   0.0000000), wk =   0.0177778
        k(   44) = (   0.4000000   0.7442266   0.1854506), wk =   0.0355556
        k(   45) = (   0.4000000   0.7442266   0.3709012), wk =   0.0355556

                       cryst. coord.
        k(    1) = (   0.0000000   0.0000000   0.0000000), wk =   0.0044444
        k(    2) = (   0.0000000   0.0000000   0.2000000), wk =   0.0088889
        k(    3) = (   0.0000000   0.0000000   0.4000000), wk =   0.0088889
        k(    4) = (   0.0000000   0.1111111   0.0000000), wk =   0.0088889
        k(    5) = (   0.0000000   0.1111111   0.2000000), wk =   0.0177778
        k(    6) = (   0.0000000   0.1111111   0.4000000), wk =   0.0177778
        k(    7) = (   0.0000000   0.2222222   0.0000000), wk =   0.0088889
        k(    8) = (   0.0000000   0.2222222   0.2000000), wk =   0.0177778
        k(    9) = (   0.0000000   0.2222222   0.4000000), wk =   0.0177778
        k(   10) = (   0.0000000   0.3333333   0.0000000), wk =   0.0088889
        k(   11) = (   0.0000000   0.3333333   0.2000000), wk =   0.0177778
        k(   12) = (   0.0000000   0.3333333   0.4000000), wk =   0.0177778
        k(   13) = (   0.0000000   0.4444444   0.0000000), wk =   0.0088889
        k(   14) = (   0.0000000   0.4444444   0.2000000), wk =   0.0177778
        k(   15) = (   0.0000000   0.4444444   0.4000000), wk =   0.0177778
        k(   16) = (   0.2000000   0.0000000   0.0000000), wk =   0.0088889
        k(   17) = (   0.2000000   0.0000000   0.2000000), wk =   0.0177778
        k(   18) = (   0.2000000   0.0000000   0.4000000), wk =   0.0177778
        k(   19) = (   0.2000000   0.1111111   0.0000000), wk =   0.0177778
        k(   20) = (   0.2000000   0.1111111   0.2000000), wk =   0.0355556
        k(   21) = (   0.2000000   0.1111111   0.4000000), wk =   0.0355556
        k(   22) = (   0.2000000   0.2222222   0.0000000), wk =   0.0177778
        k(   23) = (   0.2000000   0.2222222   0.2000000), wk =   0.0355556
        k(   24) = (   0.2000000   0.2222222   0.4000000), wk =   0.0355556
        k(   25) = (   0.2000000   0.3333333   0.0000000), wk =   0.0177778
        k(   26) = (   0.2000000   0.3333333   0.2000000), wk =   0.0355556
        k(   27) = (   0.2000000   0.3333333   0.4000000), wk =   0.0355556
        k(   28) = (   0.2000000   0.4444444   0.0000000), wk =   0.0177778
        k(   29) = (   0.2000000   0.4444444   0.2000000), wk =   0.0355556
        k(   30) = (   0.2000000   0.4444444   0.4000000), wk =   0.0355556
        k(   31) = (   0.4000000   0.0000000   0.0000000), wk =   0.0088889
        k(   32) = (   0.4000000   0.0000000   0.2000000), wk =   0.0177778
        k(   33) = (   0.4000000   0.0000000   0.4000000), wk =   0.0177778
        k(   34) = (   0.4000000   0.1111111   0.0000000), wk =   0.0177778
        k(   35) = (   0.4000000   0.1111111   0.2000000), wk =   0.0355556
        k(   36) = (   0.4000000   0.1111111   0.4000000), wk =   0.0355556
        k(   37) = (   0.4000000   0.2222222   0.0000000), wk =   0.0177778
        k(   38) = (   0.4000000   0.2222222   0.2000000), wk =   0.0355556
        k(   39) = (   0.4000000   0.2222222   0.4000000), wk =   0.0355556
        k(   40) = (   0.4000000   0.3333333   0.0000000), wk =   0.0177778
        k(   41) = (   0.4000000   0.3333333   0.2000000), wk =   0.0355556
        k(   42) = (   0.4000000   0.3333333   0.4000000), wk =   0.0355556
        k(   43) = (   0.4000000   0.4444444   0.0000000), wk =   0.0177778
        k(   44) = (   0.4000000   0.4444444   0.2000000), wk =   0.0355556
        k(   45) = (   0.4000000   0.4444444   0.4000000), wk =   0.0355556

     Dense  grid:   261615 G-vectors     FFT dimensions: (  96,  60, 100)

     Smooth grid:    92565 G-vectors     FFT dimensions: (  72,  40,  72)

     Dynamical RAM for                 wfc:      14.47 MB

     Dynamical RAM for     wfc (w. buffer):    1316.69 MB

     Dynamical RAM for           str. fact:      11.98 MB

     Dynamical RAM for           local pot:       0.00 MB

     Dynamical RAM for          nlocal pot:      38.82 MB

     Dynamical RAM for                qrad:       5.74 MB

     Dynamical RAM for          rho,v,vnew:      50.32 MB

     Dynamical RAM for               rhoin:      16.77 MB

     Dynamical RAM for            rho*nmix:     127.74 MB

     Dynamical RAM for           G-vectors:      15.68 MB

     Dynamical RAM for          h,s,v(r/c):       1.23 MB

     Dynamical RAM for          <psi|beta>:       0.28 MB

     Dynamical RAM for                 psi:      28.94 MB

     Dynamical RAM for                hpsi:      28.94 MB

     Dynamical RAM for                spsi:      28.94 MB

     Dynamical RAM for      wfcinit/wfcrot:      29.09 MB

     Dynamical RAM for           addusdens:     838.30 MB

     Dynamical RAM for          addusforce:     862.29 MB

     Dynamical RAM for         addusstress:     884.21 MB

     Estimated static dynamical RAM per process >       1.46 GB

     Estimated max dynamical RAM per process >       2.45 GB

     Atomic positions and unit cell read from directory:
     ./out/aiida.save/
 

     Check: negative core charge=   -0.000001
     Generating pointlists ...
     new r_m :   0.1645 (alat units)  2.6544 (a.u.) for type    1
     new r_m :   0.1506 (alat units)  2.4300 (a.u.) for type    2
     new r_m :   0.1506 (alat units)  2.4300 (a.u.) for type    3

     The initial density is read from file :
     ./out/aiida.save/charge-density


     negative rho (up, down):  3.303E+00 1.183E+00
     Starting wfcs from file
     Checking if some PAW data can be deallocated... 

     total cpu time spent up to now is        7.2 secs

     per-process dynamical memory:   535.2 Mb

     Self-consistent Calculation
[tb_dev] Currently allocated     9.16E-05 Mbytes, locked:    0 /   2
[tb_pin] Currently allocated     0.00E+00 Mbytes, locked:    0 /   0

     iteration #  1     ecut=    40.00 Ry     beta= 0.10
     Davidson diagonalization with overlap

---- Real-time Memory Report at c_bands before calling an iterative solver
           942 MiB given to the printing process from OS
           537 MiB allocation reported by mallinfo(arena+hblkhd)
         58788 MiB available memory on the node where the printing process lives
     GPU memory used/free/total (MiB): 1134 / 15146 / 16280
------------------
     ethr =  1.00E-05,  avg # of iterations =  4.8
     Minimization algorithm failed to find Fermi energy: reverting to bisection
     Possible cause: smearing is larger than the electronic band-gap.

     negative rho (up, down):  3.307E+00 1.189E+00

     total cpu time spent up to now is       21.5 secs

     total energy              =   -2871.56725316 Ry
     estimated scf accuracy    <       0.00369759 Ry

     total magnetization       =    -0.00 Bohr mag/cell
     absolute magnetization    =     4.90 Bohr mag/cell
[tb_dev] Currently allocated     1.34E+01 Mbytes, locked:    0 /  13
[tb_pin] Currently allocated     0.00E+00 Mbytes, locked:    0 /   0

     iteration #  2     ecut=    40.00 Ry     beta= 0.10
     Davidson diagonalization with overlap

---- Real-time Memory Report at c_bands before calling an iterative solver
          2913 MiB given to the printing process from OS
         -1909 MiB allocation reported by mallinfo(arena+hblkhd)
         55238 MiB available memory on the node where the printing process lives
     GPU memory used/free/total (MiB): 2728 / 13552 / 16280
------------------
     ethr =  2.72E-06,  avg # of iterations =  5.5
     Minimization algorithm failed to find Fermi energy: reverting to bisection
     Possible cause: smearing is larger than the electronic band-gap.

     negative rho (up, down):  3.309E+00 1.185E+00

     total cpu time spent up to now is       35.1 secs

     total energy              =   -2871.55370042 Ry
     estimated scf accuracy    <       0.01896377 Ry

     total magnetization       =     0.00 Bohr mag/cell
     absolute magnetization    =     5.29 Bohr mag/cell
[tb_dev] Currently allocated     1.34E+01 Mbytes, locked:    0 /  13
[tb_pin] Currently allocated     0.00E+00 Mbytes, locked:    0 /   0

     iteration #  3     ecut=    40.00 Ry     beta= 0.10
     Davidson diagonalization with overlap

---- Real-time Memory Report at c_bands before calling an iterative solver
          3013 MiB given to the printing process from OS
         -1892 MiB allocation reported by mallinfo(arena+hblkhd)
         55225 MiB available memory on the node where the printing process lives
     GPU memory used/free/total (MiB): 2728 / 13552 / 16280
------------------
     ethr =  2.72E-06,  avg # of iterations =  2.5
     Minimization algorithm failed to find Fermi energy: reverting to bisection
     Possible cause: smearing is larger than the electronic band-gap.

     negative rho (up, down):  3.307E+00 1.183E+00

     total cpu time spent up to now is       44.6 secs

     total energy              =   -2871.55357866 Ry
     estimated scf accuracy    <       0.00780847 Ry

     total magnetization       =     0.00 Bohr mag/cell
     absolute magnetization    =     5.16 Bohr mag/cell
[tb_dev] Currently allocated     1.34E+01 Mbytes, locked:    0 /  13
[tb_pin] Currently allocated     0.00E+00 Mbytes, locked:    0 /   0

     iteration #  4     ecut=    40.00 Ry     beta= 0.10
     Davidson diagonalization with overlap

---- Real-time Memory Report at c_bands before calling an iterative solver
          3114 MiB given to the printing process from OS
         -1876 MiB allocation reported by mallinfo(arena+hblkhd)
         55206 MiB available memory on the node where the printing process lives
     GPU memory used/free/total (MiB): 2728 / 13552 / 16280
------------------
     ethr =  2.72E-06,  avg # of iterations =  2.0
     Minimization algorithm failed to find Fermi energy: reverting to bisection
     Possible cause: smearing is larger than the electronic band-gap.

     negative rho (up, down):  3.306E+00 1.183E+00

     total cpu time spent up to now is       53.8 secs

     total energy              =   -2871.55358470 Ry
     estimated scf accuracy    <       0.00172149 Ry

     total magnetization       =     0.00 Bohr mag/cell
     absolute magnetization    =     4.99 Bohr mag/cell
[tb_dev] Currently allocated     1.34E+01 Mbytes, locked:    0 /  13
[tb_pin] Currently allocated     0.00E+00 Mbytes, locked:    0 /   0

     iteration #  5     ecut=    40.00 Ry     beta= 0.10
     Davidson diagonalization with overlap

---- Real-time Memory Report at c_bands before calling an iterative solver
          3147 MiB given to the printing process from OS
         -1859 MiB allocation reported by mallinfo(arena+hblkhd)
         55193 MiB available memory on the node where the printing process lives
     GPU memory used/free/total (MiB): 2728 / 13552 / 16280
------------------
     ethr =  1.27E-06,  avg # of iterations =  1.8
     Minimization algorithm failed to find Fermi energy: reverting to bisection
     Possible cause: smearing is larger than the electronic band-gap.

     negative rho (up, down):  3.306E+00 1.183E+00

     total cpu time spent up to now is       62.8 secs

     total energy              =   -2871.55357535 Ry
     estimated scf accuracy    <       0.00019512 Ry

     total magnetization       =     0.00 Bohr mag/cell
     absolute magnetization    =     4.93 Bohr mag/cell
[tb_dev] Currently allocated     1.34E+01 Mbytes, locked:    0 /  13
[tb_pin] Currently allocated     0.00E+00 Mbytes, locked:    0 /   0

     iteration #  6     ecut=    40.00 Ry     beta= 0.10
     Davidson diagonalization with overlap

---- Real-time Memory Report at c_bands before calling an iterative solver
          3177 MiB given to the printing process from OS
         -1842 MiB allocation reported by mallinfo(arena+hblkhd)
         55178 MiB available memory on the node where the printing process lives
     GPU memory used/free/total (MiB): 2728 / 13552 / 16280
------------------
     ethr =  1.43E-07,  avg # of iterations =  3.0
     Minimization algorithm failed to find Fermi energy: reverting to bisection
     Possible cause: smearing is larger than the electronic band-gap.

     negative rho (up, down):  3.306E+00 1.184E+00

     total cpu time spent up to now is       72.6 secs

     total energy              =   -2871.55356488 Ry
     estimated scf accuracy    <       0.00012803 Ry

     total magnetization       =     0.00 Bohr mag/cell
     absolute magnetization    =     4.91 Bohr mag/cell
[tb_dev] Currently allocated     1.34E+01 Mbytes, locked:    0 /  13
[tb_pin] Currently allocated     0.00E+00 Mbytes, locked:    0 /   0

     iteration #  7     ecut=    40.00 Ry     beta= 0.10
     Davidson diagonalization with overlap

---- Real-time Memory Report at c_bands before calling an iterative solver
          3194 MiB given to the printing process from OS
         -1825 MiB allocation reported by mallinfo(arena+hblkhd)
         55161 MiB available memory on the node where the printing process lives
     GPU memory used/free/total (MiB): 2728 / 13552 / 16280
------------------
     ethr =  9.41E-08,  avg # of iterations =  4.0
     Minimization algorithm failed to find Fermi energy: reverting to bisection
     Possible cause: smearing is larger than the electronic band-gap.

     negative rho (up, down):  3.305E+00 1.183E+00

     total cpu time spent up to now is       83.3 secs

     total energy              =   -2871.55357098 Ry
     estimated scf accuracy    <       0.00037352 Ry

     total magnetization       =     0.00 Bohr mag/cell
     absolute magnetization    =     5.01 Bohr mag/cell
[tb_dev] Currently allocated     1.34E+01 Mbytes, locked:    0 /  13
[tb_pin] Currently allocated     0.00E+00 Mbytes, locked:    0 /   0

     iteration #  8     ecut=    40.00 Ry     beta= 0.10
     Davidson diagonalization with overlap

---- Real-time Memory Report at c_bands before calling an iterative solver
          3211 MiB given to the printing process from OS
         -1808 MiB allocation reported by mallinfo(arena+hblkhd)
         55141 MiB available memory on the node where the printing process lives
     GPU memory used/free/total (MiB): 2728 / 13552 / 16280
------------------
     ethr =  9.41E-08,  avg # of iterations =  2.5
     Minimization algorithm failed to find Fermi energy: reverting to bisection
     Possible cause: smearing is larger than the electronic band-gap.

     negative rho (up, down):  3.306E+00 1.183E+00

     total cpu time spent up to now is       92.9 secs

     total energy              =   -2871.55359272 Ry
     estimated scf accuracy    <       0.00025657 Ry

     total magnetization       =     0.00 Bohr mag/cell
     absolute magnetization    =     4.95 Bohr mag/cell
[tb_dev] Currently allocated     1.34E+01 Mbytes, locked:    0 /  13
[tb_pin] Currently allocated     0.00E+00 Mbytes, locked:    0 /   0

     iteration #  9     ecut=    40.00 Ry     beta= 0.10
     Davidson diagonalization with overlap

---- Real-time Memory Report at c_bands before calling an iterative solver
          3228 MiB given to the printing process from OS
         -1791 MiB allocation reported by mallinfo(arena+hblkhd)
         55129 MiB available memory on the node where the printing process lives
     GPU memory used/free/total (MiB): 2728 / 13552 / 16280
------------------
     ethr =  9.41E-08,  avg # of iterations =  1.5
     Minimization algorithm failed to find Fermi energy: reverting to bisection
     Possible cause: smearing is larger than the electronic band-gap.

     negative rho (up, down):  3.307E+00 1.183E+00

     total cpu time spent up to now is      101.7 secs

     total energy              =   -2871.55366980 Ry
     estimated scf accuracy    <       0.00016579 Ry

     total magnetization       =     0.00 Bohr mag/cell
     absolute magnetization    =     4.93 Bohr mag/cell
[tb_dev] Currently allocated     1.34E+01 Mbytes, locked:    0 /  13
[tb_pin] Currently allocated     0.00E+00 Mbytes, locked:    0 /   0

     iteration # 10     ecut=    40.00 Ry     beta= 0.10
     Davidson diagonalization with overlap

---- Real-time Memory Report at c_bands before calling an iterative solver
          3245 MiB given to the printing process from OS
         -1774 MiB allocation reported by mallinfo(arena+hblkhd)
         55109 MiB available memory on the node where the printing process lives
     GPU memory used/free/total (MiB): 2728 / 13552 / 16280
------------------
     ethr =  9.41E-08,  avg # of iterations =  2.0
     Minimization algorithm failed to find Fermi energy: reverting to bisection
     Possible cause: smearing is larger than the electronic band-gap.

     negative rho (up, down):  3.307E+00 1.183E+00

     total cpu time spent up to now is      110.9 secs

     total energy              =   -2871.55366388 Ry
     estimated scf accuracy    <       0.00002075 Ry

     total magnetization       =     0.00 Bohr mag/cell
     absolute magnetization    =     4.94 Bohr mag/cell
[tb_dev] Currently allocated     1.34E+01 Mbytes, locked:    0 /  13
[tb_pin] Currently allocated     0.00E+00 Mbytes, locked:    0 /   0

     iteration # 11     ecut=    40.00 Ry     beta= 0.10
     Davidson diagonalization with overlap

---- Real-time Memory Report at c_bands before calling an iterative solver
          3256 MiB given to the printing process from OS
         -1765 MiB allocation reported by mallinfo(arena+hblkhd)
         55101 MiB available memory on the node where the printing process lives
     GPU memory used/free/total (MiB): 2728 / 13552 / 16280
------------------
     ethr =  1.53E-08,  avg # of iterations =  1.4
     Minimization algorithm failed to find Fermi energy: reverting to bisection
     Possible cause: smearing is larger than the electronic band-gap.

     negative rho (up, down):  3.308E+00 1.182E+00

     total cpu time spent up to now is      119.6 secs

     total energy              =   -2871.55369971 Ry
     estimated scf accuracy    <       0.00002561 Ry

     total magnetization       =     0.00 Bohr mag/cell
     absolute magnetization    =     4.93 Bohr mag/cell
[tb_dev] Currently allocated     1.34E+01 Mbytes, locked:    0 /  13
[tb_pin] Currently allocated     0.00E+00 Mbytes, locked:    0 /   0

     iteration # 12     ecut=    40.00 Ry     beta= 0.10
     Davidson diagonalization with overlap

---- Real-time Memory Report at c_bands before calling an iterative solver
          3265 MiB given to the printing process from OS
         -1757 MiB allocation reported by mallinfo(arena+hblkhd)
         55093 MiB available memory on the node where the printing process lives
     GPU memory used/free/total (MiB): 2728 / 13552 / 16280
------------------
     ethr =  1.53E-08,  avg # of iterations =  3.0
     Minimization algorithm failed to find Fermi energy: reverting to bisection
     Possible cause: smearing is larger than the electronic band-gap.

     negative rho (up, down):  3.307E+00 1.183E+00

     total cpu time spent up to now is      129.7 secs

     total energy              =   -2871.55365921 Ry
     estimated scf accuracy    <       0.00030192 Ry

     total magnetization       =     0.00 Bohr mag/cell
     absolute magnetization    =     4.88 Bohr mag/cell
[tb_dev] Currently allocated     1.34E+01 Mbytes, locked:    0 /  13
[tb_pin] Currently allocated     0.00E+00 Mbytes, locked:    0 /   0

     iteration # 13     ecut=    40.00 Ry     beta= 0.10
     Davidson diagonalization with overlap

---- Real-time Memory Report at c_bands before calling an iterative solver
          3273 MiB given to the printing process from OS
         -1748 MiB allocation reported by mallinfo(arena+hblkhd)
         55083 MiB available memory on the node where the printing process lives
     GPU memory used/free/total (MiB): 2728 / 13552 / 16280
------------------
     ethr =  1.53E-08,  avg # of iterations =  4.4
     Minimization algorithm failed to find Fermi energy: reverting to bisection
     Possible cause: smearing is larger than the electronic band-gap.

     negative rho (up, down):  3.306E+00 1.183E+00

     total cpu time spent up to now is      141.0 secs

     total energy              =   -2871.55366244 Ry
     estimated scf accuracy    <       0.00028780 Ry

     total magnetization       =     0.00 Bohr mag/cell
     absolute magnetization    =     4.89 Bohr mag/cell
[tb_dev] Currently allocated     1.34E+01 Mbytes, locked:    0 /  13
[tb_pin] Currently allocated     0.00E+00 Mbytes, locked:    0 /   0

     iteration # 14     ecut=    40.00 Ry     beta= 0.10
     Davidson diagonalization with overlap

---- Real-time Memory Report at c_bands before calling an iterative solver
          3282 MiB given to the printing process from OS
         -1740 MiB allocation reported by mallinfo(arena+hblkhd)
         55079 MiB available memory on the node where the printing process lives
     GPU memory used/free/total (MiB): 2728 / 13552 / 16280
------------------
     ethr =  1.53E-08,  avg # of iterations =  1.0
     Minimization algorithm failed to find Fermi energy: reverting to bisection
     Possible cause: smearing is larger than the electronic band-gap.

     negative rho (up, down):  3.307E+00 1.182E+00

     total cpu time spent up to now is      149.5 secs

     total energy              =   -2871.55366479 Ry
     estimated scf accuracy    <       0.00032911 Ry

     total magnetization       =     0.00 Bohr mag/cell
     absolute magnetization    =     4.89 Bohr mag/cell
[tb_dev] Currently allocated     1.34E+01 Mbytes, locked:    0 /  13
[tb_pin] Currently allocated     0.00E+00 Mbytes, locked:    0 /   0

     iteration # 15     ecut=    40.00 Ry     beta= 0.10
     Davidson diagonalization with overlap

---- Real-time Memory Report at c_bands before calling an iterative solver
          3290 MiB given to the printing process from OS
         -1731 MiB allocation reported by mallinfo(arena+hblkhd)
         55068 MiB available memory on the node where the printing process lives
     GPU memory used/free/total (MiB): 2728 / 13552 / 16280
------------------
     ethr =  1.53E-08,  avg # of iterations =  1.7
     Minimization algorithm failed to find Fermi energy: reverting to bisection
     Possible cause: smearing is larger than the electronic band-gap.

     negative rho (up, down):  3.306E+00 1.182E+00

     total cpu time spent up to now is      158.5 secs

     total energy              =   -2871.55366425 Ry
     estimated scf accuracy    <       0.00033453 Ry

     total magnetization       =     0.00 Bohr mag/cell
     absolute magnetization    =     4.89 Bohr mag/cell
[tb_dev] Currently allocated     1.34E+01 Mbytes, locked:    0 /  13
[tb_pin] Currently allocated     0.00E+00 Mbytes, locked:    0 /   0

     iteration # 16     ecut=    40.00 Ry     beta= 0.10
     Davidson diagonalization with overlap

---- Real-time Memory Report at c_bands before calling an iterative solver
          3301 MiB given to the printing process from OS
         -1723 MiB allocation reported by mallinfo(arena+hblkhd)
         55058 MiB available memory on the node where the printing process lives
     GPU memory used/free/total (MiB): 2728 / 13552 / 16280
------------------
     ethr =  1.53E-08,  avg # of iterations =  1.4
     Minimization algorithm failed to find Fermi energy: reverting to bisection
     Possible cause: smearing is larger than the electronic band-gap.

     negative rho (up, down):  3.307E+00 1.182E+00

     total cpu time spent up to now is      167.2 secs

     total energy              =   -2871.55367098 Ry
     estimated scf accuracy    <       0.00040718 Ry

     total magnetization       =     0.00 Bohr mag/cell
     absolute magnetization    =     4.88 Bohr mag/cell
[tb_dev] Currently allocated     1.34E+01 Mbytes, locked:    0 /  13
[tb_pin] Currently allocated     0.00E+00 Mbytes, locked:    0 /   0

     iteration # 17     ecut=    40.00 Ry     beta= 0.10
     Davidson diagonalization with overlap

---- Real-time Memory Report at c_bands before calling an iterative solver
          3310 MiB given to the printing process from OS
         -1715 MiB allocation reported by mallinfo(arena+hblkhd)
         55053 MiB available memory on the node where the printing process lives
     GPU memory used/free/total (MiB): 2728 / 13552 / 16280
------------------
     ethr =  1.53E-08,  avg # of iterations =  3.0
     Minimization algorithm failed to find Fermi energy: reverting to bisection
     Possible cause: smearing is larger than the electronic band-gap.

     negative rho (up, down):  3.309E+00 1.182E+00

     total cpu time spent up to now is      177.1 secs

     total energy              =   -2871.55372438 Ry
     estimated scf accuracy    <       0.00016262 Ry

     total magnetization       =     0.00 Bohr mag/cell
     absolute magnetization    =     4.90 Bohr mag/cell
[tb_dev] Currently allocated     1.34E+01 Mbytes, locked:    0 /  13
[tb_pin] Currently allocated     0.00E+00 Mbytes, locked:    0 /   0

     iteration # 18     ecut=    40.00 Ry     beta= 0.10
     Davidson diagonalization with overlap

---- Real-time Memory Report at c_bands before calling an iterative solver
          3318 MiB given to the printing process from OS
         -1706 MiB allocation reported by mallinfo(arena+hblkhd)
         55043 MiB available memory on the node where the printing process lives
     GPU memory used/free/total (MiB): 2728 / 13552 / 16280
------------------
     ethr =  1.53E-08,  avg # of iterations =  4.2
     Minimization algorithm failed to find Fermi energy: reverting to bisection
     Possible cause: smearing is larger than the electronic band-gap.

     negative rho (up, down):  3.309E+00 1.183E+00

     total cpu time spent up to now is      188.3 secs

     total energy              =   -2871.55375394 Ry
     estimated scf accuracy    <       0.00024456 Ry

     total magnetization       =     0.00 Bohr mag/cell
     absolute magnetization    =     4.90 Bohr mag/cell
[tb_dev] Currently allocated     1.34E+01 Mbytes, locked:    0 /  13
[tb_pin] Currently allocated     0.00E+00 Mbytes, locked:    0 /   0

     iteration # 19     ecut=    40.00 Ry     beta= 0.10
     Davidson diagonalization with overlap

---- Real-time Memory Report at c_bands before calling an iterative solver
          3326 MiB given to the printing process from OS
         -1698 MiB allocation reported by mallinfo(arena+hblkhd)
         55035 MiB available memory on the node where the printing process lives
     GPU memory used/free/total (MiB): 2728 / 13552 / 16280
------------------
     ethr =  1.53E-08,  avg # of iterations =  3.6
     Minimization algorithm failed to find Fermi energy: reverting to bisection
     Possible cause: smearing is larger than the electronic band-gap.

     negative rho (up, down):  3.307E+00 1.183E+00

     total cpu time spent up to now is      198.9 secs

     total energy              =   -2871.55366508 Ry
     estimated scf accuracy    <       0.00011383 Ry

     total magnetization       =     0.00 Bohr mag/cell
     absolute magnetization    =     4.93 Bohr mag/cell
[tb_dev] Currently allocated     1.34E+01 Mbytes, locked:    0 /  13
[tb_pin] Currently allocated     0.00E+00 Mbytes, locked:    0 /   0

     iteration # 20     ecut=    40.00 Ry     beta= 0.10
     Davidson diagonalization with overlap

---- Real-time Memory Report at c_bands before calling an iterative solver
          3335 MiB given to the printing process from OS
         -1689 MiB allocation reported by mallinfo(arena+hblkhd)
         55029 MiB available memory on the node where the printing process lives
     GPU memory used/free/total (MiB): 2728 / 13552 / 16280
------------------
     ethr =  1.53E-08,  avg # of iterations =  4.0
     Minimization algorithm failed to find Fermi energy: reverting to bisection
     Possible cause: smearing is larger than the electronic band-gap.

     negative rho (up, down):  3.307E+00 1.183E+00

     total cpu time spent up to now is      209.8 secs

     total energy              =   -2871.55366254 Ry
     estimated scf accuracy    <       0.00005620 Ry

     total magnetization       =     0.00 Bohr mag/cell
     absolute magnetization    =     4.94 Bohr mag/cell
[tb_dev] Currently allocated     1.34E+01 Mbytes, locked:    0 /  13
[tb_pin] Currently allocated     0.00E+00 Mbytes, locked:    0 /   0

     iteration # 21     ecut=    40.00 Ry     beta= 0.10
     Davidson diagonalization with overlap

---- Real-time Memory Report at c_bands before calling an iterative solver
          3344 MiB given to the printing process from OS
         -1681 MiB allocation reported by mallinfo(arena+hblkhd)
         55017 MiB available memory on the node where the printing process lives
     GPU memory used/free/total (MiB): 2728 / 13552 / 16280
------------------
     ethr =  1.53E-08,  avg # of iterations =  1.1
     Minimization algorithm failed to find Fermi energy: reverting to bisection
     Possible cause: smearing is larger than the electronic band-gap.

     negative rho (up, down):  3.307E+00 1.183E+00

     total cpu time spent up to now is      218.2 secs

     total energy              =   -2871.55366490 Ry
     estimated scf accuracy    <       0.00008094 Ry

     total magnetization       =     0.00 Bohr mag/cell
     absolute magnetization    =     4.94 Bohr mag/cell
[tb_dev] Currently allocated     1.34E+01 Mbytes, locked:    0 /  13
[tb_pin] Currently allocated     0.00E+00 Mbytes, locked:    0 /   0

     iteration # 22     ecut=    40.00 Ry     beta= 0.10
     Davidson diagonalization with overlap

---- Real-time Memory Report at c_bands before calling an iterative solver
          3352 MiB given to the printing process from OS
         -1672 MiB allocation reported by mallinfo(arena+hblkhd)
         55010 MiB available memory on the node where the printing process lives
     GPU memory used/free/total (MiB): 2728 / 13552 / 16280
------------------
     ethr =  1.53E-08,  avg # of iterations =  1.0
     Minimization algorithm failed to find Fermi energy: reverting to bisection
     Possible cause: smearing is larger than the electronic band-gap.

     negative rho (up, down):  3.308E+00 1.182E+00

     total cpu time spent up to now is      226.6 secs

     total energy              =   -2871.55375830 Ry
     estimated scf accuracy    <       0.00008404 Ry

     total magnetization       =     0.00 Bohr mag/cell
     absolute magnetization    =     4.94 Bohr mag/cell
[tb_dev] Currently allocated     1.34E+01 Mbytes, locked:    0 /  13
[tb_pin] Currently allocated     0.00E+00 Mbytes, locked:    0 /   0

     iteration # 23     ecut=    40.00 Ry     beta= 0.10
     Davidson diagonalization with overlap

---- Real-time Memory Report at c_bands before calling an iterative solver
          3361 MiB given to the printing process from OS
         -1664 MiB allocation reported by mallinfo(arena+hblkhd)
         55001 MiB available memory on the node where the printing process lives
     GPU memory used/free/total (MiB): 2728 / 13552 / 16280
------------------
     ethr =  1.53E-08,  avg # of iterations =  3.4
     Minimization algorithm failed to find Fermi energy: reverting to bisection
     Possible cause: smearing is larger than the electronic band-gap.

     negative rho (up, down):  3.309E+00 1.182E+00

     total cpu time spent up to now is      237.2 secs

     total energy              =   -2871.55376349 Ry
     estimated scf accuracy    <       0.00040880 Ry

     total magnetization       =     0.00 Bohr mag/cell
     absolute magnetization    =     4.89 Bohr mag/cell
[tb_dev] Currently allocated     1.34E+01 Mbytes, locked:    0 /  13
[tb_pin] Currently allocated     0.00E+00 Mbytes, locked:    0 /   0

     iteration # 24     ecut=    40.00 Ry     beta= 0.10
     Davidson diagonalization with overlap

---- Real-time Memory Report at c_bands before calling an iterative solver
          3369 MiB given to the printing process from OS
         -1656 MiB allocation reported by mallinfo(arena+hblkhd)
         54992 MiB available memory on the node where the printing process lives
     GPU memory used/free/total (MiB): 2728 / 13552 / 16280
------------------
     ethr =  1.53E-08,  avg # of iterations =  1.5
     Minimization algorithm failed to find Fermi energy: reverting to bisection
     Possible cause: smearing is larger than the electronic band-gap.

     negative rho (up, down):  3.309E+00 1.182E+00

     total cpu time spent up to now is      245.9 secs

     total energy              =   -2871.55379369 Ry
     estimated scf accuracy    <       0.00041777 Ry

     total magnetization       =     0.00 Bohr mag/cell
     absolute magnetization    =     4.89 Bohr mag/cell
[tb_dev] Currently allocated     1.34E+01 Mbytes, locked:    0 /  13
[tb_pin] Currently allocated     0.00E+00 Mbytes, locked:    0 /   0

     iteration # 25     ecut=    40.00 Ry     beta= 0.10
     Davidson diagonalization with overlap

---- Real-time Memory Report at c_bands before calling an iterative solver
          3378 MiB given to the printing process from OS
         -1647 MiB allocation reported by mallinfo(arena+hblkhd)
         54988 MiB available memory on the node where the printing process lives
     GPU memory used/free/total (MiB): 2728 / 13552 / 16280
------------------
     ethr =  1.53E-08,  avg # of iterations =  2.2
     Minimization algorithm failed to find Fermi energy: reverting to bisection
     Possible cause: smearing is larger than the electronic band-gap.

     negative rho (up, down):  3.305E+00 1.184E+00

     total cpu time spent up to now is      255.2 secs

     total energy              =   -2871.55356674 Ry
     estimated scf accuracy    <       0.00046913 Ry

     total magnetization       =     0.00 Bohr mag/cell
     absolute magnetization    =     4.88 Bohr mag/cell
[tb_dev] Currently allocated     1.34E+01 Mbytes, locked:    0 /  13
[tb_pin] Currently allocated     0.00E+00 Mbytes, locked:    0 /   0

     iteration # 26     ecut=    40.00 Ry     beta= 0.10
     Davidson diagonalization with overlap

---- Real-time Memory Report at c_bands before calling an iterative solver
          3386 MiB given to the printing process from OS
         -1639 MiB allocation reported by mallinfo(arena+hblkhd)
         54977 MiB available memory on the node where the printing process lives
     GPU memory used/free/total (MiB): 2728 / 13552 / 16280
------------------
     ethr =  1.53E-08,  avg # of iterations =  4.0
     Minimization algorithm failed to find Fermi energy: reverting to bisection
     Possible cause: smearing is larger than the electronic band-gap.

     negative rho (up, down):  3.308E+00 1.182E+00

     total cpu time spent up to now is      266.4 secs

     total energy              =   -2871.55369857 Ry
     estimated scf accuracy    <       0.00039336 Ry

     total magnetization       =     0.00 Bohr mag/cell
     absolute magnetization    =     4.91 Bohr mag/cell
[tb_dev] Currently allocated     1.34E+01 Mbytes, locked:    0 /  13
[tb_pin] Currently allocated     0.00E+00 Mbytes, locked:    0 /   0

     iteration # 27     ecut=    40.00 Ry     beta= 0.10
     Davidson diagonalization with overlap

---- Real-time Memory Report at c_bands before calling an iterative solver
          3395 MiB given to the printing process from OS
         -1630 MiB allocation reported by mallinfo(arena+hblkhd)
         54969 MiB available memory on the node where the printing process lives
     GPU memory used/free/total (MiB): 2728 / 13552 / 16280
------------------
     ethr =  1.53E-08,  avg # of iterations =  2.7
     Minimization algorithm failed to find Fermi energy: reverting to bisection
     Possible cause: smearing is larger than the electronic band-gap.

     negative rho (up, down):  3.309E+00 1.182E+00

     total cpu time spent up to now is      276.2 secs

     total energy              =   -2871.55378354 Ry
     estimated scf accuracy    <       0.00029240 Ry

     total magnetization       =     0.00 Bohr mag/cell
     absolute magnetization    =     4.90 Bohr mag/cell
[tb_dev] Currently allocated     1.34E+01 Mbytes, locked:    0 /  13
[tb_pin] Currently allocated     0.00E+00 Mbytes, locked:    0 /   0

     iteration # 28     ecut=    40.00 Ry     beta= 0.10
     Davidson diagonalization with overlap

---- Real-time Memory Report at c_bands before calling an iterative solver
          3403 MiB given to the printing process from OS
         -1622 MiB allocation reported by mallinfo(arena+hblkhd)
         54961 MiB available memory on the node where the printing process lives
     GPU memory used/free/total (MiB): 2728 / 13552 / 16280
------------------
     ethr =  1.53E-08,  avg # of iterations =  3.0
     Minimization algorithm failed to find Fermi energy: reverting to bisection
     Possible cause: smearing is larger than the electronic band-gap.

     negative rho (up, down):  3.308E+00 1.182E+00

     total cpu time spent up to now is      286.2 secs

     total energy              =   -2871.55372101 Ry
     estimated scf accuracy    <       0.00055873 Ry

     total magnetization       =     0.00 Bohr mag/cell
     absolute magnetization    =     4.88 Bohr mag/cell
[tb_dev] Currently allocated     1.34E+01 Mbytes, locked:    0 /  13
[tb_pin] Currently allocated     0.00E+00 Mbytes, locked:    0 /   0

     iteration # 29     ecut=    40.00 Ry     beta= 0.10
     Davidson diagonalization with overlap

---- Real-time Memory Report at c_bands before calling an iterative solver
          3412 MiB given to the printing process from OS
         -1614 MiB allocation reported by mallinfo(arena+hblkhd)
         54951 MiB available memory on the node where the printing process lives
     GPU memory used/free/total (MiB): 2728 / 13552 / 16280
------------------
     ethr =  1.53E-08,  avg # of iterations =  4.0
     Minimization algorithm failed to find Fermi energy: reverting to bisection
     Possible cause: smearing is larger than the electronic band-gap.

     negative rho (up, down):  3.308E+00 1.182E+00

     total cpu time spent up to now is      297.1 secs

     total energy              =   -2871.55372406 Ry
     estimated scf accuracy    <       0.00033813 Ry

     total magnetization       =     0.00 Bohr mag/cell
     absolute magnetization    =     4.87 Bohr mag/cell
[tb_dev] Currently allocated     1.34E+01 Mbytes, locked:    0 /  13
[tb_pin] Currently allocated     0.00E+00 Mbytes, locked:    0 /   0

     iteration # 30     ecut=    40.00 Ry     beta= 0.10
     Davidson diagonalization with overlap

---- Real-time Memory Report at c_bands before calling an iterative solver
          3420 MiB given to the printing process from OS
         -1605 MiB allocation reported by mallinfo(arena+hblkhd)
         54945 MiB available memory on the node where the printing process lives
     GPU memory used/free/total (MiB): 2728 / 13552 / 16280
------------------
     ethr =  1.53E-08,  avg # of iterations =  1.0
     Minimization algorithm failed to find Fermi energy: reverting to bisection
     Possible cause: smearing is larger than the electronic band-gap.

     negative rho (up, down):  3.307E+00 1.183E+00

     total cpu time spent up to now is      305.6 secs

     total energy              =   -2871.55366749 Ry
     estimated scf accuracy    <       0.00032957 Ry

     total magnetization       =     0.00 Bohr mag/cell
     absolute magnetization    =     4.87 Bohr mag/cell
[tb_dev] Currently allocated     1.34E+01 Mbytes, locked:    0 /  13
[tb_pin] Currently allocated     0.00E+00 Mbytes, locked:    0 /   0

     iteration # 31     ecut=    40.00 Ry     beta= 0.10
     Davidson diagonalization with overlap

---- Real-time Memory Report at c_bands before calling an iterative solver
          3429 MiB given to the printing process from OS
         -1597 MiB allocation reported by mallinfo(arena+hblkhd)
         54934 MiB available memory on the node where the printing process lives
     GPU memory used/free/total (MiB): 2728 / 13552 / 16280
------------------
     ethr =  1.53E-08,  avg # of iterations =  3.0
     Minimization algorithm failed to find Fermi energy: reverting to bisection
     Possible cause: smearing is larger than the electronic band-gap.

     negative rho (up, down):  3.307E+00 1.183E+00

     total cpu time spent up to now is      315.7 secs

     total energy              =   -2871.55366795 Ry
     estimated scf accuracy    <       0.00007415 Ry

     total magnetization       =     0.00 Bohr mag/cell
     absolute magnetization    =     4.91 Bohr mag/cell
[tb_dev] Currently allocated     1.34E+01 Mbytes, locked:    0 /  13
[tb_pin] Currently allocated     0.00E+00 Mbytes, locked:    0 /   0

     iteration # 32     ecut=    40.00 Ry     beta= 0.10
     Davidson diagonalization with overlap

---- Real-time Memory Report at c_bands before calling an iterative solver
          3437 MiB given to the printing process from OS
         -1588 MiB allocation reported by mallinfo(arena+hblkhd)
         54927 MiB available memory on the node where the printing process lives
     GPU memory used/free/total (MiB): 2728 / 13552 / 16280
------------------
     ethr =  1.53E-08,  avg # of iterations =  2.6
     Minimization algorithm failed to find Fermi energy: reverting to bisection
     Possible cause: smearing is larger than the electronic band-gap.

     negative rho (up, down):  3.307E+00 1.183E+00

     total cpu time spent up to now is      325.4 secs

     total energy              =   -2871.55367128 Ry
     estimated scf accuracy    <       0.00021990 Ry

     total magnetization       =     0.00 Bohr mag/cell
     absolute magnetization    =     4.89 Bohr mag/cell
[tb_dev] Currently allocated     1.34E+01 Mbytes, locked:    0 /  13
[tb_pin] Currently allocated     0.00E+00 Mbytes, locked:    0 /   0

     iteration # 33     ecut=    40.00 Ry     beta= 0.10
     Davidson diagonalization with overlap

---- Real-time Memory Report at c_bands before calling an iterative solver
          3445 MiB given to the printing process from OS
         -1580 MiB allocation reported by mallinfo(arena+hblkhd)
         54918 MiB available memory on the node where the printing process lives
     GPU memory used/free/total (MiB): 2728 / 13552 / 16280
------------------
     ethr =  1.53E-08,  avg # of iterations =  1.0
     Minimization algorithm failed to find Fermi energy: reverting to bisection
     Possible cause: smearing is larger than the electronic band-gap.

     negative rho (up, down):  3.307E+00 1.183E+00

     total cpu time spent up to now is      333.8 secs

     total energy              =   -2871.55372397 Ry
     estimated scf accuracy    <       0.00023636 Ry

     total magnetization       =     0.00 Bohr mag/cell
     absolute magnetization    =     4.89 Bohr mag/cell
[tb_dev] Currently allocated     1.34E+01 Mbytes, locked:    0 /  13
[tb_pin] Currently allocated     0.00E+00 Mbytes, locked:    0 /   0

     iteration # 34     ecut=    40.00 Ry     beta= 0.10
     Davidson diagonalization with overlap

---- Real-time Memory Report at c_bands before calling an iterative solver
          3453 MiB given to the printing process from OS
         -1571 MiB allocation reported by mallinfo(arena+hblkhd)
         54910 MiB available memory on the node where the printing process lives
     GPU memory used/free/total (MiB): 2728 / 13552 / 16280
------------------
     ethr =  1.53E-08,  avg # of iterations =  3.0
     Minimization algorithm failed to find Fermi energy: reverting to bisection
     Possible cause: smearing is larger than the electronic band-gap.

     negative rho (up, down):  3.307E+00 1.183E+00

     total cpu time spent up to now is      343.8 secs

     total energy              =   -2871.55368123 Ry
     estimated scf accuracy    <       0.00028557 Ry

     total magnetization       =     0.00 Bohr mag/cell
     absolute magnetization    =     4.90 Bohr mag/cell
[tb_dev] Currently allocated     1.34E+01 Mbytes, locked:    0 /  13
[tb_pin] Currently allocated     0.00E+00 Mbytes, locked:    0 /   0

     iteration # 35     ecut=    40.00 Ry     beta= 0.10
     Davidson diagonalization with overlap

---- Real-time Memory Report at c_bands before calling an iterative solver
          3462 MiB given to the printing process from OS
         -1563 MiB allocation reported by mallinfo(arena+hblkhd)
         54903 MiB available memory on the node where the printing process lives
     GPU memory used/free/total (MiB): 2728 / 13552 / 16280
------------------
     ethr =  1.53E-08,  avg # of iterations =  2.1
     Minimization algorithm failed to find Fermi energy: reverting to bisection
     Possible cause: smearing is larger than the electronic band-gap.

     negative rho (up, down):  3.307E+00 1.183E+00

     total cpu time spent up to now is      353.1 secs

     total energy              =   -2871.55367665 Ry
     estimated scf accuracy    <       0.00012575 Ry

     total magnetization       =     0.00 Bohr mag/cell
     absolute magnetization    =     4.92 Bohr mag/cell
[tb_dev] Currently allocated     1.34E+01 Mbytes, locked:    0 /  13
[tb_pin] Currently allocated     0.00E+00 Mbytes, locked:    0 /   0

     iteration # 36     ecut=    40.00 Ry     beta= 0.10
     Davidson diagonalization with overlap

---- Real-time Memory Report at c_bands before calling an iterative solver
          3476 MiB given to the printing process from OS
         -1555 MiB allocation reported by mallinfo(arena+hblkhd)
         54896 MiB available memory on the node where the printing process lives
     GPU memory used/free/total (MiB): 2728 / 13552 / 16280
------------------
     ethr =  1.53E-08,  avg # of iterations =  1.0
     Minimization algorithm failed to find Fermi energy: reverting to bisection
     Possible cause: smearing is larger than the electronic band-gap.

     negative rho (up, down):  3.307E+00 1.183E+00

     total cpu time spent up to now is      361.4 secs

     total energy              =   -2871.55367777 Ry
     estimated scf accuracy    <       0.00010850 Ry

     total magnetization       =     0.00 Bohr mag/cell
     absolute magnetization    =     4.91 Bohr mag/cell
[tb_dev] Currently allocated     1.34E+01 Mbytes, locked:    0 /  13
[tb_pin] Currently allocated     0.00E+00 Mbytes, locked:    0 /   0

     iteration # 37     ecut=    40.00 Ry     beta= 0.10
     Davidson diagonalization with overlap

---- Real-time Memory Report at c_bands before calling an iterative solver
          3485 MiB given to the printing process from OS
         -1546 MiB allocation reported by mallinfo(arena+hblkhd)
         54883 MiB available memory on the node where the printing process lives
     GPU memory used/free/total (MiB): 2728 / 13552 / 16280
------------------
     ethr =  1.53E-08,  avg # of iterations =  1.0
     Minimization algorithm failed to find Fermi energy: reverting to bisection
     Possible cause: smearing is larger than the electronic band-gap.

     negative rho (up, down):  3.307E+00 1.183E+00

     total cpu time spent up to now is      369.9 secs

     total energy              =   -2871.55367902 Ry
     estimated scf accuracy    <       0.00010755 Ry

     total magnetization       =     0.00 Bohr mag/cell
     absolute magnetization    =     4.91 Bohr mag/cell
[tb_dev] Currently allocated     1.34E+01 Mbytes, locked:    0 /  13
[tb_pin] Currently allocated     0.00E+00 Mbytes, locked:    0 /   0

     iteration # 38     ecut=    40.00 Ry     beta= 0.10
     Davidson diagonalization with overlap

---- Real-time Memory Report at c_bands before calling an iterative solver
          3493 MiB given to the printing process from OS
         -1538 MiB allocation reported by mallinfo(arena+hblkhd)
         54879 MiB available memory on the node where the printing process lives
     GPU memory used/free/total (MiB): 2728 / 13552 / 16280
------------------
     ethr =  1.53E-08,  avg # of iterations =  1.0
     Minimization algorithm failed to find Fermi energy: reverting to bisection
     Possible cause: smearing is larger than the electronic band-gap.

     negative rho (up, down):  3.307E+00 1.183E+00

     total cpu time spent up to now is      378.3 secs

     total energy              =   -2871.55368012 Ry
     estimated scf accuracy    <       0.00008776 Ry

     total magnetization       =     0.00 Bohr mag/cell
     absolute magnetization    =     4.92 Bohr mag/cell
[tb_dev] Currently allocated     1.34E+01 Mbytes, locked:    0 /  13
[tb_pin] Currently allocated     0.00E+00 Mbytes, locked:    0 /   0

     iteration # 39     ecut=    40.00 Ry     beta= 0.10
     Davidson diagonalization with overlap

---- Real-time Memory Report at c_bands before calling an iterative solver
          3501 MiB given to the printing process from OS
         -1529 MiB allocation reported by mallinfo(arena+hblkhd)
         54868 MiB available memory on the node where the printing process lives
     GPU memory used/free/total (MiB): 2728 / 13552 / 16280
------------------
     ethr =  1.53E-08,  avg # of iterations =  1.3
     Minimization algorithm failed to find Fermi energy: reverting to bisection
     Possible cause: smearing is larger than the electronic band-gap.

     negative rho (up, down):  3.307E+00 1.183E+00

     total cpu time spent up to now is      386.9 secs

     total energy              =   -2871.55372653 Ry
     estimated scf accuracy    <       0.00005064 Ry

     total magnetization       =     0.00 Bohr mag/cell
     absolute magnetization    =     4.92 Bohr mag/cell
[tb_dev] Currently allocated     1.34E+01 Mbytes, locked:    0 /  13
[tb_pin] Currently allocated     0.00E+00 Mbytes, locked:    0 /   0

     iteration # 40     ecut=    40.00 Ry     beta= 0.10
     Davidson diagonalization with overlap

---- Real-time Memory Report at c_bands before calling an iterative solver
          3509 MiB given to the printing process from OS
         -1521 MiB allocation reported by mallinfo(arena+hblkhd)
         54858 MiB available memory on the node where the printing process lives
     GPU memory used/free/total (MiB): 2728 / 13552 / 16280
------------------
     ethr =  1.53E-08,  avg # of iterations =  2.4
     Minimization algorithm failed to find Fermi energy: reverting to bisection
     Possible cause: smearing is larger than the electronic band-gap.

     negative rho (up, down):  3.307E+00 1.183E+00

     total cpu time spent up to now is      396.4 secs

     total energy              =   -2871.55372161 Ry
     estimated scf accuracy    <       0.00025497 Ry

     total magnetization       =     0.00 Bohr mag/cell
     absolute magnetization    =     4.89 Bohr mag/cell
[tb_dev] Currently allocated     1.34E+01 Mbytes, locked:    0 /  13
[tb_pin] Currently allocated     0.00E+00 Mbytes, locked:    0 /   0

     iteration # 41     ecut=    40.00 Ry     beta= 0.10
     Davidson diagonalization with overlap

---- Real-time Memory Report at c_bands before calling an iterative solver
          3518 MiB given to the printing process from OS
         -1512 MiB allocation reported by mallinfo(arena+hblkhd)
         54849 MiB available memory on the node where the printing process lives
     GPU memory used/free/total (MiB): 2728 / 13552 / 16280
------------------
     ethr =  1.53E-08,  avg # of iterations =  1.3
     Minimization algorithm failed to find Fermi energy: reverting to bisection
     Possible cause: smearing is larger than the electronic band-gap.

     negative rho (up, down):  3.307E+00 1.183E+00

     total cpu time spent up to now is      405.1 secs

     total energy              =   -2871.55367619 Ry
     estimated scf accuracy    <       0.00025529 Ry

     total magnetization       =     0.00 Bohr mag/cell
     absolute magnetization    =     4.90 Bohr mag/cell
[tb_dev] Currently allocated     1.34E+01 Mbytes, locked:    0 /  13
[tb_pin] Currently allocated     0.00E+00 Mbytes, locked:    0 /   0

     iteration # 42     ecut=    40.00 Ry     beta= 0.10
     Davidson diagonalization with overlap

---- Real-time Memory Report at c_bands before calling an iterative solver
          3526 MiB given to the printing process from OS
         -1504 MiB allocation reported by mallinfo(arena+hblkhd)
         54841 MiB available memory on the node where the printing process lives
     GPU memory used/free/total (MiB): 2728 / 13552 / 16280
------------------
     ethr =  1.53E-08,  avg # of iterations =  1.9
     Minimization algorithm failed to find Fermi energy: reverting to bisection
     Possible cause: smearing is larger than the electronic band-gap.

     negative rho (up, down):  3.307E+00 1.183E+00

     total cpu time spent up to now is      414.2 secs

     total energy              =   -2871.55367740 Ry
     estimated scf accuracy    <       0.00010508 Ry

     total magnetization       =     0.00 Bohr mag/cell
     absolute magnetization    =     4.91 Bohr mag/cell
[tb_dev] Currently allocated     1.34E+01 Mbytes, locked:    0 /  13
[tb_pin] Currently allocated     0.00E+00 Mbytes, locked:    0 /   0

     iteration # 43     ecut=    40.00 Ry     beta= 0.10
     Davidson diagonalization with overlap

---- Real-time Memory Report at c_bands before calling an iterative solver
          3537 MiB given to the printing process from OS
         -1496 MiB allocation reported by mallinfo(arena+hblkhd)
         54833 MiB available memory on the node where the printing process lives
     GPU memory used/free/total (MiB): 2728 / 13552 / 16280
------------------
     ethr =  1.53E-08,  avg # of iterations =  1.0
     Minimization algorithm failed to find Fermi energy: reverting to bisection
     Possible cause: smearing is larger than the electronic band-gap.

     negative rho (up, down):  3.307E+00 1.183E+00

     total cpu time spent up to now is      422.6 secs

     total energy              =   -2871.55367839 Ry
     estimated scf accuracy    <       0.00011837 Ry

     total magnetization       =     0.00 Bohr mag/cell
     absolute magnetization    =     4.91 Bohr mag/cell
[tb_dev] Currently allocated     1.34E+01 Mbytes, locked:    0 /  13
[tb_pin] Currently allocated     0.00E+00 Mbytes, locked:    0 /   0

     iteration # 44     ecut=    40.00 Ry     beta= 0.10
     Davidson diagonalization with overlap

---- Real-time Memory Report at c_bands before calling an iterative solver
          3545 MiB given to the printing process from OS
         -1487 MiB allocation reported by mallinfo(arena+hblkhd)
         54822 MiB available memory on the node where the printing process lives
     GPU memory used/free/total (MiB): 2728 / 13552 / 16280
------------------
     ethr =  1.53E-08,  avg # of iterations =  1.0
     Minimization algorithm failed to find Fermi energy: reverting to bisection
     Possible cause: smearing is larger than the electronic band-gap.

     negative rho (up, down):  3.307E+00 1.183E+00

     total cpu time spent up to now is      431.1 secs

     total energy              =   -2871.55367919 Ry
     estimated scf accuracy    <       0.00010297 Ry

     total magnetization       =     0.00 Bohr mag/cell
     absolute magnetization    =     4.91 Bohr mag/cell
[tb_dev] Currently allocated     1.34E+01 Mbytes, locked:    0 /  13
[tb_pin] Currently allocated     0.00E+00 Mbytes, locked:    0 /   0

     iteration # 45     ecut=    40.00 Ry     beta= 0.10
     Davidson diagonalization with overlap

---- Real-time Memory Report at c_bands before calling an iterative solver
          3554 MiB given to the printing process from OS
         -1452 MiB allocation reported by mallinfo(arena+hblkhd)
         54804 MiB available memory on the node where the printing process lives
     GPU memory used/free/total (MiB): 2728 / 13552 / 16280
------------------
     ethr =  1.53E-08,  avg # of iterations =  1.0
     Minimization algorithm failed to find Fermi energy: reverting to bisection
     Possible cause: smearing is larger than the electronic band-gap.

     negative rho (up, down):  3.307E+00 1.183E+00

     total cpu time spent up to now is      439.5 secs

     total energy              =   -2871.55367830 Ry
     estimated scf accuracy    <       0.00009300 Ry

     total magnetization       =     0.00 Bohr mag/cell
     absolute magnetization    =     4.92 Bohr mag/cell
[tb_dev] Currently allocated     1.34E+01 Mbytes, locked:    0 /  13
[tb_pin] Currently allocated     0.00E+00 Mbytes, locked:    0 /   0

     iteration # 46     ecut=    40.00 Ry     beta= 0.10
     Davidson diagonalization with overlap

---- Real-time Memory Report at c_bands before calling an iterative solver
          3565 MiB given to the printing process from OS
         -1444 MiB allocation reported by mallinfo(arena+hblkhd)
         54791 MiB available memory on the node where the printing process lives
     GPU memory used/free/total (MiB): 2728 / 13552 / 16280
------------------
     ethr =  1.53E-08,  avg # of iterations =  1.0
     Minimization algorithm failed to find Fermi energy: reverting to bisection
     Possible cause: smearing is larger than the electronic band-gap.

     negative rho (up, down):  3.307E+00 1.183E+00

     total cpu time spent up to now is      447.9 secs

     total energy              =   -2871.55368035 Ry
     estimated scf accuracy    <       0.00009567 Ry

     total magnetization       =     0.00 Bohr mag/cell
     absolute magnetization    =     4.92 Bohr mag/cell
[tb_dev] Currently allocated     1.34E+01 Mbytes, locked:    0 /  13
[tb_pin] Currently allocated     0.00E+00 Mbytes, locked:    0 /   0

     iteration # 47     ecut=    40.00 Ry     beta= 0.10
     Davidson diagonalization with overlap

---- Real-time Memory Report at c_bands before calling an iterative solver
          3574 MiB given to the printing process from OS
         -1436 MiB allocation reported by mallinfo(arena+hblkhd)
         54783 MiB available memory on the node where the printing process lives
     GPU memory used/free/total (MiB): 2728 / 13552 / 16280
------------------
     ethr =  1.53E-08,  avg # of iterations =  1.0
     Minimization algorithm failed to find Fermi energy: reverting to bisection
     Possible cause: smearing is larger than the electronic band-gap.

     negative rho (up, down):  3.307E+00 1.183E+00

     total cpu time spent up to now is      456.4 secs

     total energy              =   -2871.55367841 Ry
     estimated scf accuracy    <       0.00009135 Ry

     total magnetization       =     0.00 Bohr mag/cell
     absolute magnetization    =     4.91 Bohr mag/cell
[tb_dev] Currently allocated     1.34E+01 Mbytes, locked:    0 /  13
[tb_pin] Currently allocated     0.00E+00 Mbytes, locked:    0 /   0

     iteration # 48     ecut=    40.00 Ry     beta= 0.10
     Davidson diagonalization with overlap

---- Real-time Memory Report at c_bands before calling an iterative solver
          3582 MiB given to the printing process from OS
         -1427 MiB allocation reported by mallinfo(arena+hblkhd)
         54775 MiB available memory on the node where the printing process lives
     GPU memory used/free/total (MiB): 2728 / 13552 / 16280
------------------
     ethr =  1.53E-08,  avg # of iterations =  1.0
     Minimization algorithm failed to find Fermi energy: reverting to bisection
     Possible cause: smearing is larger than the electronic band-gap.

     negative rho (up, down):  3.307E+00 1.183E+00

     total cpu time spent up to now is      464.8 secs

     total energy              =   -2871.55368181 Ry
     estimated scf accuracy    <       0.00007345 Ry

     total magnetization       =     0.00 Bohr mag/cell
     absolute magnetization    =     4.92 Bohr mag/cell
[tb_dev] Currently allocated     1.34E+01 Mbytes, locked:    0 /  13
[tb_pin] Currently allocated     0.00E+00 Mbytes, locked:    0 /   0

     iteration # 49     ecut=    40.00 Ry     beta= 0.10
     Davidson diagonalization with overlap

---- Real-time Memory Report at c_bands before calling an iterative solver
          3590 MiB given to the printing process from OS
         -1419 MiB allocation reported by mallinfo(arena+hblkhd)
         54767 MiB available memory on the node where the printing process lives
     GPU memory used/free/total (MiB): 2728 / 13552 / 16280
------------------
     ethr =  1.53E-08,  avg # of iterations =  1.0
     Minimization algorithm failed to find Fermi energy: reverting to bisection
     Possible cause: smearing is larger than the electronic band-gap.

     negative rho (up, down):  3.307E+00 1.183E+00

     total cpu time spent up to now is      473.1 secs

     total energy              =   -2871.55372821 Ry
     estimated scf accuracy    <       0.00008701 Ry

     total magnetization       =     0.00 Bohr mag/cell
     absolute magnetization    =     4.91 Bohr mag/cell
[tb_dev] Currently allocated     1.34E+01 Mbytes, locked:    0 /  13
[tb_pin] Currently allocated     0.00E+00 Mbytes, locked:    0 /   0

     iteration # 50     ecut=    40.00 Ry     beta= 0.10
     Davidson diagonalization with overlap

---- Real-time Memory Report at c_bands before calling an iterative solver
          3599 MiB given to the printing process from OS
         -1410 MiB allocation reported by mallinfo(arena+hblkhd)
         54757 MiB available memory on the node where the printing process lives
     GPU memory used/free/total (MiB): 2728 / 13552 / 16280
------------------
     ethr =  1.53E-08,  avg # of iterations =  2.2
     Minimization algorithm failed to find Fermi energy: reverting to bisection
     Possible cause: smearing is larger than the electronic band-gap.

     negative rho (up, down):  3.307E+00 1.183E+00

     total cpu time spent up to now is      482.4 secs

     total energy              =   -2871.55372388 Ry
     estimated scf accuracy    <       0.00023064 Ry

     total magnetization       =     0.00 Bohr mag/cell
     absolute magnetization    =     4.90 Bohr mag/cell
[tb_dev] Currently allocated     1.34E+01 Mbytes, locked:    0 /  13
[tb_pin] Currently allocated     0.00E+00 Mbytes, locked:    0 /   0

     iteration # 51     ecut=    40.00 Ry     beta= 0.10
     Davidson diagonalization with overlap

---- Real-time Memory Report at c_bands before calling an iterative solver
          3607 MiB given to the printing process from OS
         -1402 MiB allocation reported by mallinfo(arena+hblkhd)
         54750 MiB available memory on the node where the printing process lives
     GPU memory used/free/total (MiB): 2728 / 13552 / 16280
------------------
     ethr =  1.53E-08,  avg # of iterations =  1.0
     Minimization algorithm failed to find Fermi energy: reverting to bisection
     Possible cause: smearing is larger than the electronic band-gap.

     negative rho (up, down):  3.307E+00 1.183E+00

     total cpu time spent up to now is      491.1 secs

     total energy              =   -2871.55372609 Ry
     estimated scf accuracy    <       0.00022426 Ry

     total magnetization       =     0.00 Bohr mag/cell
     absolute magnetization    =     4.90 Bohr mag/cell
[tb_dev] Currently allocated     1.34E+01 Mbytes, locked:    0 /  13
[tb_pin] Currently allocated     0.00E+00 Mbytes, locked:    0 /   0

     iteration # 52     ecut=    40.00 Ry     beta= 0.10
     Davidson diagonalization with overlap

---- Real-time Memory Report at c_bands before calling an iterative solver
          3619 MiB given to the printing process from OS
         -1393 MiB allocation reported by mallinfo(arena+hblkhd)
         54729 MiB available memory on the node where the printing process lives
     GPU memory used/free/total (MiB): 2728 / 13552 / 16280
------------------
     ethr =  1.53E-08,  avg # of iterations =  1.0
     Minimization algorithm failed to find Fermi energy: reverting to bisection
     Possible cause: smearing is larger than the electronic band-gap.

     negative rho (up, down):  3.307E+00 1.183E+00

     total cpu time spent up to now is      499.5 secs

     total energy              =   -2871.55367116 Ry
     estimated scf accuracy    <       0.00024004 Ry

     total magnetization       =     0.00 Bohr mag/cell
     absolute magnetization    =     4.90 Bohr mag/cell
[tb_dev] Currently allocated     1.34E+01 Mbytes, locked:    0 /  13
[tb_pin] Currently allocated     0.00E+00 Mbytes, locked:    0 /   0

     iteration # 53     ecut=    40.00 Ry     beta= 0.10
     Davidson diagonalization with overlap

---- Real-time Memory Report at c_bands before calling an iterative solver
          3627 MiB given to the printing process from OS
         -1385 MiB allocation reported by mallinfo(arena+hblkhd)
         54727 MiB available memory on the node where the printing process lives
     GPU memory used/free/total (MiB): 2728 / 13552 / 16280
------------------
[...]
     Possible cause: smearing is larger than the electronic band-gap.

     negative rho (up, down):  3.308E+00 1.182E+00

     total cpu time spent up to now is      634.6 secs

     total energy              =   -2871.55372691 Ry
     estimated scf accuracy    <       0.00021719 Ry

     total magnetization       =     0.00 Bohr mag/cell
     absolute magnetization    =     4.91 Bohr mag/cell
[tb_dev] Currently allocated     1.34E+01 Mbytes, locked:    0 /  13
[tb_pin] Currently allocated     0.00E+00 Mbytes, locked:    0 /   0

     iteration # 68     ecut=    40.00 Ry     beta= 0.10
     Davidson diagonalization with overlap

---- Real-time Memory Report at c_bands before calling an iterative solver
          3768 MiB given to the printing process from OS
         -1259 MiB allocation reported by mallinfo(arena+hblkhd)
         54594 MiB available memory on the node where the printing process lives
     GPU memory used/free/total (MiB): 2728 / 13552 / 16280
------------------
     ethr =  1.53E-08,  avg # of iterations =  1.0
     Minimization algorithm failed to find Fermi energy: reverting to bisection
     Possible cause: smearing is larger than the electronic band-gap.

     negative rho (up, down):  3.308E+00 1.182E+00

     total cpu time spent up to now is      643.1 secs

     total energy              =   -2871.55371869 Ry
     estimated scf accuracy    <       0.00022887 Ry

     total magnetization       =     0.00 Bohr mag/cell
     absolute magnetization    =     4.91 Bohr mag/cell
[tb_dev] Currently allocated     1.34E+01 Mbytes, locked:    0 /  13
[tb_pin] Currently allocated     0.00E+00 Mbytes, locked:    0 /   0

     iteration # 69     ecut=    40.00 Ry     beta= 0.10
     Davidson diagonalization with overlap

---- Real-time Memory Report at c_bands before calling an iterative solver
          3777 MiB given to the printing process from OS
         -1250 MiB allocation reported by mallinfo(arena+hblkhd)
         54591 MiB available memory on the node where the printing process lives
     GPU memory used/free/total (MiB): 2728 / 13552 / 16280
------------------
     ethr =  1.53E-08,  avg # of iterations =  1.0
     Minimization algorithm failed to find Fermi energy: reverting to bisection
     Possible cause: smearing is larger than the electronic band-gap.

     negative rho (up, down):  3.307E+00 1.183E+00

     total cpu time spent up to now is      651.6 secs

     total energy              =   -2871.55366453 Ry
     estimated scf accuracy    <       0.00024072 Ry

     total magnetization       =     0.00 Bohr mag/cell
     absolute magnetization    =     4.91 Bohr mag/cell
[tb_dev] Currently allocated     1.34E+01 Mbytes, locked:    0 /  13
[tb_pin] Currently allocated     0.00E+00 Mbytes, locked:    0 /   0

     iteration # 70     ecut=    40.00 Ry     beta= 0.10
     Davidson diagonalization with overlap

---- Real-time Memory Report at c_bands before calling an iterative solver
          3785 MiB given to the printing process from OS
         -1242 MiB allocation reported by mallinfo(arena+hblkhd)
         54580 MiB available memory on the node where the printing process lives
     GPU memory used/free/total (MiB): 2728 / 13552 / 16280
------------------
     ethr =  1.53E-08,  avg # of iterations =  3.0
     Minimization algorithm failed to find Fermi energy: reverting to bisection
     Possible cause: smearing is larger than the electronic band-gap.

     negative rho (up, down):  3.306E+00 1.183E+00

     total cpu time spent up to now is      661.7 secs

     total energy              =   -2871.55365779 Ry
     estimated scf accuracy    <       0.00006537 Ry

     total magnetization       =     0.00 Bohr mag/cell
     absolute magnetization    =     4.94 Bohr mag/cell
[tb_dev] Currently allocated     1.34E+01 Mbytes, locked:    0 /  13
[tb_pin] Currently allocated     0.00E+00 Mbytes, locked:    0 /   0

     iteration # 71     ecut=    40.00 Ry     beta= 0.10
     Davidson diagonalization with overlap

---- Real-time Memory Report at c_bands before calling an iterative solver
          3796 MiB given to the printing process from OS
         -1233 MiB allocation reported by mallinfo(arena+hblkhd)
         54569 MiB available memory on the node where the printing process lives
     GPU memory used/free/total (MiB): 2728 / 13552 / 16280
------------------
     ethr =  1.53E-08,  avg # of iterations =  3.0
     Minimization algorithm failed to find Fermi energy: reverting to bisection
     Possible cause: smearing is larger than the electronic band-gap.

     negative rho (up, down):  3.307E+00 1.183E+00

     total cpu time spent up to now is      671.9 secs

     total energy              =   -2871.55366426 Ry
     estimated scf accuracy    <       0.00017220 Ry

     total magnetization       =     0.00 Bohr mag/cell
     absolute magnetization    =     4.92 Bohr mag/cell
[tb_dev] Currently allocated     1.34E+01 Mbytes, locked:    0 /  13
[tb_pin] Currently allocated     0.00E+00 Mbytes, locked:    0 /   0

     iteration # 72     ecut=    40.00 Ry     beta= 0.10
     Davidson diagonalization with overlap

---- Real-time Memory Report at c_bands before calling an iterative solver
          3804 MiB given to the printing process from OS
         -1225 MiB allocation reported by mallinfo(arena+hblkhd)
         54566 MiB available memory on the node where the printing process lives
     GPU memory used/free/total (MiB): 2728 / 13552 / 16280
------------------
     ethr =  1.53E-08,  avg # of iterations =  1.0
     Minimization algorithm failed to find Fermi energy: reverting to bisection
     Possible cause: smearing is larger than the electronic band-gap.

     negative rho (up, down):  3.307E+00 1.183E+00

     total cpu time spent up to now is      680.3 secs

     total energy              =   -2871.55366680 Ry
     estimated scf accuracy    <       0.00014876 Ry

     total magnetization       =     0.00 Bohr mag/cell
     absolute magnetization    =     4.91 Bohr mag/cell
[tb_dev] Currently allocated     1.34E+01 Mbytes, locked:    0 /  13
[tb_pin] Currently allocated     0.00E+00 Mbytes, locked:    0 /   0

     iteration # 73     ecut=    40.00 Ry     beta= 0.10
     Davidson diagonalization with overlap

---- Real-time Memory Report at c_bands before calling an iterative solver
          3813 MiB given to the printing process from OS
         -1217 MiB allocation reported by mallinfo(arena+hblkhd)
         54555 MiB available memory on the node where the printing process lives
     GPU memory used/free/total (MiB): 2728 / 13552 / 16280
------------------
     ethr =  1.53E-08,  avg # of iterations =  1.0
     Minimization algorithm failed to find Fermi energy: reverting to bisection
     Possible cause: smearing is larger than the electronic band-gap.

     negative rho (up, down):  3.307E+00 1.183E+00

     total cpu time spent up to now is      688.9 secs

     total energy              =   -2871.55367216 Ry
     estimated scf accuracy    <       0.00014399 Ry

     total magnetization       =     0.00 Bohr mag/cell
     absolute magnetization    =     4.91 Bohr mag/cell
[tb_dev] Currently allocated     1.34E+01 Mbytes, locked:    0 /  13
[tb_pin] Currently allocated     0.00E+00 Mbytes, locked:    0 /   0

     iteration # 74     ecut=    40.00 Ry     beta= 0.10
     Davidson diagonalization with overlap

---- Real-time Memory Report at c_bands before calling an iterative solver
          3824 MiB given to the printing process from OS
         -1208 MiB allocation reported by mallinfo(arena+hblkhd)
         54549 MiB available memory on the node where the printing process lives
     GPU memory used/free/total (MiB): 2728 / 13552 / 16280
------------------
     ethr =  1.53E-08,  avg # of iterations =  1.4
     Minimization algorithm failed to find Fermi energy: reverting to bisection
     Possible cause: smearing is larger than the electronic band-gap.

     negative rho (up, down):  3.307E+00 1.183E+00

     total cpu time spent up to now is      697.6 secs

     total energy              =   -2871.55371826 Ry
     estimated scf accuracy    <       0.00011436 Ry

     total magnetization       =     0.00 Bohr mag/cell
     absolute magnetization    =     4.92 Bohr mag/cell
[tb_dev] Currently allocated     1.34E+01 Mbytes, locked:    0 /  13
[tb_pin] Currently allocated     0.00E+00 Mbytes, locked:    0 /   0

     iteration # 75     ecut=    40.00 Ry     beta= 0.10
     Davidson diagonalization with overlap

---- Real-time Memory Report at c_bands before calling an iterative solver
          3832 MiB given to the printing process from OS
         -1200 MiB allocation reported by mallinfo(arena+hblkhd)
         54538 MiB available memory on the node where the printing process lives
     GPU memory used/free/total (MiB): 2728 / 13552 / 16280
------------------
     ethr =  1.53E-08,  avg # of iterations =  2.0
     Minimization algorithm failed to find Fermi energy: reverting to bisection
     Possible cause: smearing is larger than the electronic band-gap.

     negative rho (up, down):  3.307E+00 1.182E+00

     total cpu time spent up to now is      706.8 secs

     total energy              =   -2871.55372078 Ry
     estimated scf accuracy    <       0.00030264 Ry

     total magnetization       =     0.00 Bohr mag/cell
     absolute magnetization    =     4.90 Bohr mag/cell
[tb_dev] Currently allocated     1.34E+01 Mbytes, locked:    0 /  13
[tb_pin] Currently allocated     0.00E+00 Mbytes, locked:    0 /   0

     iteration # 76     ecut=    40.00 Ry     beta= 0.10
     Davidson diagonalization with overlap

---- Real-time Memory Report at c_bands before calling an iterative solver
          3841 MiB given to the printing process from OS
         -1191 MiB allocation reported by mallinfo(arena+hblkhd)
         54530 MiB available memory on the node where the printing process lives
     GPU memory used/free/total (MiB): 2728 / 13552 / 16280
------------------
     ethr =  1.53E-08,  avg # of iterations =  2.0
     Minimization algorithm failed to find Fermi energy: reverting to bisection
     Possible cause: smearing is larger than the electronic band-gap.

     negative rho (up, down):  3.307E+00 1.183E+00

     total cpu time spent up to now is      716.0 secs

     total energy              =   -2871.55367194 Ry
     estimated scf accuracy    <       0.00037059 Ry

     total magnetization       =     0.00 Bohr mag/cell
     absolute magnetization    =     4.89 Bohr mag/cell
[tb_dev] Currently allocated     1.34E+01 Mbytes, locked:    0 /  13
[tb_pin] Currently allocated     0.00E+00 Mbytes, locked:    0 /   0

     iteration # 77     ecut=    40.00 Ry     beta= 0.10
     Davidson diagonalization with overlap

---- Real-time Memory Report at c_bands before calling an iterative solver
          3849 MiB given to the printing process from OS
         -1183 MiB allocation reported by mallinfo(arena+hblkhd)
         54523 MiB available memory on the node where the printing process lives
     GPU memory used/free/total (MiB): 2728 / 13552 / 16280
------------------
     ethr =  1.53E-08,  avg # of iterations =  2.0
     Minimization algorithm failed to find Fermi energy: reverting to bisection
     Possible cause: smearing is larger than the electronic band-gap.

     negative rho (up, down):  3.307E+00 1.183E+00

     total cpu time spent up to now is      725.2 secs

     total energy              =   -2871.55367715 Ry
     estimated scf accuracy    <       0.00020751 Ry

     total magnetization       =     0.00 Bohr mag/cell
     absolute magnetization    =     4.90 Bohr mag/cell
[tb_dev] Currently allocated     1.34E+01 Mbytes, locked:    0 /  13
[tb_pin] Currently allocated     0.00E+00 Mbytes, locked:    0 /   0

     iteration # 78     ecut=    40.00 Ry     beta= 0.10
     Davidson diagonalization with overlap

---- Real-time Memory Report at c_bands before calling an iterative solver
          3858 MiB given to the printing process from OS
         -1174 MiB allocation reported by mallinfo(arena+hblkhd)
         54500 MiB available memory on the node where the printing process lives
     GPU memory used/free/total (MiB): 2728 / 13552 / 16280
------------------
     ethr =  1.53E-08,  avg # of iterations =  1.9
     Minimization algorithm failed to find Fermi energy: reverting to bisection
     Possible cause: smearing is larger than the electronic band-gap.

     negative rho (up, down):  3.307E+00 1.183E+00

     total cpu time spent up to now is      734.5 secs

     total energy              =   -2871.55367482 Ry
     estimated scf accuracy    <       0.00012337 Ry

     total magnetization       =     0.00 Bohr mag/cell
     absolute magnetization    =     4.91 Bohr mag/cell
[tb_dev] Currently allocated     1.34E+01 Mbytes, locked:    0 /  13
[tb_pin] Currently allocated     0.00E+00 Mbytes, locked:    0 /   0

     iteration # 79     ecut=    40.00 Ry     beta= 0.10
     Davidson diagonalization with overlap

---- Real-time Memory Report at c_bands before calling an iterative solver
          3866 MiB given to the printing process from OS
         -1166 MiB allocation reported by mallinfo(arena+hblkhd)
         54484 MiB available memory on the node where the printing process lives
     GPU memory used/free/total (MiB): 2728 / 13552 / 16280
------------------
     ethr =  1.53E-08,  avg # of iterations =  1.0
     Minimization algorithm failed to find Fermi energy: reverting to bisection
     Possible cause: smearing is larger than the electronic band-gap.

     negative rho (up, down):  3.308E+00 1.183E+00

     total cpu time spent up to now is      742.9 secs

     total energy              =   -2871.55369839 Ry
     estimated scf accuracy    <       0.00011918 Ry

     total magnetization       =     0.00 Bohr mag/cell
     absolute magnetization    =     4.91 Bohr mag/cell
[tb_dev] Currently allocated     1.34E+01 Mbytes, locked:    0 /  13
[tb_pin] Currently allocated     0.00E+00 Mbytes, locked:    0 /   0

     iteration # 80     ecut=    40.00 Ry     beta= 0.10
     Davidson diagonalization with overlap

---- Real-time Memory Report at c_bands before calling an iterative solver
          3874 MiB given to the printing process from OS
         -1158 MiB allocation reported by mallinfo(arena+hblkhd)
         54482 MiB available memory on the node where the printing process lives
     GPU memory used/free/total (MiB): 2728 / 13552 / 16280
------------------
     ethr =  1.53E-08,  avg # of iterations =  3.7
     Minimization algorithm failed to find Fermi energy: reverting to bisection
     Possible cause: smearing is larger than the electronic band-gap.

     negative rho (up, down):  3.308E+00 1.182E+00

     total cpu time spent up to now is      753.4 secs

     total energy              =   -2871.55370289 Ry
     estimated scf accuracy    <       0.00029083 Ry

     total magnetization       =     0.00 Bohr mag/cell
     absolute magnetization    =     4.91 Bohr mag/cell

     End of self-consistent calculation

     convergence NOT achieved after  80 iterations: stopping

     Writing config to output data dir ./out/aiida.save/
 
     init_run     :     35.09s CPU      6.02s WALL (       1 calls)
     electrons    :   2077.71s CPU    746.27s WALL (       1 calls)

     Called by init_run:
     wfcinit      :      0.80s CPU      0.80s WALL (       1 calls)
                                        0.80s GPU  (       1 calls)
     potinit      :     19.84s CPU      1.99s WALL (       1 calls)
     hinit0       :      8.95s CPU      2.41s WALL (       1 calls)

     Called by electrons:
     c_bands      :    536.72s CPU    504.21s WALL (      80 calls)
     sum_band     :    103.29s CPU    111.34s WALL (      80 calls)
     v_of_rho     :     37.66s CPU      3.44s WALL (      81 calls)
     v_h          :      5.67s CPU      0.50s WALL (      81 calls)
     v_xc         :     31.98s CPU      2.94s WALL (      81 calls)
     newd         :     86.78s CPU      8.26s WALL (      81 calls)
                                        8.25s GPU  (      81 calls)
     PAW_pot      :   1268.11s CPU    114.61s WALL (      81 calls)
     mix_rho      :     49.29s CPU      4.99s WALL (      80 calls)

     Called by c_bands:
     init_us_2    :     32.51s CPU     34.64s WALL (   14400 calls)
     init_us_2:gp :     32.22s CPU     34.38s WALL (   14400 calls)
     cegterg      :    420.69s CPU    399.60s WALL (    7200 calls)

     Called by sum_band:
     sum_band:wei :      1.06s CPU      1.06s WALL (      80 calls)
                                        1.06s GPU  (      80 calls)
     sum_band:loo :     89.71s CPU     97.48s WALL (      80 calls)
                                       97.48s GPU  (      80 calls)
     sum_band:buf :     30.75s CPU     31.75s WALL (    7200 calls)
                                       31.70s GPU  (    7200 calls)
     sum_band:ini :     13.54s CPU     16.79s WALL (    7200 calls)
                                       16.75s GPU  (    7200 calls)
     sum_band:cal :      0.24s CPU      3.88s WALL (    7200 calls)
                                        3.72s GPU  (    7200 calls)
     sum_band:bec :      2.69s CPU      2.91s WALL (    7200 calls)
                                        2.87s GPU  (    7200 calls)
     addusdens    :      9.25s CPU      9.50s WALL (      80 calls)
                                        9.50s GPU  (      80 calls)
     addusd:skk   :      0.04s CPU      0.05s WALL (     240 calls)
                                        0.05s GPU  (     240 calls)

     Called by *egterg:
     cdiaghg      :    134.57s CPU    140.13s WALL (   21875 calls)
                                      139.98s GPU  (   21875 calls)
     cegterg:over :      9.59s CPU      9.01s WALL (   14765 calls)
     cegterg:upda :     13.32s CPU     12.47s WALL (   14765 calls)
     cegterg:last :      7.41s CPU      6.88s WALL (   10599 calls)
     h_psi        :    226.11s CPU    204.10s WALL (   21965 calls)
                                      203.60s GPU  (   21965 calls)
     s_psi        :      5.52s CPU     15.03s WALL (   21965 calls)
                                       14.02s GPU  (   21965 calls)
     g_psi        :      0.12s CPU      1.05s WALL (   14765 calls)
                                        0.96s GPU  (   14765 calls)

     Called by h_psi:
     h_psi:calbec :      0.91s CPU      9.60s WALL (   21965 calls)
                                        9.46s GPU  (   21965 calls)
     vloc_psi     :    195.73s CPU    176.60s WALL (   21965 calls)
                                      176.47s GPU  (   21965 calls)
     add_vuspsi   :      7.11s CPU     15.24s WALL (   21965 calls)
                                       15.10s GPU  (   21965 calls)

     General routines
     calbec       :      0.86s CPU      0.82s WALL (   29165 calls)
     fft          :      2.58s CPU      0.55s WALL (    2023 calls)
                                        0.45s GPU  (    1861 calls)
     ffts         :      0.13s CPU      0.04s WALL (     322 calls)
                                        0.01s GPU  (     160 calls)
     fftw         :      5.17s CPU    145.90s WALL (  231740 calls)
                                      144.47s GPU  (  231740 calls)
     interpolate  :      5.01s CPU      0.44s WALL (     162 calls)
     davcio       :      0.37s CPU      1.86s WALL (     198 calls)
 
     Parallel routines

     PAW routines
     PAW_pot      :   1268.11s CPU    114.61s WALL (      81 calls)
     PAW_symme    :      0.53s CPU      0.08s WALL (     160 calls)
 
     PWSCF        :  35m15.85s CPU  12m34.83s WALL

 
   This run was terminated on:  22: 5:38  23Oct2023            

=------------------------------------------------------------------------------=
   JOB DONE.
=------------------------------------------------------------------------------=
