
     Program PWSCF v.7.2 starts on 29Nov2023 at 20:34:38 
        Git branch: develop
        Last git commit: 9055681be6fc8200e6fffe76ed5fda34c2696339
        Last git commit date: Wed Nov 8 16:29:39 2023 +0000
        Last git commit subject: Merge branch 'calbec_fix' into 'develop'

     This program is part of the open-source Quantum ESPRESSO suite
     for quantum simulation of materials; please cite
         "P. Giannozzi et al., J. Phys.:Condens. Matter 21 395502 (2009);
         "P. Giannozzi et al., J. Phys.:Condens. Matter 29 465901 (2017);
         "P. Giannozzi et al., J. Chem. Phys. 152 154105 (2020);
          URL http://www.quantum-espresso.org", 
     in publications or presentations arising from this work. More details at
     http://www.quantum-espresso.org/quote

     Parallel version (MPI), running on    56 processors

     MPI processes distributed on     1 nodes
     492924 MiB available memory on the printing compute node when the environment starts

     Reading input from aiida.in

     Current dimensions of program PWSCF are:
     Max number of different atomic species (ntypx) = 10
     Max number of k-points (npk) =  40000
     Max angular momentum in pseudopotentials (lmaxx) =  4
     Message from routine setup:
     using ibrav=0 with symmetry is DISCOURAGED, use correct ibrav instead

     K-points division:     npool     =       7
     R & G space division:  proc/nbgrp/npool/nimage =       8
     Subspace diagonalization in iterative solution of the eigenvalue problem:
     a serial algorithm will be used


     Parallelization info
     --------------------
     sticks:   dense  smooth     PW     G-vecs:    dense   smooth      PW
     Min        1340     446    120                91821    17656    2521
     Max        1341     447    121                91825    17661    2524
     Sum       10723    3571    967               734581   141263   20179

     Using Slab Decomposition



     bravais-lattice index     =            0
     lattice parameter (alat)  =      14.1345  a.u.
     unit-cell volume          =    1996.7453 (a.u.)^3
     number of atoms/cell      =            3
     number of atomic types    =            3
     number of electrons       =        38.00
     number of Kohn-Sham states=           27
     kinetic-energy cutoff     =      65.0000  Ry
     charge density cutoff     =     780.0000  Ry
     scf convergence threshold =      6.0E-10
     mixing beta               =       0.4000
     number of iterations used =            8  plain     mixing
     Exchange-correlation= SLA  PW   PSX  PSC
                           (   1   4  10   8   0   0   0)

     celldm(1)=  14.134460  celldm(2)=   0.000000  celldm(3)=   0.000000
     celldm(4)=   0.000000  celldm(5)=   0.000000  celldm(6)=   0.000000

     crystal axes: (cart. coord. in units of alat)
               a(1) = (   0.000000   0.707107   0.707107 )  
               a(2) = (   0.707107   0.000000   0.707107 )  
               a(3) = (   0.707107   0.707107   0.000000 )  

     reciprocal axes: (cart. coord. in units 2 pi/alat)
               b(1) = ( -0.707107  0.707107  0.707107 )  
               b(2) = (  0.707107 -0.707107  0.707107 )  
               b(3) = (  0.707107  0.707107 -0.707107 )  


     PseudoPot. # 1 for As read from file:
     ./pseudo/As.pbesol-n-rrkjus_psl.0.2.UPF
     MD5 check sum: 1aa86e6aa4f77befd3aa87cac6788838
     Pseudo is Ultrasoft + core correction, Zval =  5.0
     Generated using "atomic" code by A. Dal Corso  v.6.0 svn rev. 13079
     Using radial grid of 1209 points,  4 beta functions with: 
                l(1) =   0
                l(2) =   0
                l(3) =   1
                l(4) =   1
     Q(r) pseudized with 0 coefficients 


     PseudoPot. # 2 for Mn read from file:
     ./pseudo/mn_pbesol_v1.5.uspp.F.UPF
     MD5 check sum: 0716d5f563e6e95a34f9080f4c78c109
     Pseudo is Ultrasoft + core correction, Zval = 15.0
     Generated by new atomic code, or converted to UPF format
     Using radial grid of  859 points,  6 beta functions with: 
                l(1) =   0
                l(2) =   0
                l(3) =   1
                l(4) =   1
                l(5) =   2
                l(6) =   2
     Q(r) pseudized with  8 coefficients,  rinner =    0.950   0.950   0.950
                                                       0.950   0.950

     PseudoPot. # 3 for Ni read from file:
     ./pseudo/ni_pbesol_v1.4.uspp.F.UPF
     MD5 check sum: de937c0c8ae4b350e69c02b76d8a83cb
     Pseudo is Ultrasoft + core correction, Zval = 18.0
     Generated by new atomic code, or converted to UPF format
     Using radial grid of  865 points,  6 beta functions with: 
                l(1) =   0
                l(2) =   0
                l(3) =   1
                l(4) =   1
                l(5) =   2
                l(6) =   2
     Q(r) pseudized with 10 coefficients,  rinner =    0.980   0.980   0.980
                                                       0.980   0.980

     atomic species   valence    mass     pseudopotential
     As                5.00    74.92160     As( 1.00)
     Mn               15.00    54.93805     Mn( 1.00)
     Ni               18.00    58.69340     Ni( 1.00)

     Starting magnetic structure 
     atomic species   magnetization
     As              0.100
     Mn              0.333
     Ni              0.278

     24 Sym. Ops. (no inversion) found


                                    s                        frac. trans.

      isym =  1     identity                                     

 cryst.   s( 1) = (     1          0          0      )
                  (     0          1          0      )
                  (     0          0          1      )

 cart.    s( 1) = (  1.0000000 -0.0000000  0.0000000 )
                  ( -0.0000000  1.0000000  0.0000000 )
                  ( -0.0000000  0.0000000  1.0000000 )


      isym =  2     180 deg rotation - cart. axis [0,0,1]        

 cryst.   s( 2) = (     0          1         -1      )
                  (     1          0         -1      )
                  (     0          0         -1      )

 cart.    s( 2) = ( -1.0000000  0.0000000  0.0000000 )
                  (  0.0000000 -1.0000000  0.0000000 )
                  (  0.0000000 -0.0000000  1.0000000 )


      isym =  3     180 deg rotation - cart. axis [0,1,0]        

 cryst.   s( 3) = (     0         -1          1      )
                  (     0         -1          0      )
                  (     1         -1          0      )

 cart.    s( 3) = ( -1.0000000 -0.0000000 -0.0000000 )
                  (  0.0000000  1.0000000 -0.0000000 )
                  (  0.0000000  0.0000000 -1.0000000 )


      isym =  4     180 deg rotation - cart. axis [1,0,0]        

 cryst.   s( 4) = (    -1          0          0      )
                  (    -1          0          1      )
                  (    -1          1          0      )

 cart.    s( 4) = (  1.0000000  0.0000000 -0.0000000 )
                  ( -0.0000000 -1.0000000 -0.0000000 )
                  ( -0.0000000 -0.0000000 -1.0000000 )


      isym =  5     120 deg rotation - cart. axis [-1,-1,-1]     

 cryst.   s( 5) = (     0          0          1      )
                  (     1          0          0      )
                  (     0          1          0      )

 cart.    s( 5) = (  0.0000000  1.0000000 -0.0000000 )
                  (  0.0000000 -0.0000000  1.0000000 )
                  (  1.0000000 -0.0000000  0.0000000 )


      isym =  6     120 deg rotation - cart. axis [-1,1,1]       

 cryst.   s( 6) = (     1         -1          0      )
                  (     0         -1          1      )
                  (     0         -1          0      )

 cart.    s( 6) = ( -0.0000000 -1.0000000 -0.0000000 )
                  ( -0.0000000  0.0000000  1.0000000 )
                  ( -1.0000000  0.0000000  0.0000000 )


      isym =  7     120 deg rotation - cart. axis [1,1,-1]       

 cryst.   s( 7) = (    -1          1          0      )
                  (    -1          0          0      )
                  (    -1          0          1      )

 cart.    s( 7) = ( -0.0000000  1.0000000  0.0000000 )
                  ( -0.0000000 -0.0000000 -1.0000000 )
                  ( -1.0000000 -0.0000000 -0.0000000 )


      isym =  8     120 deg rotation - cart. axis [1,-1,1]       

 cryst.   s( 8) = (     0          0         -1      )
                  (     0          1         -1      )
                  (     1          0         -1      )

 cart.    s( 8) = (  0.0000000 -1.0000000  0.0000000 )
                  (  0.0000000  0.0000000 -1.0000000 )
                  (  1.0000000  0.0000000 -0.0000000 )


      isym =  9     120 deg rotation - cart. axis [1,1,1]        

 cryst.   s( 9) = (     0          1          0      )
                  (     0          0          1      )
                  (     1          0          0      )

 cart.    s( 9) = ( -0.0000000  0.0000000  1.0000000 )
                  (  1.0000000  0.0000000 -0.0000000 )
                  (  0.0000000  1.0000000 -0.0000000 )


      isym = 10     120 deg rotation - cart. axis [-1,1,-1]      

 cryst.   s(10) = (    -1          0          1      )
                  (    -1          1          0      )
                  (    -1          0          0      )

 cart.    s(10) = (  0.0000000 -0.0000000  1.0000000 )
                  ( -1.0000000 -0.0000000 -0.0000000 )
                  ( -0.0000000 -1.0000000 -0.0000000 )


      isym = 11     120 deg rotation - cart. axis [1,-1,-1]      

 cryst.   s(11) = (     1          0         -1      )
                  (     0          0         -1      )
                  (     0          1         -1      )

 cart.    s(11) = (  0.0000000  0.0000000 -1.0000000 )
                  ( -1.0000000  0.0000000  0.0000000 )
                  ( -0.0000000  1.0000000  0.0000000 )


      isym = 12     120 deg rotation - cart. axis [-1,-1,1]      

 cryst.   s(12) = (     0         -1          0      )
                  (     1         -1          0      )
                  (     0         -1          1      )

 cart.    s(12) = ( -0.0000000 -0.0000000 -1.0000000 )
                  (  1.0000000 -0.0000000  0.0000000 )
                  (  0.0000000 -1.0000000  0.0000000 )


      isym = 13     inv. 180 deg rotation - cart. axis [1,1,0]   

 cryst.   s(13) = (     1          0         -1      )
                  (     0          1         -1      )
                  (     0          0         -1      )

 cart.    s(13) = (  0.0000000 -1.0000000  0.0000000 )
                  ( -1.0000000  0.0000000  0.0000000 )
                  ( -0.0000000  0.0000000  1.0000000 )


      isym = 14     inv. 180 deg rotation - cart. axis [1,-1,0]  

 cryst.   s(14) = (     0          1          0      )
                  (     1          0          0      )
                  (     0          0          1      )

 cart.    s(14) = ( -0.0000000  1.0000000  0.0000000 )
                  (  1.0000000 -0.0000000  0.0000000 )
                  (  0.0000000 -0.0000000  1.0000000 )


      isym = 15     inv.  90 deg rotation - cart. axis [0,0,-1]  

 cryst.   s(15) = (     0         -1          0      )
                  (     0         -1          1      )
                  (     1         -1          0      )

 cart.    s(15) = ( -0.0000000 -1.0000000 -0.0000000 )
                  (  1.0000000  0.0000000 -0.0000000 )
                  (  0.0000000  0.0000000 -1.0000000 )


      isym = 16     inv.  90 deg rotation - cart. axis [0,0,1]   

 cryst.   s(16) = (    -1          0          1      )
                  (    -1          0          0      )
                  (    -1          1          0      )

 cart.    s(16) = (  0.0000000  1.0000000 -0.0000000 )
                  ( -1.0000000 -0.0000000 -0.0000000 )
                  ( -0.0000000 -0.0000000 -1.0000000 )


      isym = 17     inv. 180 deg rotation - cart. axis [1,0,1]   

 cryst.   s(17) = (     1         -1          0      )
                  (     0         -1          0      )
                  (     0         -1          1      )

 cart.    s(17) = ( -0.0000000 -0.0000000 -1.0000000 )
                  ( -0.0000000  1.0000000  0.0000000 )
                  ( -1.0000000  0.0000000  0.0000000 )


      isym = 18     inv. 180 deg rotation - cart. axis [-1,0,1]  

 cryst.   s(18) = (     0          0          1      )
                  (     0          1          0      )
                  (     1          0          0      )

 cart.    s(18) = (  0.0000000 -0.0000000  1.0000000 )
                  (  0.0000000  1.0000000 -0.0000000 )
                  (  1.0000000  0.0000000 -0.0000000 )


      isym = 19     inv.  90 deg rotation - cart. axis [0,1,0]   

 cryst.   s(19) = (     0          0         -1      )
                  (     1          0         -1      )
                  (     0          1         -1      )

 cart.    s(19) = (  0.0000000  0.0000000 -1.0000000 )
                  (  0.0000000 -1.0000000  0.0000000 )
                  (  1.0000000 -0.0000000  0.0000000 )


      isym = 20     inv.  90 deg rotation - cart. axis [0,-1,0]  

 cryst.   s(20) = (    -1          1          0      )
                  (    -1          0          1      )
                  (    -1          0          0      )

 cart.    s(20) = ( -0.0000000  0.0000000  1.0000000 )
                  ( -0.0000000 -1.0000000 -0.0000000 )
                  ( -1.0000000 -0.0000000 -0.0000000 )


      isym = 21     inv. 180 deg rotation - cart. axis [0,1,1]   

 cryst.   s(21) = (    -1          0          0      )
                  (    -1          1          0      )
                  (    -1          0          1      )

 cart.    s(21) = (  1.0000000 -0.0000000  0.0000000 )
                  ( -0.0000000 -0.0000000 -1.0000000 )
                  ( -0.0000000 -1.0000000 -0.0000000 )


      isym = 22     inv. 180 deg rotation - cart. axis [0,1,-1]  

 cryst.   s(22) = (     1          0          0      )
                  (     0          0          1      )
                  (     0          1          0      )

 cart.    s(22) = (  1.0000000  0.0000000 -0.0000000 )
                  ( -0.0000000  0.0000000  1.0000000 )
                  ( -0.0000000  1.0000000  0.0000000 )


      isym = 23     inv.  90 deg rotation - cart. axis [-1,0,0]  

 cryst.   s(23) = (     0          1         -1      )
                  (     0          0         -1      )
                  (     1          0         -1      )

 cart.    s(23) = ( -1.0000000  0.0000000  0.0000000 )
                  (  0.0000000  0.0000000 -1.0000000 )
                  (  0.0000000  1.0000000 -0.0000000 )


      isym = 24     inv.  90 deg rotation - cart. axis [1,0,0]   

 cryst.   s(24) = (     0         -1          1      )
                  (     1         -1          0      )
                  (     0         -1          0      )

 cart.    s(24) = ( -1.0000000 -0.0000000 -0.0000000 )
                  (  0.0000000 -0.0000000  1.0000000 )
                  (  0.0000000 -1.0000000  0.0000000 )


   Cartesian axes

     site n.     atom                  positions (alat units)
         1        Mn     tau(   1) = (   0.0000000   0.0000000   0.0000000  )
         2        Ni     tau(   2) = (   0.3535534   0.3535534   1.0606602  )
         3        As     tau(   3) = (   0.7071068   0.0000000   0.0000000  )

   Crystallographic axes

     site n.     atom                  positions (cryst. coord.)
         1        Mn     tau(   1) = (  0.0000000  0.0000000  0.0000000  )
         2        Ni     tau(   2) = (  0.7500000  0.7500000 -0.2500000  )
         3        As     tau(   3) = ( -0.5000000  0.5000000  0.5000000  )

     number of k points=    20  Marzari-Vanderbilt smearing, width (Ry)=  0.0200
                       cart. coord. in units 2pi/alat
        k(    1) = (   0.0000000   0.0000000   0.0000000), wk =   0.0029155
        k(    2) = (   0.1010153   0.1010153  -0.1010153), wk =   0.0233236
        k(    3) = (   0.2020305   0.2020305  -0.2020305), wk =   0.0233236
        k(    4) = (   0.3030458   0.3030458  -0.3030458), wk =   0.0233236
        k(    5) = (   0.2020305  -0.0000000   0.0000000), wk =   0.0174927
        k(    6) = (   0.3030458   0.1010153  -0.1010153), wk =   0.0699708
        k(    7) = (   0.4040610   0.2020305  -0.2020305), wk =   0.0699708
        k(    8) = (  -0.2020305  -0.4040610   0.4040610), wk =   0.0699708
        k(    9) = (  -0.1010153  -0.3030458   0.3030458), wk =   0.0699708
        k(   10) = (  -0.0000000  -0.2020305   0.2020305), wk =   0.0349854
        k(   11) = (   0.4040610  -0.0000000   0.0000000), wk =   0.0174927
        k(   12) = (   0.5050763   0.1010153  -0.1010153), wk =   0.0699708
        k(   13) = (  -0.1010153  -0.5050763   0.5050763), wk =   0.0699708
        k(   14) = (   0.0000000  -0.4040610   0.4040610), wk =   0.0349854
        k(   15) = (   0.6060915  -0.0000000   0.0000000), wk =   0.0174927
        k(   16) = (  -0.0000000  -0.6060915   0.6060915), wk =   0.0349854
        k(   17) = (   0.4040610   0.2020305   0.0000000), wk =   0.0699708
        k(   18) = (  -0.2020305  -0.4040610   0.6060915), wk =   0.1399417
        k(   19) = (  -0.1010153  -0.5050763   0.7071068), wk =   0.0699708
        k(   20) = (   0.0000000  -0.4040610   0.6060915), wk =   0.0699708

                       cryst. coord.
        k(    1) = (   0.0000000   0.0000000   0.0000000), wk =   0.0029155
        k(    2) = (  -0.0000000  -0.0000000   0.1428571), wk =   0.0233236
        k(    3) = (  -0.0000000  -0.0000000   0.2857143), wk =   0.0233236
        k(    4) = (  -0.0000000  -0.0000000   0.4285714), wk =   0.0233236
        k(    5) = (   0.0000000   0.1428571   0.1428571), wk =   0.0174927
        k(    6) = (  -0.0000000   0.1428571   0.2857143), wk =   0.0699708
        k(    7) = (  -0.0000000   0.1428571   0.4285714), wk =   0.0699708
        k(    8) = (   0.0000000   0.1428571  -0.4285714), wk =   0.0699708
        k(    9) = (   0.0000000   0.1428571  -0.2857143), wk =   0.0699708
        k(   10) = (  -0.0000000   0.1428571  -0.1428571), wk =   0.0349854
        k(   11) = (   0.0000000   0.2857143   0.2857143), wk =   0.0174927
        k(   12) = (  -0.0000000   0.2857143   0.4285714), wk =   0.0699708
        k(   13) = (  -0.0000000   0.2857143  -0.4285714), wk =   0.0699708
        k(   14) = (   0.0000000   0.2857143  -0.2857143), wk =   0.0349854
        k(   15) = (   0.0000000   0.4285714   0.4285714), wk =   0.0174927
        k(   16) = (   0.0000000   0.4285714  -0.4285714), wk =   0.0349854
        k(   17) = (   0.1428571   0.2857143   0.4285714), wk =   0.0699708
        k(   18) = (   0.1428571   0.2857143  -0.4285714), wk =   0.1399417
        k(   19) = (   0.1428571   0.4285714  -0.4285714), wk =   0.0699708
        k(   20) = (   0.1428571   0.4285714  -0.2857143), wk =   0.0699708

     Dense  grid:   734581 G-vectors     FFT dimensions: ( 125, 125, 125)

     Smooth grid:   141263 G-vectors     FFT dimensions: (  75,  75,  75)

     Dynamical RAM for                 wfc:       0.91 MB

     Dynamical RAM for     wfc (w. buffer):       6.37 MB

     Dynamical RAM for           str. fact:       4.20 MB

     Dynamical RAM for           local pot:       0.00 MB

     Dynamical RAM for          nlocal pot:       1.48 MB

     Dynamical RAM for                qrad:       6.72 MB

     Dynamical RAM for          rho,v,vnew:      19.85 MB

     Dynamical RAM for               rhoin:       6.62 MB

     Dynamical RAM for            rho*nmix:      44.83 MB

     Dynamical RAM for           G-vectors:       5.39 MB

     Dynamical RAM for          h,s,v(r/c):       0.13 MB

     Dynamical RAM for          <psi|beta>:       0.02 MB

     Dynamical RAM for                 psi:       1.82 MB

     Dynamical RAM for                hpsi:       1.82 MB

     Dynamical RAM for                spsi:       1.82 MB

     Dynamical RAM for      wfcinit/wfcrot:       2.04 MB

     Dynamical RAM for           addusdens:      40.03 MB

     Dynamical RAM for          addusforce:      38.84 MB

     Dynamical RAM for         addusstress:      41.73 MB

     Estimated static dynamical RAM per process >      67.68 MB

     Estimated max dynamical RAM per process >     154.24 MB

     Estimated total dynamical RAM >       6.33 GB

     Check: negative core charge=   -0.000003
     Generating pointlists ...
     new r_m :   0.2526 (alat units)  3.5704 (a.u.) for type    1
     new r_m :   0.2526 (alat units)  3.5704 (a.u.) for type    2
     new r_m :   0.2526 (alat units)  3.5704 (a.u.) for type    3

     The initial density is read from file :
     ./out/aiida.save/charge-density


     negative rho (up, down):  2.175E-07 0.000E+00
     Starting wfcs are   30 randomized atomic wfcs

     total cpu time spent up to now is        5.4 secs

     per-process dynamical memory:    86.2 Mb

     Self-consistent Calculation

     iteration #  1     ecut=    65.00 Ry     beta= 0.40
     Davidson diagonalization with overlap

---- Real-time Memory Report at c_bands before calling an iterative solver
           145 MiB given to the printing process from OS
            84 MiB allocation reported by mallinfo(arena+hblkhd)
        486933 MiB available memory on the node where the printing process lives
------------------
     ethr =  1.00E-05,  avg # of iterations = 11.3

     Threshold (ethr) on eigenvalues was too large:
     Diagonalizing with lowered threshold

     Davidson diagonalization with overlap

---- Real-time Memory Report at c_bands before calling an iterative solver
           158 MiB given to the printing process from OS
            95 MiB allocation reported by mallinfo(arena+hblkhd)
        486029 MiB available memory on the node where the printing process lives
------------------
     ethr =  3.40E-07,  avg # of iterations =  2.3

     negative rho (up, down):  2.250E-07 0.000E+00

     total cpu time spent up to now is       10.9 secs

     total energy              =    -571.13645754 Ry
     estimated scf accuracy    <       0.00016427 Ry

     total magnetization       =    -4.96 Bohr mag/cell
     absolute magnetization    =     5.84 Bohr mag/cell

     iteration #  2     ecut=    65.00 Ry     beta= 0.40
     Davidson diagonalization with overlap

---- Real-time Memory Report at c_bands before calling an iterative solver
           171 MiB given to the printing process from OS
           104 MiB allocation reported by mallinfo(arena+hblkhd)
        485486 MiB available memory on the node where the printing process lives
------------------
     ethr =  4.32E-07,  avg # of iterations =  3.0

     negative rho (up, down):  1.074E-07 0.000E+00

     total cpu time spent up to now is       13.2 secs

     total energy              =    -571.13501455 Ry
     estimated scf accuracy    <       0.21105949 Ry

     total magnetization       =    -4.60 Bohr mag/cell
     absolute magnetization    =     5.50 Bohr mag/cell

     iteration #  3     ecut=    65.00 Ry     beta= 0.40
     Davidson diagonalization with overlap

---- Real-time Memory Report at c_bands before calling an iterative solver
           174 MiB given to the printing process from OS
           105 MiB allocation reported by mallinfo(arena+hblkhd)
        485436 MiB available memory on the node where the printing process lives
------------------
     ethr =  4.32E-07,  avg # of iterations =  2.0

     negative rho (up, down):  1.658E-07 0.000E+00

     total cpu time spent up to now is       15.5 secs

     total energy              =    -571.13647893 Ry
     estimated scf accuracy    <       0.00904565 Ry

     total magnetization       =    -5.05 Bohr mag/cell
     absolute magnetization    =     5.88 Bohr mag/cell

     iteration #  4     ecut=    65.00 Ry     beta= 0.40
     Davidson diagonalization with overlap

---- Real-time Memory Report at c_bands before calling an iterative solver
           175 MiB given to the printing process from OS
           106 MiB allocation reported by mallinfo(arena+hblkhd)
        485410 MiB available memory on the node where the printing process lives
------------------
     ethr =  4.32E-07,  avg # of iterations =  2.0

     negative rho (up, down):  1.929E-07 0.000E+00

     total cpu time spent up to now is       17.7 secs

     total energy              =    -571.13648015 Ry
     estimated scf accuracy    <       0.00093254 Ry

     total magnetization       =    -5.07 Bohr mag/cell
     absolute magnetization    =     5.85 Bohr mag/cell

     iteration #  5     ecut=    65.00 Ry     beta= 0.40
     Davidson diagonalization with overlap

---- Real-time Memory Report at c_bands before calling an iterative solver
           177 MiB given to the printing process from OS
           107 MiB allocation reported by mallinfo(arena+hblkhd)
        485386 MiB available memory on the node where the printing process lives
------------------
     ethr =  4.32E-07,  avg # of iterations =  1.0

     negative rho (up, down):  2.188E-07 0.000E+00

     total cpu time spent up to now is       19.7 secs

     total energy              =    -571.13652071 Ry
     estimated scf accuracy    <       0.00051423 Ry

     total magnetization       =    -4.95 Bohr mag/cell
     absolute magnetization    =     5.84 Bohr mag/cell

     iteration #  6     ecut=    65.00 Ry     beta= 0.40
     Davidson diagonalization with overlap

---- Real-time Memory Report at c_bands before calling an iterative solver
           177 MiB given to the printing process from OS
           108 MiB allocation reported by mallinfo(arena+hblkhd)
        485366 MiB available memory on the node where the printing process lives
------------------
     ethr =  4.32E-07,  avg # of iterations =  1.0

     negative rho (up, down):  2.344E-07 0.000E+00

     total cpu time spent up to now is       21.7 secs

     total energy              =    -571.13652077 Ry
     estimated scf accuracy    <       0.00030837 Ry

     total magnetization       =    -4.94 Bohr mag/cell
     absolute magnetization    =     5.84 Bohr mag/cell

     iteration #  7     ecut=    65.00 Ry     beta= 0.40
     Davidson diagonalization with overlap

---- Real-time Memory Report at c_bands before calling an iterative solver
           179 MiB given to the printing process from OS
           110 MiB allocation reported by mallinfo(arena+hblkhd)
        485348 MiB available memory on the node where the printing process lives
------------------
     ethr =  4.32E-07,  avg # of iterations =  1.0

     negative rho (up, down):  2.399E-07 0.000E+00

     total cpu time spent up to now is       23.8 secs

     total energy              =    -571.13652243 Ry
     estimated scf accuracy    <       0.00003472 Ry

     total magnetization       =    -4.93 Bohr mag/cell
     absolute magnetization    =     5.83 Bohr mag/cell

     iteration #  8     ecut=    65.00 Ry     beta= 0.40
     Davidson diagonalization with overlap

---- Real-time Memory Report at c_bands before calling an iterative solver
           180 MiB given to the printing process from OS
           111 MiB allocation reported by mallinfo(arena+hblkhd)
        485327 MiB available memory on the node where the printing process lives
------------------
     ethr =  9.14E-08,  avg # of iterations =  1.0

     negative rho (up, down):  2.358E-07 0.000E+00

     total cpu time spent up to now is       25.9 secs

     total energy              =    -571.13652231 Ry
     estimated scf accuracy    <       0.00001260 Ry

     total magnetization       =    -4.93 Bohr mag/cell
     absolute magnetization    =     5.83 Bohr mag/cell

     iteration #  9     ecut=    65.00 Ry     beta= 0.40
     Davidson diagonalization with overlap

---- Real-time Memory Report at c_bands before calling an iterative solver
           182 MiB given to the printing process from OS
           112 MiB allocation reported by mallinfo(arena+hblkhd)
        485305 MiB available memory on the node where the printing process lives
------------------
     ethr =  3.31E-08,  avg # of iterations =  1.0

     negative rho (up, down):  2.395E-07 0.000E+00

     total cpu time spent up to now is       27.9 secs

     total energy              =    -571.13652294 Ry
     estimated scf accuracy    <       0.00000205 Ry

     total magnetization       =    -4.93 Bohr mag/cell
     absolute magnetization    =     5.83 Bohr mag/cell

     iteration # 10     ecut=    65.00 Ry     beta= 0.40
     Davidson diagonalization with overlap

---- Real-time Memory Report at c_bands before calling an iterative solver
           183 MiB given to the printing process from OS
           113 MiB allocation reported by mallinfo(arena+hblkhd)
        485295 MiB available memory on the node where the printing process lives
------------------
     ethr =  5.40E-09,  avg # of iterations =  1.3

     negative rho (up, down):  2.419E-07 0.000E+00

     total cpu time spent up to now is       30.0 secs

     total energy              =    -571.13652299 Ry
     estimated scf accuracy    <       0.00000023 Ry

     total magnetization       =    -4.93 Bohr mag/cell
     absolute magnetization    =     5.83 Bohr mag/cell

     iteration # 11     ecut=    65.00 Ry     beta= 0.40
     Davidson diagonalization with overlap

---- Real-time Memory Report at c_bands before calling an iterative solver
           183 MiB given to the printing process from OS
           113 MiB allocation reported by mallinfo(arena+hblkhd)
        485293 MiB available memory on the node where the printing process lives
------------------
     ethr =  6.17E-10,  avg # of iterations =  1.7

     negative rho (up, down):  2.427E-07 0.000E+00

     total cpu time spent up to now is       32.2 secs

     total energy              =    -571.13652301 Ry
     estimated scf accuracy    <          9.6E-09 Ry

     total magnetization       =    -4.93 Bohr mag/cell
     absolute magnetization    =     5.83 Bohr mag/cell

     iteration # 12     ecut=    65.00 Ry     beta= 0.40
     Davidson diagonalization with overlap

---- Real-time Memory Report at c_bands before calling an iterative solver
           183 MiB given to the printing process from OS
           113 MiB allocation reported by mallinfo(arena+hblkhd)
        485289 MiB available memory on the node where the printing process lives
------------------
     ethr =  2.52E-11,  avg # of iterations =  3.5

     negative rho (up, down):  2.430E-07 0.000E+00

     total cpu time spent up to now is       34.5 secs

     total energy              =    -571.13652301 Ry
     estimated scf accuracy    <          4.4E-09 Ry

     total magnetization       =    -4.93 Bohr mag/cell
     absolute magnetization    =     5.83 Bohr mag/cell

     iteration # 13     ecut=    65.00 Ry     beta= 0.40
     Davidson diagonalization with overlap

---- Real-time Memory Report at c_bands before calling an iterative solver
           183 MiB given to the printing process from OS
           113 MiB allocation reported by mallinfo(arena+hblkhd)
        485286 MiB available memory on the node where the printing process lives
------------------
     ethr =  1.15E-11,  avg # of iterations =  2.6

     negative rho (up, down):  2.436E-07 0.000E+00

     total cpu time spent up to now is       36.9 secs

     total energy              =    -571.13652301 Ry
     estimated scf accuracy    <       0.00000001 Ry

     total magnetization       =    -4.93 Bohr mag/cell
     absolute magnetization    =     5.83 Bohr mag/cell

     iteration # 14     ecut=    65.00 Ry     beta= 0.40
     Davidson diagonalization with overlap

---- Real-time Memory Report at c_bands before calling an iterative solver
           183 MiB given to the printing process from OS
           113 MiB allocation reported by mallinfo(arena+hblkhd)
        485285 MiB available memory on the node where the printing process lives
------------------
     ethr =  1.15E-11,  avg # of iterations =  1.5

     negative rho (up, down):  2.437E-07 0.000E+00

     total cpu time spent up to now is       39.0 secs

     total energy              =    -571.13652301 Ry
     estimated scf accuracy    <          6.2E-09 Ry

     total magnetization       =    -4.93 Bohr mag/cell
     absolute magnetization    =     5.83 Bohr mag/cell

     iteration # 15     ecut=    65.00 Ry     beta= 0.40
     Davidson diagonalization with overlap

---- Real-time Memory Report at c_bands before calling an iterative solver
           183 MiB given to the printing process from OS
           113 MiB allocation reported by mallinfo(arena+hblkhd)
        485284 MiB available memory on the node where the printing process lives
------------------
     ethr =  1.15E-11,  avg # of iterations =  2.1

     negative rho (up, down):  2.438E-07 0.000E+00

     total cpu time spent up to now is       41.2 secs

     total energy              =    -571.13652302 Ry
     estimated scf accuracy    <          1.5E-09 Ry

     total magnetization       =    -4.93 Bohr mag/cell
     absolute magnetization    =     5.83 Bohr mag/cell

     iteration # 16     ecut=    65.00 Ry     beta= 0.40
     Davidson diagonalization with overlap

---- Real-time Memory Report at c_bands before calling an iterative solver
           183 MiB given to the printing process from OS
           113 MiB allocation reported by mallinfo(arena+hblkhd)
        485283 MiB available memory on the node where the printing process lives
------------------
     ethr =  3.95E-12,  avg # of iterations =  1.6

     negative rho (up, down):  2.440E-07 0.000E+00

     Magnetic moment per site  (integrated on atomic sphere of radius R)
     atom   1 (R=0.253)  charge= 14.4580  magn= -1.0299
     atom   2 (R=0.253)  charge= 17.7288  magn= -1.0251
     atom   3 (R=0.253)  charge=  4.7114  magn= -2.5394

     total cpu time spent up to now is       43.3 secs

     End of self-consistent calculation

 ------ SPIN UP ------------


          k = 0.0000 0.0000 0.0000 ( 17573 PWs)   bands (ev):

  -102.9182 -79.6839 -63.5367 -63.5367 -63.5367 -48.6291 -48.6291 -48.6291
   -10.0255  -2.5547  -2.0624  -2.0624  -1.9334  -1.9334  -1.9334  -1.8067
    -1.8067  -1.8067  -0.7750  -0.7750  -0.7750  -0.7202  -0.7202  -0.5466
     1.8279   1.8279   1.8279

     occupation numbers 
     1.0000   1.0000   1.0000   1.0000   1.0000   1.0000   1.0000   1.0000
     1.0000   1.0013   1.0717   1.0717   0.9165   0.9165   0.9165   0.6004
     0.6004   0.6004   0.0000   0.0000   0.0000   0.0000   0.0000   0.0000
     0.0000   0.0000   0.0000

          k = 0.1010 0.1010-0.1010 ( 17660 PWs)   bands (ev):

  -102.9182 -79.6839 -63.5367 -63.5367 -63.5367 -48.6292 -48.6291 -48.6291
   -10.0251  -2.5364  -2.0628  -2.0628  -1.9333  -1.9325  -1.9325  -1.8044
    -1.8044  -1.7984  -0.8167  -0.8167  -0.7932  -0.6848  -0.6848  -0.6278
     1.7639   1.7639   1.8119

     occupation numbers 
     1.0000   1.0000   1.0000   1.0000   1.0000   1.0000   1.0000   1.0000
     1.0000   1.0018   1.0719   1.0719   0.9163   0.9148   0.9148   0.5940
     0.5940   0.5774   0.0000   0.0000   0.0000   0.0000   0.0000   0.0000
     0.0000   0.0000   0.0000

          k = 0.2020 0.2020-0.2020 ( 17649 PWs)   bands (ev):

  -102.9182 -79.6839 -63.5367 -63.5367 -63.5367 -48.6292 -48.6291 -48.6291
   -10.0240  -2.4866  -2.0639  -2.0639  -1.9307  -1.9307  -1.9301  -1.7989
    -1.7989  -1.7825  -1.0207  -0.8707  -0.8707  -0.6444  -0.6444  -0.5861
     1.6185   1.6347   1.6347

     occupation numbers 
     1.0000   1.0000   1.0000   1.0000   1.0000   1.0000   1.0000   1.0000
     1.0000   1.0039   1.0724   1.0724   0.9111   0.9111   0.9100   0.5788
     0.5788   0.5337   0.0000   0.0000   0.0000   0.0000   0.0000   0.0000
     0.0000   0.0000   0.0000

          k = 0.3030 0.3030-0.3030 ( 17643 PWs)   bands (ev):

  -102.9182 -79.6839 -63.5367 -63.5367 -63.5367 -48.6291 -48.6291 -48.6291
   -10.0232  -2.4349  -2.0648  -2.0648  -1.9293  -1.9293  -1.9210  -1.7942
    -1.7942  -1.7738  -1.2293  -0.9040  -0.9040  -0.6214  -0.6214  -0.5085
     1.4660   1.5419   1.5419

     occupation numbers 
     1.0000   1.0000   1.0000   1.0000   1.0000   1.0000   1.0000   1.0000
     1.0000   1.0079   1.0728   1.0728   0.9084   0.9084   0.8912   0.5658
     0.5658   0.5099   0.0007   0.0000   0.0000   0.0000   0.0000   0.0000
     0.0000   0.0000   0.0000

          k = 0.2020-0.0000 0.0000 ( 17693 PWs)   bands (ev):

  -102.9182 -79.6839 -63.5367 -63.5367 -63.5367 -48.6292 -48.6292 -48.6291
   -10.0249  -2.5282  -2.0642  -2.0618  -1.9327  -1.9326  -1.9326  -1.8030
    -1.8030  -1.7970  -0.8153  -0.8043  -0.8043  -0.7195  -0.6984  -0.6308
     1.7284   1.7284   1.9627

     occupation numbers 
     1.0000   1.0000   1.0000   1.0000   1.0000   1.0000   1.0000   1.0000
     1.0000   1.0021   1.0725   1.0714   0.9152   0.9149   0.9149   0.5900
     0.5900   0.5737   0.0000   0.0000   0.0000   0.0000   0.0000   0.0000
     0.0000   0.0000   0.0000

          k = 0.3030 0.1010-0.1010 ( 17666 PWs)   bands (ev):

  -102.9182 -79.6839 -63.5367 -63.5367 -63.5367 -48.6291 -48.6291 -48.6291
   -10.0241  -2.4823  -2.0659  -2.0619  -1.9320  -1.9314  -1.9297  -1.7981
    -1.7976  -1.7855  -1.0149  -0.8552  -0.8264  -0.6967  -0.6935  -0.5818
     1.5131   1.6441   2.0116

     occupation numbers 
     1.0000   1.0000   1.0000   1.0000   1.0000   1.0000   1.0000   1.0000
     1.0000   1.0041   1.0733   1.0715   0.9138   0.9125   0.9092   0.5766
     0.5752   0.5418   0.0000   0.0000   0.0000   0.0000   0.0000   0.0000
     0.0000   0.0000   0.0000

          k = 0.4041 0.2020-0.2020 ( 17650 PWs)   bands (ev):

  -102.9182 -79.6839 -63.5367 -63.5367 -63.5367 -48.6291 -48.6291 -48.6291
   -10.0232  -2.4187  -2.0668  -2.0631  -1.9305  -1.9299  -1.9213  -1.7926
    -1.7921  -1.7768  -1.2719  -0.9017  -0.8475  -0.6555  -0.6344  -0.5316
     1.2671   1.5649   1.9652

     occupation numbers 
     1.0000   1.0000   1.0000   1.0000   1.0000   1.0000   1.0000   1.0000
     1.0000   1.0097   1.0736   1.0720   0.9108   0.9096   0.8919   0.5615
     0.5601   0.5181   0.0016   0.0000   0.0000   0.0000   0.0000   0.0000
     0.0000   0.0000   0.0000

          k =-0.2020-0.4041 0.4041 ( 17655 PWs)   bands (ev):

  -102.9182 -79.6839 -63.5367 -63.5367 -63.5367 -48.6292 -48.6291 -48.6291
   -10.0229  -2.3950  -2.0661  -2.0645  -1.9304  -1.9292  -1.9153  -1.7911
    -1.7904  -1.7755  -1.3597  -0.9165  -0.8431  -0.6347  -0.6265  -0.5049
     1.1691   1.5411   1.9678

     occupation numbers 
     1.0000   1.0000   1.0000   1.0000   1.0000   1.0000   1.0000   1.0000
     1.0000   1.0129   1.0733   1.0726   0.9107   0.9082   0.8790   0.5571
     0.5554   0.5144   0.0070   0.0000   0.0000   0.0000   0.0000   0.0000
     0.0000   0.0000   0.0000

          k =-0.1010-0.3030 0.3030 ( 17664 PWs)   bands (ev):

  -102.9182 -79.6839 -63.5367 -63.5367 -63.5367 -48.6292 -48.6292 -48.6291
   -10.0234  -2.4419  -2.0650  -2.0643  -1.9319  -1.9297  -1.9248  -1.7952
    -1.7936  -1.7782  -1.2137  -0.8986  -0.8086  -0.6646  -0.6184  -0.5646
     1.2516   1.5985   2.0172

     occupation numbers 
     1.0000   1.0000   1.0000   1.0000   1.0000   1.0000   1.0000   1.0000
     1.0000   1.0072   1.0728   1.0726   0.9136   0.9092   0.8991   0.5687
     0.5642   0.5218   0.0005   0.0000   0.0000   0.0000   0.0000   0.0000
     0.0000   0.0000   0.0000

          k =-0.0000-0.2020 0.2020 ( 17614 PWs)   bands (ev):

  -102.9182 -79.6839 -63.5367 -63.5367 -63.5367 -48.6291 -48.6291 -48.6291
   -10.0244  -2.5044  -2.0643  -2.0628  -1.9332  -1.9312  -1.9308  -1.8011
    -1.8000  -1.7888  -0.9619  -0.8597  -0.7772  -0.6828  -0.6513  -0.6389
     1.4953   1.7050   1.9835

     occupation numbers 
     1.0000   1.0000   1.0000   1.0000   1.0000   1.0000   1.0000   1.0000
     1.0000   1.0030   1.0725   1.0719   0.9161   0.9121   0.9114   0.5849
     0.5819   0.5508   0.0000   0.0000   0.0000   0.0000   0.0000   0.0000
     0.0000   0.0000   0.0000

          k = 0.4041-0.0000 0.0000 ( 17694 PWs)   bands (ev):

  -102.9182 -79.6839 -63.5367 -63.5367 -63.5367 -48.6292 -48.6292 -48.6291
   -10.0235  -2.4362  -2.0685  -2.0605  -1.9313  -1.9313  -1.9270  -1.7920
    -1.7920  -1.7848  -1.0892  -0.8739  -0.8739  -0.7713  -0.7180  -0.5333
     1.6272   1.6272   2.0464

     occupation numbers 
     1.0000   1.0000   1.0000   1.0000   1.0000   1.0000   1.0000   1.0000
     1.0000   1.0077   1.0743   1.0708   0.9124   0.9124   0.9036   0.5597
     0.5597   0.5400   0.0000   0.0000   0.0000   0.0000   0.0000   0.0000
     0.0000   0.0000   0.0000

          k = 0.5051 0.1010-0.1010 ( 17653 PWs)   bands (ev):

  -102.9182 -79.6839 -63.5367 -63.5367 -63.5367 -48.6291 -48.6291 -48.6291
   -10.0228  -2.3641  -2.0701  -2.0607  -1.9311  -1.9306  -1.9154  -1.7907
    -1.7861  -1.7815  -1.3399  -0.9134  -0.8504  -0.7338  -0.6993  -0.5058
     1.3846   1.5924   2.1790

     occupation numbers 
     1.0000   1.0000   1.0000   1.0000   1.0000   1.0000   1.0000   1.0000
     1.0000   1.0182   1.0749   1.0709   0.9121   0.9109   0.8792   0.5560
     0.5433   0.5307   0.0051   0.0000   0.0000   0.0000   0.0000   0.0000
     0.0000   0.0000   0.0000

          k =-0.1010-0.5051 0.5051 ( 17693 PWs)   bands (ev):

  -102.9182 -79.6839 -63.5367 -63.5367 -63.5367 -48.6292 -48.6292 -48.6292
   -10.0225  -2.3191  -2.0696  -2.0624  -1.9316  -1.9297  -1.8997  -1.7977
    -1.7847  -1.7748  -1.5074  -0.9331  -0.8014  -0.7060  -0.6629  -0.4746
     1.1295   1.5619   2.2851

     occupation numbers 
     1.0000   1.0000   1.0000   1.0000   1.0000   1.0000   1.0000   1.0000
     1.0000   1.0286   1.0747   1.0717   0.9129   0.9092   0.8439   0.5754
     0.5395   0.5126   0.0530   0.0000   0.0000   0.0000   0.0000   0.0000
     0.0000   0.0000   0.0000

          k = 0.0000-0.4041 0.4041 ( 17710 PWs)   bands (ev):

  -102.9182 -79.6839 -63.5367 -63.5367 -63.5367 -48.6292 -48.6292 -48.6292
   -10.0228  -2.3627  -2.0671  -2.0643  -1.9324  -1.9293  -1.9126  -1.7894
    -1.7890  -1.7764  -1.4386  -0.9243  -0.7562  -0.7099  -0.6291  -0.4967
     1.0637   1.5631   2.3146

     occupation numbers 
     1.0000   1.0000   1.0000   1.0000   1.0000   1.0000   1.0000   1.0000
     1.0000   1.0185   1.0737   1.0726   0.9147   0.9083   0.8731   0.5525
     0.5513   0.5169   0.0222   0.0000   0.0000   0.0000   0.0000   0.0000
     0.0000   0.0000   0.0000

          k = 0.6061-0.0000 0.0000 ( 17670 PWs)   bands (ev):

  -102.9182 -79.6839 -63.5367 -63.5367 -63.5367 -48.6292 -48.6291 -48.6291
   -10.0225  -2.3027  -2.0721  -2.0594  -1.9308  -1.9308  -1.8958  -1.8089
    -1.7803  -1.7803  -1.4142  -0.9331  -0.9331  -0.7323  -0.7168  -0.5028
     1.6027   1.6027   2.0942

     occupation numbers 
     1.0000   1.0000   1.0000   1.0000   1.0000   1.0000   1.0000   1.0000
     1.0000   1.0332   1.0757   1.0703   0.9114   0.9114   0.8348   0.6065
     0.5275   0.5275   0.0158   0.0000   0.0000   0.0000   0.0000   0.0000
     0.0000   0.0000   0.0000

          k =-0.0000-0.6061 0.6061 ( 17692 PWs)   bands (ev):

  -102.9182 -79.6839 -63.5367 -63.5367 -63.5367 -48.6292 -48.6291 -48.6291
   -10.0223  -2.2752  -2.0720  -2.0602  -1.9311  -1.9304  -1.8721  -1.8304
    -1.7797  -1.7756  -1.5172  -0.9420  -0.8812  -0.7237  -0.7007  -0.4865
     1.3720   1.5889   2.2212

     occupation numbers 
     1.0000   1.0000   1.0000   1.0000   1.0000   1.0000   1.0000   1.0000
     1.0000   1.0417   1.0756   1.0707   0.9121   0.9106   0.7767   0.6657
     0.5258   0.5146   0.0595   0.0000   0.0000   0.0000   0.0000   0.0000
     0.0000   0.0000   0.0000

          k = 0.4041 0.2020 0.0000 ( 17645 PWs)   bands (ev):

  -102.9182 -79.6839 -63.5367 -63.5367 -63.5367 -48.6291 -48.6291 -48.6291
   -10.0233  -2.4201  -2.0676  -2.0621  -1.9321  -1.9302  -1.9236  -1.7929
    -1.7909  -1.7801  -1.2420  -0.9061  -0.7772  -0.7358  -0.6535  -0.5417
     1.2855   1.5970   2.2303

     occupation numbers 
     1.0000   1.0000   1.0000   1.0000   1.0000   1.0000   1.0000   1.0000
     1.0000   1.0095   1.0739   1.0716   0.9141   0.9102   0.8966   0.5622
     0.5566   0.5271   0.0009   0.0000   0.0000   0.0000   0.0000   0.0000
     0.0000   0.0000   0.0000

          k =-0.2020-0.4041 0.6061 ( 17695 PWs)   bands (ev):

  -102.9182 -79.6839 -63.5367 -63.5367 -63.5367 -48.6292 -48.6292 -48.6291
   -10.0227  -2.3514  -2.0683  -2.0631  -1.9315  -1.9297  -1.9096  -1.7915
    -1.7864  -1.7770  -1.4477  -0.9410  -0.7922  -0.7066  -0.6097  -0.4991
     1.1049   1.5463   2.3157

     occupation numbers 
     1.0000   1.0000   1.0000   1.0000   1.0000   1.0000   1.0000   1.0000
     1.0000   1.0208   1.0742   1.0720   0.9128   0.9091   0.8664   0.5583
     0.5442   0.5185   0.0251   0.0000   0.0000   0.0000   0.0000   0.0000
     0.0000   0.0000   0.0000

          k =-0.1010-0.5051 0.7071 ( 17694 PWs)   bands (ev):

  -102.9182 -79.6839 -63.5367 -63.5367 -63.5367 -48.6292 -48.6292 -48.6291
   -10.0224  -2.2982  -2.0710  -2.0611  -1.9311  -1.9305  -1.8928  -1.8077
    -1.7802  -1.7770  -1.5048  -0.9683  -0.8188  -0.7285  -0.6618  -0.4845
     1.2417   1.5490   2.3908

     occupation numbers 
     1.0000   1.0000   1.0000   1.0000   1.0000   1.0000   1.0000   1.0000
     1.0000   1.0345   1.0753   1.0711   0.9120   0.9108   0.8277   0.6031
     0.5273   0.5185   0.0514   0.0000   0.0000   0.0000   0.0000   0.0000
     0.0000   0.0000   0.0000

          k = 0.0000-0.4041 0.6061 ( 17671 PWs)   bands (ev):

  -102.9182 -79.6839 -63.5367 -63.5367 -63.5367 -48.6292 -48.6291 -48.6291
   -10.0223  -2.2861  -2.0702  -2.0624  -1.9315  -1.9301  -1.8843  -1.8122
    -1.7806  -1.7727  -1.5683  -0.9803  -0.7896  -0.7257  -0.6089  -0.4668
     1.0760   1.5308   2.5369

     occupation numbers 
     1.0000   1.0000   1.0000   1.0000   1.0000   1.0000   1.0000   1.0000
     1.0000   1.0382   1.0750   1.0717   0.9128   0.9100   0.8071   0.6156
     0.5284   0.5069   0.1038   0.0000   0.0000   0.0000   0.0000   0.0000
     0.0000   0.0000   0.0000

 ------ SPIN DOWN ----------


          k = 0.0000 0.0000 0.0000 ( 17573 PWs)   bands (ev):

  -104.3000 -80.3445 -64.8765 -64.8765 -64.8765 -49.2893 -49.2893 -49.2893
   -12.1561  -3.1971  -3.1971  -3.1971  -2.8649  -2.8523  -2.8523  -2.8523
    -2.7765  -2.7765  -2.7124  -2.7124  -1.7291  -1.7291  -1.7291  -0.9864
     1.5593   1.5593   1.5593

     occupation numbers 
     1.0000   1.0000   1.0000   1.0000   1.0000   1.0000   1.0000   1.0000
     1.0000   1.0000   1.0000   1.0000   1.0000   1.0000   1.0000   1.0000
     1.0000   1.0000   1.0001   1.0001   0.3927   0.3927   0.3927   0.0000
     0.0000   0.0000   0.0000

          k = 0.1010 0.1010-0.1010 ( 17660 PWs)   bands (ev):

  -104.3000 -80.3445 -64.8765 -64.8765 -64.8765 -49.2893 -49.2893 -49.2893
   -12.1558  -3.2159  -3.1952  -3.1952  -3.0061  -2.8715  -2.8715  -2.7624
    -2.7624  -2.7107  -2.7107  -2.6390  -1.7327  -1.7274  -1.7274  -1.0899
     1.4658   1.4658   1.4750

     occupation numbers 
     1.0000   1.0000   1.0000   1.0000   1.0000   1.0000   1.0000   1.0000
     1.0000   1.0000   1.0000   1.0000   1.0000   1.0000   1.0000   1.0000
     1.0000   1.0001   1.0001   1.0003   0.4016   0.3883   0.3883   0.0000
     0.0000   0.0000   0.0000

          k = 0.2020 0.2020-0.2020 ( 17649 PWs)   bands (ev):

  -104.3000 -80.3444 -64.8765 -64.8765 -64.8765 -49.2893 -49.2893 -49.2893
   -12.1553  -3.2472  -3.1904  -3.1904  -3.0932  -2.9029  -2.9029  -2.7472
    -2.7472  -2.7023  -2.7023  -2.3748  -1.7452  -1.7234  -1.7234  -1.3203
     1.2373   1.3003   1.3003

     occupation numbers 
     1.0000   1.0000   1.0000   1.0000   1.0000   1.0000   1.0000   1.0000
     1.0000   1.0000   1.0000   1.0000   1.0000   1.0000   1.0000   1.0000
     1.0000   1.0001   1.0001   1.0162   0.4337   0.3786   0.3786   0.0037
     0.0000   0.0000   0.0000

          k = 0.3030 0.3030-0.3030 ( 17643 PWs)   bands (ev):

  -104.3000 -80.3444 -64.8765 -64.8765 -64.8765 -49.2893 -49.2893 -49.2893
   -12.1548  -3.2580  -3.1861  -3.1861  -3.1439  -2.9236  -2.9236  -2.7431
    -2.7431  -2.6922  -2.6922  -2.1278  -1.7856  -1.7203  -1.7203  -1.5261
     1.0762   1.1922   1.1922

     occupation numbers 
     1.0000   1.0000   1.0000   1.0000   1.0000   1.0000   1.0000   1.0000
     1.0000   1.0000   1.0000   1.0000   1.0000   1.0000   1.0000   1.0000
     1.0000   1.0001   1.0001   1.0830   0.5422   0.3710   0.3710   0.0658
     0.0000   0.0000   0.0000

          k = 0.2020-0.0000 0.0000 ( 17693 PWs)   bands (ev):

  -104.3000 -80.3445 -64.8765 -64.8765 -64.8765 -49.2893 -49.2893 -49.2893
   -12.1557  -3.2235  -3.1929  -3.1929  -3.0148  -2.8655  -2.8655  -2.7757
    -2.7731  -2.7186  -2.7152  -2.5889  -1.7376  -1.7255  -1.7255  -1.1229
     1.4139   1.4139   1.5936

     occupation numbers 
     1.0000   1.0000   1.0000   1.0000   1.0000   1.0000   1.0000   1.0000
     1.0000   1.0000   1.0000   1.0000   1.0000   1.0000   1.0000   1.0000
     1.0000   1.0001   1.0001   1.0008   0.4141   0.3838   0.3838   0.0001
     0.0000   0.0000   0.0000

          k = 0.3030 0.1010-0.1010 ( 17666 PWs)   bands (ev):

  -104.3000 -80.3445 -64.8765 -64.8765 -64.8765 -49.2893 -49.2893 -49.2893
   -12.1553  -3.2434  -3.1884  -3.1877  -3.0714  -2.9005  -2.8906  -2.7596
    -2.7517  -2.7152  -2.7137  -2.4031  -1.7512  -1.7227  -1.7219  -1.2989
     1.1663   1.2938   1.5963

     occupation numbers 
     1.0000   1.0000   1.0000   1.0000   1.0000   1.0000   1.0000   1.0000
     1.0000   1.0000   1.0000   1.0000   1.0000   1.0000   1.0000   1.0000
     1.0000   1.0001   1.0001   1.0117   0.4494   0.3768   0.3749   0.0026
     0.0000   0.0000   0.0000

          k = 0.4041 0.2020-0.2020 ( 17650 PWs)   bands (ev):

  -104.3000 -80.3444 -64.8765 -64.8765 -64.8765 -49.2893 -49.2893 -49.2893
   -12.1548  -3.2431  -3.1832  -3.1826  -3.1275  -2.9351  -2.9183  -2.7471
    -2.7427  -2.7055  -2.7051  -2.1784  -1.7864  -1.7205  -1.7193  -1.4864
     0.9122   1.1949   1.5450

     occupation numbers 
     1.0000   1.0000   1.0000   1.0000   1.0000   1.0000   1.0000   1.0000
     1.0000   1.0000   1.0000   1.0000   1.0000   1.0000   1.0000   1.0000
     1.0000   1.0001   1.0001   1.0736   0.5443   0.3715   0.3684   0.0412
     0.0000   0.0000   0.0000

          k =-0.2020-0.4041 0.4041 ( 17655 PWs)   bands (ev):

  -104.3000 -80.3444 -64.8765 -64.8765 -64.8765 -49.2893 -49.2893 -49.2893
   -12.1547  -3.2355  -3.1833  -3.1785  -3.1513  -2.9450  -2.9292  -2.7434
    -2.7434  -2.7088  -2.6931  -2.0714  -1.8227  -1.7195  -1.7194  -1.5481
     0.8165   1.1725   1.5402

     occupation numbers 
     1.0000   1.0000   1.0000   1.0000   1.0000   1.0000   1.0000   1.0000
     1.0000   1.0000   1.0000   1.0000   1.0000   1.0000   1.0000   1.0000
     1.0000   1.0001   1.0001   1.0754   0.6447   0.3690   0.3687   0.0839
     0.0000   0.0000   0.0000

          k =-0.1010-0.3030 0.3030 ( 17664 PWs)   bands (ev):

  -104.3000 -80.3444 -64.8765 -64.8765 -64.8765 -49.2893 -49.2893 -49.2893
   -12.1550  -3.2462  -3.1880  -3.1830  -3.1118  -2.9225  -2.9197  -2.7524
    -2.7426  -2.7182  -2.6915  -2.2424  -1.7653  -1.7224  -1.7201  -1.4308
     0.9069   1.2456   1.5917

     occupation numbers 
     1.0000   1.0000   1.0000   1.0000   1.0000   1.0000   1.0000   1.0000
     1.0000   1.0000   1.0000   1.0000   1.0000   1.0000   1.0000   1.0000
     1.0000   1.0001   1.0001   1.0527   0.4869   0.3762   0.3704   0.0199
     0.0000   0.0000   0.0000

          k =-0.0000-0.2020 0.2020 ( 17614 PWs)   bands (ev):

  -104.3000 -80.3444 -64.8765 -64.8765 -64.8765 -49.2893 -49.2893 -49.2893
   -12.1555  -3.2367  -3.1932  -3.1894  -3.0582  -2.8966  -2.8832  -2.7688
    -2.7467  -2.7184  -2.7011  -2.4712  -1.7410  -1.7260  -1.7231  -1.2291
     1.1633   1.3806   1.5918

     occupation numbers 
     1.0000   1.0000   1.0000   1.0000   1.0000   1.0000   1.0000   1.0000
     1.0000   1.0000   1.0000   1.0000   1.0000   1.0000   1.0000   1.0000
     1.0000   1.0001   1.0001   1.0048   0.4227   0.3848   0.3779   0.0007
     0.0000   0.0000   0.0000

          k = 0.4041-0.0000 0.0000 ( 17694 PWs)   bands (ev):

  -104.3000 -80.3445 -64.8765 -64.8765 -64.8765 -49.2893 -49.2893 -49.2893
   -12.1550  -3.2431  -3.1818  -3.1818  -3.0769  -2.8961  -2.8961  -2.7638
    -2.7604  -2.7255  -2.7231  -2.3326  -1.7791  -1.7191  -1.7191  -1.3877
     1.2413   1.2413   1.5897

     occupation numbers 
     1.0000   1.0000   1.0000   1.0000   1.0000   1.0000   1.0000   1.0000
     1.0000   1.0000   1.0000   1.0000   1.0000   1.0000   1.0000   1.0000
     1.0000   1.0001   1.0001   1.0252   0.5242   0.3681   0.3681   0.0107
     0.0000   0.0000   0.0000

          k = 0.5051 0.1010-0.1010 ( 17653 PWs)   bands (ev):

  -104.3000 -80.3444 -64.8765 -64.8765 -64.8765 -49.2893 -49.2893 -49.2893
   -12.1546  -3.2229  -3.1767  -3.1752  -3.1078  -2.9382  -2.9169  -2.7527
    -2.7462  -2.7271  -2.7229  -2.2016  -1.8264  -1.7178  -1.7171  -1.4882
     0.9958   1.1824   1.7158

     occupation numbers 
     1.0000   1.0000   1.0000   1.0000   1.0000   1.0000   1.0000   1.0000
     1.0000   1.0000   1.0000   1.0000   1.0000   1.0000   1.0000   1.0000
     1.0000   1.0001   1.0001   1.0666   0.6547   0.3649   0.3633   0.0421
     0.0000   0.0000   0.0000

          k =-0.1010-0.5051 0.5051 ( 17693 PWs)   bands (ev):

  -104.3000 -80.3445 -64.8765 -64.8765 -64.8765 -49.2893 -49.2893 -49.2893
   -12.1545  -3.1925  -3.1766  -3.1589  -3.1472  -2.9880  -2.9320  -2.7458
    -2.7423  -2.7290  -2.7085  -2.0755  -1.8681  -1.7184  -1.7174  -1.5352
     0.7593   1.1536   1.8102

     occupation numbers 
     1.0000   1.0000   1.0000   1.0000   1.0000   1.0000   1.0000   1.0000
     1.0000   1.0000   1.0000   1.0000   1.0000   1.0000   1.0000   1.0000
     1.0000   1.0000   1.0001   1.0768   0.7662   0.3664   0.3640   0.0729
     0.0000   0.0000   0.0000

          k = 0.0000-0.4041 0.4041 ( 17710 PWs)   bands (ev):

  -104.3000 -80.3444 -64.8765 -64.8765 -64.8765 -49.2893 -49.2893 -49.2893
   -12.1546  -3.2148  -3.1818  -3.1729  -3.1284  -2.9750  -2.9319  -2.7483
    -2.7435  -2.7292  -2.6935  -2.1009  -1.8227  -1.7198  -1.7189  -1.5204
     0.7162   1.1782   1.8262

     occupation numbers 
     1.0000   1.0000   1.0000   1.0000   1.0000   1.0000   1.0000   1.0000
     1.0000   1.0000   1.0000   1.0000   1.0000   1.0000   1.0000   1.0000
     1.0000   1.0000   1.0001   1.0824   0.6445   0.3697   0.3677   0.0617
     0.0000   0.0000   0.0000

          k = 0.6061-0.0000 0.0000 ( 17670 PWs)   bands (ev):

  -104.3000 -80.3444 -64.8765 -64.8765 -64.8765 -49.2893 -49.2893 -49.2893
   -12.1544  -3.1958  -3.1710  -3.1710  -3.1257  -2.9221  -2.9221  -2.7517
    -2.7476  -2.7373  -2.7341  -2.1936  -1.8781  -1.7156  -1.7156  -1.5114
     1.1648   1.1648   1.6569

     occupation numbers 
     1.0000   1.0000   1.0000   1.0000   1.0000   1.0000   1.0000   1.0000
     1.0000   1.0000   1.0000   1.0000   1.0000   1.0000   1.0000   1.0000
     1.0000   1.0000   1.0000   1.0691   0.7918   0.3596   0.3596   0.0556
     0.0000   0.0000   0.0000

          k =-0.0000-0.6061 0.6061 ( 17692 PWs)   bands (ev):

  -104.3000 -80.3444 -64.8765 -64.8765 -64.8765 -49.2893 -49.2893 -49.2893
   -12.1543  -3.1731  -3.1709  -3.1594  -3.1457  -2.9637  -2.9295  -2.7473
    -2.7433  -2.7372  -2.7285  -2.1381  -1.8943  -1.7163  -1.7157  -1.5241
     0.9570   1.1516   1.7752

     occupation numbers 
     1.0000   1.0000   1.0000   1.0000   1.0000   1.0000   1.0000   1.0000
     1.0000   1.0000   1.0000   1.0000   1.0000   1.0000   1.0000   1.0000
     1.0000   1.0000   1.0001   1.0820   0.8312   0.3613   0.3599   0.0644
     0.0000   0.0000   0.0000

          k = 0.4041 0.2020 0.0000 ( 17645 PWs)   bands (ev):

  -104.3000 -80.3444 -64.8765 -64.8765 -64.8765 -49.2893 -49.2893 -49.2893
   -12.1549  -3.2393  -3.1838  -3.1800  -3.0990  -2.9268  -2.9173  -2.7579
    -2.7443  -2.7253  -2.7043  -2.2477  -1.7808  -1.7206  -1.7189  -1.4363
     0.9342   1.2121   1.7528

     occupation numbers 
     1.0000   1.0000   1.0000   1.0000   1.0000   1.0000   1.0000   1.0000
     1.0000   1.0000   1.0000   1.0000   1.0000   1.0000   1.0000   1.0000
     1.0000   1.0001   1.0001   1.0509   0.5290   0.3718   0.3676   0.0215
     0.0000   0.0000   0.0000

          k =-0.2020-0.4041 0.6061 ( 17695 PWs)   bands (ev):

  -104.3000 -80.3444 -64.8765 -64.8765 -64.8765 -49.2893 -49.2893 -49.2893
   -12.1545  -3.2099  -3.1790  -3.1711  -3.1368  -2.9684  -2.9350  -2.7467
    -2.7426  -2.7267  -2.7021  -2.0932  -1.8380  -1.7198  -1.7176  -1.5279
     0.7612   1.1350   1.8333

     occupation numbers 
     1.0000   1.0000   1.0000   1.0000   1.0000   1.0000   1.0000   1.0000
     1.0000   1.0000   1.0000   1.0000   1.0000   1.0000   1.0000   1.0000
     1.0000   1.0001   1.0001   1.0813   0.6867   0.3698   0.3644   0.0672
     0.0000   0.0000   0.0000

          k =-0.1010-0.5051 0.7071 ( 17694 PWs)   bands (ev):

  -104.3000 -80.3445 -64.8765 -64.8765 -64.8765 -49.2893 -49.2893 -49.2893
   -12.1544  -3.1874  -3.1722  -3.1681  -3.1265  -2.9681  -2.9405  -2.7484
    -2.7429  -2.7363  -2.7192  -2.1228  -1.8728  -1.7182  -1.7158  -1.5216
     0.8826   1.0890   1.9093

     occupation numbers 
     1.0000   1.0000   1.0000   1.0000   1.0000   1.0000   1.0000   1.0000
     1.0000   1.0000   1.0000   1.0000   1.0000   1.0000   1.0000   1.0000
     1.0000   1.0000   1.0001   1.0832   0.7784   0.3659   0.3600   0.0625
     0.0000   0.0000   0.0000

          k = 0.0000-0.4041 0.6061 ( 17671 PWs)   bands (ev):

  -104.3000 -80.3444 -64.8765 -64.8765 -64.8765 -49.2893 -49.2893 -49.2893
   -12.1544  -3.1783  -3.1733  -3.1537  -3.1372  -3.0031  -2.9475  -2.7468
    -2.7401  -2.7367  -2.7123  -2.0667  -1.8804  -1.7197  -1.7160  -1.5320
     0.7440   1.0717   2.0213

     occupation numbers 
     1.0000   1.0000   1.0000   1.0000   1.0000   1.0000   1.0000   1.0000
     1.0000   1.0000   1.0000   1.0000   1.0000   1.0000   1.0000   1.0000
     1.0000   1.0000   1.0001   1.0736   0.7975   0.3696   0.3605   0.0703
     0.0000   0.0000   0.0000

     the Fermi energy is    -1.7323 ev

!    total energy              =    -571.13652302 Ry
     estimated scf accuracy    <          2.4E-10 Ry
     smearing contrib. (-TS)   =      -0.01025883 Ry
     internal energy E=F+TS    =    -571.12626418 Ry

     The total energy is F=E-TS. E is the sum of the following terms:
     one-electron contribution =    -661.55692080 Ry
     hartree contribution      =     328.91443795 Ry
     xc contribution           =     -69.76397558 Ry
     ewald contribution        =    -168.71980575 Ry

     total magnetization       =    -4.93 Bohr mag/cell
     absolute magnetization    =     5.83 Bohr mag/cell

     convergence has been achieved in  16 iterations

     negative rho (up, down):  2.440E-07 0.000E+00

     Forces acting on atoms (cartesian axes, Ry/au):

     atom    1 type  2   force =     0.00000000   -0.00000000   -0.00000000
     atom    2 type  3   force =    -0.00000000   -0.00000000   -0.00000000
     atom    3 type  1   force =     0.00000000    0.00000000    0.00000000
     The non-local contrib.  to forces
     atom    1 type  2   force =     0.00000000    0.00000000   -0.00000000
     atom    2 type  3   force =     0.00000000    0.00000000   -0.00000000
     atom    3 type  1   force =     0.00000000    0.00000000   -0.00000000
     The ionic contribution  to forces
     atom    1 type  2   force =    -0.00000000    0.00000000   -0.00000000
     atom    2 type  3   force =    -0.00000000   -0.00000000   -0.00000000
     atom    3 type  1   force =     0.00000000   -0.00000000    0.00000000
     The local contribution  to forces
     atom    1 type  2   force =     0.00000000    0.00000000    0.00000000
     atom    2 type  3   force =     0.00000000    0.00000000    0.00000000
     atom    3 type  1   force =     0.00000000   -0.00000000    0.00000000
     The core correction contribution to forces
     atom    1 type  2   force =    -0.00000000   -0.00000000    0.00000000
     atom    2 type  3   force =     0.00000000    0.00000000    0.00000000
     atom    3 type  1   force =    -0.00000000   -0.00000000   -0.00000000
     The Hubbard contrib.    to forces
     atom    1 type  2   force =     0.00000000    0.00000000    0.00000000
     atom    2 type  3   force =     0.00000000    0.00000000    0.00000000
     atom    3 type  1   force =     0.00000000    0.00000000    0.00000000
     The SCF correction term to forces
     atom    1 type  2   force =     0.00000000    0.00000000   -0.00000000
     atom    2 type  3   force =    -0.00000000   -0.00000000    0.00000000
     atom    3 type  1   force =    -0.00000000   -0.00000000    0.00000000

     Total force =     0.000000     Total SCF correction =     0.000000


     Computing stress (Cartesian axis) and pressure


     negative rho (up, down):  2.440E-07 0.000E+00
          total   stress  (Ry/bohr**3)                   (kbar)     P=      -11.94
  -0.00008115   0.00000000   0.00000000          -11.94        0.00        0.00
   0.00000000  -0.00008115   0.00000000            0.00      -11.94        0.00
   0.00000000   0.00000000  -0.00008115            0.00        0.00      -11.94

     kinetic stress (kbar)   4568.93      0.00      0.00
                                0.00   4568.93      0.00
                                0.00      0.00   4568.93

     local   stress (kbar)  -9278.88      0.00     -0.00
                                0.00  -9278.88      0.00
                               -0.00      0.00  -9278.88

     nonloc. stress (kbar)   2276.73      0.00     -0.00
                                0.00   2276.73     -0.00
                               -0.00     -0.00   2276.73

     hartree stress (kbar)   8077.31      0.00     -0.00
                                0.00   8077.31     -0.00
                               -0.00     -0.00   8077.31

     exc-cor stress (kbar)   -673.09      0.00     -0.00
                                0.00   -673.09     -0.00
                               -0.00     -0.00   -673.09

     corecor stress (kbar)   -839.60      0.00     -0.00
                                0.00   -839.60      0.00
                               -0.00      0.00   -839.60

     ewald   stress (kbar)  -4143.33     -0.00     -0.00
                               -0.00  -4143.33      0.00
                               -0.00      0.00  -4143.33

     hubbard stress (kbar)      0.00      0.00      0.00
                                0.00      0.00      0.00
                                0.00      0.00      0.00

     DFT-D   stress (kbar)      0.00      0.00      0.00
                                0.00      0.00      0.00
                                0.00      0.00      0.00

     XDM     stress (kbar)      0.00      0.00      0.00
                                0.00      0.00      0.00
                                0.00      0.00      0.00

     dft-nl  stress (kbar)      0.00      0.00      0.00
                                0.00      0.00      0.00
                                0.00      0.00      0.00

     TS-vdW  stress (kbar)      0.00      0.00      0.00
                                0.00      0.00      0.00
                                0.00      0.00      0.00

     MDB     stress (kbar)      0.00      0.00      0.00
                                0.00      0.00      0.00
                                0.00      0.00      0.00

     3D-RISM stress (kbar)      0.00      0.00      0.00
                                0.00      0.00      0.00
                                0.00      0.00      0.00


     Writing all to output data dir ./out/aiida.save/ :
     XML data file, charge density, pseudopotentials, collected wavefunctions

     init_run     :      1.77s CPU      2.03s WALL (       1 calls)
     electrons    :     34.80s CPU     37.99s WALL (       1 calls)
     forces       :      0.82s CPU      0.93s WALL (       1 calls)
     stress       :      2.00s CPU      2.20s WALL (       1 calls)

     Called by init_run:
     wfcinit      :      0.38s CPU      0.40s WALL (       1 calls)
     wfcinit:atom :      0.01s CPU      0.01s WALL (       6 calls)
     wfcinit:wfcr :      0.35s CPU      0.36s WALL (       6 calls)
     potinit      :      0.68s CPU      0.83s WALL (       1 calls)
     hinit0       :      0.34s CPU      0.36s WALL (       1 calls)

     Called by electrons:
     c_bands      :     15.22s CPU     15.83s WALL (      17 calls)
     sum_band     :      7.81s CPU      8.90s WALL (      17 calls)
     v_of_rho     :      8.19s CPU      8.91s WALL (      17 calls)
     v_h          :      0.39s CPU      0.42s WALL (      17 calls)
     v_xc         :      8.69s CPU      9.47s WALL (      19 calls)
     newd         :      2.31s CPU      3.03s WALL (      17 calls)
     mix_rho      :      0.74s CPU      0.78s WALL (      17 calls)

     Called by c_bands:
     init_us_2    :      0.22s CPU      0.23s WALL (     222 calls)
     init_us_2:cp :      0.22s CPU      0.22s WALL (     222 calls)
     cegterg      :     14.28s CPU     14.84s WALL (     102 calls)

     Called by sum_band:
     sum_band:wei :      0.02s CPU      0.02s WALL (      17 calls)
     sum_band:loo :      3.45s CPU      3.57s WALL (      17 calls)
     sum_band:buf :      0.07s CPU      0.07s WALL (     102 calls)
     sum_band:ini :      0.10s CPU      0.11s WALL (     102 calls)
     sum_band:cal :      0.14s CPU      0.15s WALL (     102 calls)
     sum_band:bec :      0.00s CPU      0.00s WALL (     102 calls)
     addusdens    :      3.34s CPU      4.16s WALL (      17 calls)
                                        0.00s GPU  (      17 calls)
     addusd:skk   :      0.01s CPU      0.01s WALL (      51 calls)
                                        0.00s GPU  (      51 calls)

     Called by *egterg:
     cdiaghg      :      0.27s CPU      0.28s WALL (     334 calls)
     cegterg:over :      0.39s CPU      0.40s WALL (     238 calls)
     cegterg:upda :      0.25s CPU      0.25s WALL (     238 calls)
     cegterg:last :      0.47s CPU      0.47s WALL (     190 calls)
     h_psi        :     12.58s CPU     13.14s WALL (     346 calls)
     s_psi        :      0.25s CPU      0.25s WALL (     346 calls)
     g_psi        :      0.03s CPU      0.03s WALL (     238 calls)

     Called by h_psi:
     h_psi:calbec :      0.46s CPU      0.46s WALL (     346 calls)
     vloc_psi     :     11.69s CPU     12.23s WALL (     346 calls)
     add_vuspsi   :      0.33s CPU      0.34s WALL (     346 calls)

     General routines
     calbec       :      0.63s CPU      0.64s WALL (     478 calls)
     fft          :      4.33s CPU      4.79s WALL (     465 calls)
     ffts         :      0.26s CPU      0.27s WALL (      68 calls)
     fftw         :      9.35s CPU      9.86s WALL (   16568 calls)
     interpolate  :      0.59s CPU      0.62s WALL (      34 calls)

     Parallel routines

     PWSCF        :     39.69s CPU     46.84s WALL


   This run was terminated on:  20:35:25  29Nov2023            

=------------------------------------------------------------------------------=
   JOB DONE.
=------------------------------------------------------------------------------=
