
     Program PWSCF v.7.2 starts on 30Nov2023 at  4: 5:46 
        Git branch: develop
        Last git commit: 9055681be6fc8200e6fffe76ed5fda34c2696339
        Last git commit date: Wed Nov 8 16:29:39 2023 +0000
        Last git commit subject: Merge branch 'calbec_fix' into 'develop'

     This program is part of the open-source Quantum ESPRESSO suite
     for quantum simulation of materials; please cite
         "P. Giannozzi et al., J. Phys.:Condens. Matter 21 395502 (2009);
         "P. Giannozzi et al., J. Phys.:Condens. Matter 29 465901 (2017);
         "P. Giannozzi et al., J. Chem. Phys. 152 154105 (2020);
          URL http://www.quantum-espresso.org", 
     in publications or presentations arising from this work. More details at
     http://www.quantum-espresso.org/quote

     Parallel version (MPI), running on    56 processors

     MPI processes distributed on     1 nodes
     486759 MiB available memory on the printing compute node when the environment starts

     Reading input from aiida.in

     Current dimensions of program PWSCF are:
     Max number of different atomic species (ntypx) = 10
     Max number of k-points (npk) =  40000
     Max angular momentum in pseudopotentials (lmaxx) =  4
     file Al.pbesol-n-kjpaw_psl.1.0.0.UPF: wavefunction(s)  3S 3P renormalized
     Message from routine setup:
     using ibrav=0 with symmetry is DISCOURAGED, use correct ibrav instead

     K-points division:     npool     =       7
     R & G space division:  proc/nbgrp/npool/nimage =       8
     Subspace diagonalization in iterative solution of the eigenvalue problem:
     a serial algorithm will be used


     Parallelization info
     --------------------
     sticks:   dense  smooth     PW     G-vecs:    dense   smooth      PW
     Min         203     100     31                 5392     1884     329
     Max         204     101     32                 5395     1887     331
     Sum        1627     805    253                43143    15089    2637

     Using Slab Decomposition



     bravais-lattice index     =            0
     lattice parameter (alat)  =       8.5653  a.u.
     unit-cell volume          =     444.3352 (a.u.)^3
     number of atoms/cell      =            4
     number of atomic types    =            4
     number of electrons       =        42.00
     number of Kohn-Sham states=           29
     kinetic-energy cutoff     =      40.0000  Ry
     charge density cutoff     =     320.0000  Ry
     scf convergence threshold =      8.0E-10
     mixing beta               =       0.4000
     number of iterations used =            8  plain     mixing
     Exchange-correlation= SLA  PW   PSX  PSC
                           (   1   4  10   8   0   0   0)

     celldm(1)=   8.565287  celldm(2)=   0.000000  celldm(3)=   0.000000
     celldm(4)=   0.000000  celldm(5)=   0.000000  celldm(6)=   0.000000

     crystal axes: (cart. coord. in units of alat)
               a(1) = (   0.000000   0.707107   0.707107 )  
               a(2) = (   0.707107   0.000000   0.707107 )  
               a(3) = (   0.707107   0.707107   0.000000 )  

     reciprocal axes: (cart. coord. in units 2 pi/alat)
               b(1) = ( -0.707107  0.707107  0.707107 )  
               b(2) = (  0.707107 -0.707107  0.707107 )  
               b(3) = (  0.707107  0.707107 -0.707107 )  


     PseudoPot. # 1 for Al read from file:
     ./pseudo/Al.pbesol-n-kjpaw_psl.1.0.0.UPF
     MD5 check sum: 3401bcfaaf5f9b08e46a00870a1ef39d
     Pseudo is Projector augmented-wave + core cor, Zval =  3.0
     Generated using "atomic" code by A. Dal Corso  v.6.0 svn rev. 13079
     Shape of augmentation charge: PSQ
     Using radial grid of 1135 points,  6 beta functions with: 
                l(1) =   0
                l(2) =   0
                l(3) =   1
                l(4) =   1
                l(5) =   2
                l(6) =   2
     Q(r) pseudized with 0 coefficients 


     PseudoPot. # 2 for Cr read from file:
     ./pseudo/cr_pbesol_v1.5.uspp.F.UPF
     MD5 check sum: a621641e0be27168676a837af8893d0f
     Pseudo is Ultrasoft + core correction, Zval = 14.0
     Generated by new atomic code, or converted to UPF format
     Using radial grid of  857 points,  6 beta functions with: 
                l(1) =   0
                l(2) =   0
                l(3) =   1
                l(4) =   1
                l(5) =   2
                l(6) =   2
     Q(r) pseudized with  8 coefficients,  rinner =    0.950   0.950   0.950
                                                       0.950   0.950

     PseudoPot. # 3 for V  read from file:
     ./pseudo/v_pbesol_v1.4.uspp.F.UPF
     MD5 check sum: 72fa7d0034c41d8adc50bbc8c632b9f9
     Pseudo is Ultrasoft + core correction, Zval = 13.0
     Generated by new atomic code, or converted to UPF format
     Using radial grid of  853 points,  6 beta functions with: 
                l(1) =   0
                l(2) =   0
                l(3) =   1
                l(4) =   1
                l(5) =   2
                l(6) =   2
     Q(r) pseudized with  8 coefficients,  rinner =    1.100   1.100   1.100
                                                       1.100   1.100

     PseudoPot. # 4 for Zr read from file:
     ./pseudo/zr_pbesol_v1.uspp.F.UPF
     MD5 check sum: f29f2a20533738a515abe666fee35838
     Pseudo is Ultrasoft + core correction, Zval = 12.0
     Generated by new atomic code, or converted to UPF format
     Using radial grid of  887 points,  6 beta functions with: 
                l(1) =   0
                l(2) =   0
                l(3) =   1
                l(4) =   1
                l(5) =   2
                l(6) =   2
     Q(r) pseudized with  6 coefficients,  rinner =    1.200   1.200   1.200
                                                       1.200   1.200

     atomic species   valence    mass     pseudopotential
     Al                3.00    26.98154     Al( 1.00)
     Cr               14.00    51.99610     Cr( 1.00)
     V                13.00    50.94150     V ( 1.00)
     Zr               12.00    91.22400     Zr( 1.00)

     Starting magnetic structure 
     atomic species   magnetization
     Al              0.100
     Cr              0.357
     V               0.385
     Zr              0.417

     24 Sym. Ops. (no inversion) found


                                    s                        frac. trans.

      isym =  1     identity                                     

 cryst.   s( 1) = (     1          0          0      )
                  (     0          1          0      )
                  (     0          0          1      )

 cart.    s( 1) = (  1.0000000 -0.0000000  0.0000000 )
                  ( -0.0000000  1.0000000  0.0000000 )
                  ( -0.0000000  0.0000000  1.0000000 )


      isym =  2     180 deg rotation - cart. axis [0,0,1]        

 cryst.   s( 2) = (     0          1         -1      )
                  (     1          0         -1      )
                  (     0          0         -1      )

 cart.    s( 2) = ( -1.0000000  0.0000000  0.0000000 )
                  (  0.0000000 -1.0000000  0.0000000 )
                  (  0.0000000 -0.0000000  1.0000000 )


      isym =  3     180 deg rotation - cart. axis [0,1,0]        

 cryst.   s( 3) = (     0         -1          1      )
                  (     0         -1          0      )
                  (     1         -1          0      )

 cart.    s( 3) = ( -1.0000000 -0.0000000 -0.0000000 )
                  (  0.0000000  1.0000000 -0.0000000 )
                  (  0.0000000  0.0000000 -1.0000000 )


      isym =  4     180 deg rotation - cart. axis [1,0,0]        

 cryst.   s( 4) = (    -1          0          0      )
                  (    -1          0          1      )
                  (    -1          1          0      )

 cart.    s( 4) = (  1.0000000  0.0000000 -0.0000000 )
                  ( -0.0000000 -1.0000000 -0.0000000 )
                  ( -0.0000000 -0.0000000 -1.0000000 )


      isym =  5     120 deg rotation - cart. axis [-1,-1,-1]     

 cryst.   s( 5) = (     0          0          1      )
                  (     1          0          0      )
                  (     0          1          0      )

 cart.    s( 5) = (  0.0000000  1.0000000 -0.0000000 )
                  (  0.0000000 -0.0000000  1.0000000 )
                  (  1.0000000 -0.0000000  0.0000000 )


      isym =  6     120 deg rotation - cart. axis [-1,1,1]       

 cryst.   s( 6) = (     1         -1          0      )
                  (     0         -1          1      )
                  (     0         -1          0      )

 cart.    s( 6) = ( -0.0000000 -1.0000000 -0.0000000 )
                  ( -0.0000000  0.0000000  1.0000000 )
                  ( -1.0000000  0.0000000  0.0000000 )


      isym =  7     120 deg rotation - cart. axis [1,1,-1]       

 cryst.   s( 7) = (    -1          1          0      )
                  (    -1          0          0      )
                  (    -1          0          1      )

 cart.    s( 7) = ( -0.0000000  1.0000000  0.0000000 )
                  ( -0.0000000 -0.0000000 -1.0000000 )
                  ( -1.0000000 -0.0000000 -0.0000000 )


      isym =  8     120 deg rotation - cart. axis [1,-1,1]       

 cryst.   s( 8) = (     0          0         -1      )
                  (     0          1         -1      )
                  (     1          0         -1      )

 cart.    s( 8) = (  0.0000000 -1.0000000  0.0000000 )
                  (  0.0000000  0.0000000 -1.0000000 )
                  (  1.0000000  0.0000000 -0.0000000 )


      isym =  9     120 deg rotation - cart. axis [1,1,1]        

 cryst.   s( 9) = (     0          1          0      )
                  (     0          0          1      )
                  (     1          0          0      )

 cart.    s( 9) = ( -0.0000000  0.0000000  1.0000000 )
                  (  1.0000000  0.0000000 -0.0000000 )
                  (  0.0000000  1.0000000 -0.0000000 )


      isym = 10     120 deg rotation - cart. axis [-1,1,-1]      

 cryst.   s(10) = (    -1          0          1      )
                  (    -1          1          0      )
                  (    -1          0          0      )

 cart.    s(10) = (  0.0000000 -0.0000000  1.0000000 )
                  ( -1.0000000 -0.0000000 -0.0000000 )
                  ( -0.0000000 -1.0000000 -0.0000000 )


      isym = 11     120 deg rotation - cart. axis [1,-1,-1]      

 cryst.   s(11) = (     1          0         -1      )
                  (     0          0         -1      )
                  (     0          1         -1      )

 cart.    s(11) = (  0.0000000  0.0000000 -1.0000000 )
                  ( -1.0000000  0.0000000  0.0000000 )
                  ( -0.0000000  1.0000000  0.0000000 )


      isym = 12     120 deg rotation - cart. axis [-1,-1,1]      

 cryst.   s(12) = (     0         -1          0      )
                  (     1         -1          0      )
                  (     0         -1          1      )

 cart.    s(12) = ( -0.0000000 -0.0000000 -1.0000000 )
                  (  1.0000000 -0.0000000  0.0000000 )
                  (  0.0000000 -1.0000000  0.0000000 )


      isym = 13     inv. 180 deg rotation - cart. axis [1,1,0]   

 cryst.   s(13) = (     1          0         -1      )
                  (     0          1         -1      )
                  (     0          0         -1      )

 cart.    s(13) = (  0.0000000 -1.0000000  0.0000000 )
                  ( -1.0000000  0.0000000  0.0000000 )
                  ( -0.0000000  0.0000000  1.0000000 )


      isym = 14     inv. 180 deg rotation - cart. axis [1,-1,0]  

 cryst.   s(14) = (     0          1          0      )
                  (     1          0          0      )
                  (     0          0          1      )

 cart.    s(14) = ( -0.0000000  1.0000000  0.0000000 )
                  (  1.0000000 -0.0000000  0.0000000 )
                  (  0.0000000 -0.0000000  1.0000000 )


      isym = 15     inv.  90 deg rotation - cart. axis [0,0,-1]  

 cryst.   s(15) = (     0         -1          0      )
                  (     0         -1          1      )
                  (     1         -1          0      )

 cart.    s(15) = ( -0.0000000 -1.0000000 -0.0000000 )
                  (  1.0000000  0.0000000 -0.0000000 )
                  (  0.0000000  0.0000000 -1.0000000 )


      isym = 16     inv.  90 deg rotation - cart. axis [0,0,1]   

 cryst.   s(16) = (    -1          0          1      )
                  (    -1          0          0      )
                  (    -1          1          0      )

 cart.    s(16) = (  0.0000000  1.0000000 -0.0000000 )
                  ( -1.0000000 -0.0000000 -0.0000000 )
                  ( -0.0000000 -0.0000000 -1.0000000 )


      isym = 17     inv. 180 deg rotation - cart. axis [1,0,1]   

 cryst.   s(17) = (     1         -1          0      )
                  (     0         -1          0      )
                  (     0         -1          1      )

 cart.    s(17) = ( -0.0000000 -0.0000000 -1.0000000 )
                  ( -0.0000000  1.0000000  0.0000000 )
                  ( -1.0000000  0.0000000  0.0000000 )


      isym = 18     inv. 180 deg rotation - cart. axis [-1,0,1]  

 cryst.   s(18) = (     0          0          1      )
                  (     0          1          0      )
                  (     1          0          0      )

 cart.    s(18) = (  0.0000000 -0.0000000  1.0000000 )
                  (  0.0000000  1.0000000 -0.0000000 )
                  (  1.0000000  0.0000000 -0.0000000 )


      isym = 19     inv.  90 deg rotation - cart. axis [0,1,0]   

 cryst.   s(19) = (     0          0         -1      )
                  (     1          0         -1      )
                  (     0          1         -1      )

 cart.    s(19) = (  0.0000000  0.0000000 -1.0000000 )
                  (  0.0000000 -1.0000000  0.0000000 )
                  (  1.0000000 -0.0000000  0.0000000 )


      isym = 20     inv.  90 deg rotation - cart. axis [0,-1,0]  

 cryst.   s(20) = (    -1          1          0      )
                  (    -1          0          1      )
                  (    -1          0          0      )

 cart.    s(20) = ( -0.0000000  0.0000000  1.0000000 )
                  ( -0.0000000 -1.0000000 -0.0000000 )
                  ( -1.0000000 -0.0000000 -0.0000000 )


      isym = 21     inv. 180 deg rotation - cart. axis [0,1,1]   

 cryst.   s(21) = (    -1          0          0      )
                  (    -1          1          0      )
                  (    -1          0          1      )

 cart.    s(21) = (  1.0000000 -0.0000000  0.0000000 )
                  ( -0.0000000 -0.0000000 -1.0000000 )
                  ( -0.0000000 -1.0000000 -0.0000000 )


      isym = 22     inv. 180 deg rotation - cart. axis [0,1,-1]  

 cryst.   s(22) = (     1          0          0      )
                  (     0          0          1      )
                  (     0          1          0      )

 cart.    s(22) = (  1.0000000  0.0000000 -0.0000000 )
                  ( -0.0000000  0.0000000  1.0000000 )
                  ( -0.0000000  1.0000000  0.0000000 )


      isym = 23     inv.  90 deg rotation - cart. axis [-1,0,0]  

 cryst.   s(23) = (     0          1         -1      )
                  (     0          0         -1      )
                  (     1          0         -1      )

 cart.    s(23) = ( -1.0000000  0.0000000  0.0000000 )
                  (  0.0000000  0.0000000 -1.0000000 )
                  (  0.0000000  1.0000000 -0.0000000 )


      isym = 24     inv.  90 deg rotation - cart. axis [1,0,0]   

 cryst.   s(24) = (     0         -1          1      )
                  (     1         -1          0      )
                  (     0         -1          0      )

 cart.    s(24) = ( -1.0000000 -0.0000000 -0.0000000 )
                  (  0.0000000 -0.0000000  1.0000000 )
                  (  0.0000000 -1.0000000  0.0000000 )


   Cartesian axes

     site n.     atom                  positions (alat units)
         1        Zr     tau(   1) = (   0.3535534   0.3535534   0.3535534  )
         2        Al     tau(   2) = (   0.3535534   0.3535534   1.0606602  )
         3        V      tau(   3) = (   0.7071068   0.0000000   0.0000000  )
         4        Cr     tau(   4) = (   0.0000000   0.0000000   0.0000000  )

   Crystallographic axes

     site n.     atom                  positions (cryst. coord.)
         1        Zr     tau(   1) = (  0.2500000  0.2500000  0.2500000  )
         2        Al     tau(   2) = (  0.7500000  0.7500000 -0.2500000  )
         3        V      tau(   3) = ( -0.5000000  0.5000000  0.5000000  )
         4        Cr     tau(   4) = (  0.0000000  0.0000000  0.0000000  )

     number of k points=    72  Marzari-Vanderbilt smearing, width (Ry)=  0.0200
                       cart. coord. in units 2pi/alat
        k(    1) = (   0.0000000   0.0000000   0.0000000), wk =   0.0005787
        k(    2) = (   0.0589256   0.0589256  -0.0589256), wk =   0.0046296
        k(    3) = (   0.1178511   0.1178511  -0.1178511), wk =   0.0046296
        k(    4) = (   0.1767767   0.1767767  -0.1767767), wk =   0.0046296
        k(    5) = (   0.2357023   0.2357023  -0.2357023), wk =   0.0046296
        k(    6) = (   0.2946278   0.2946278  -0.2946278), wk =   0.0046296
        k(    7) = (  -0.3535534  -0.3535534   0.3535534), wk =   0.0023148
        k(    8) = (   0.1178511   0.0000000  -0.0000000), wk =   0.0034722
        k(    9) = (   0.1767767   0.0589256  -0.0589256), wk =   0.0138889
        k(   10) = (   0.2357023   0.1178511  -0.1178511), wk =   0.0138889
        k(   11) = (   0.2946278   0.1767767  -0.1767767), wk =   0.0138889
        k(   12) = (   0.3535534   0.2357023  -0.2357023), wk =   0.0138889
        k(   13) = (  -0.2946278  -0.4124790   0.4124790), wk =   0.0138889
        k(   14) = (  -0.2357023  -0.3535534   0.3535534), wk =   0.0138889
        k(   15) = (  -0.1767767  -0.2946278   0.2946278), wk =   0.0138889
        k(   16) = (  -0.1178511  -0.2357023   0.2357023), wk =   0.0138889
        k(   17) = (  -0.0589256  -0.1767767   0.1767767), wk =   0.0138889
        k(   18) = (  -0.0000000  -0.1178511   0.1178511), wk =   0.0069444
        k(   19) = (   0.2357023   0.0000000  -0.0000000), wk =   0.0034722
        k(   20) = (   0.2946278   0.0589256  -0.0589256), wk =   0.0138889
        k(   21) = (   0.3535534   0.1178511  -0.1178511), wk =   0.0138889
        k(   22) = (   0.4124790   0.1767767  -0.1767767), wk =   0.0138889
        k(   23) = (  -0.2357023  -0.4714045   0.4714045), wk =   0.0138889
        k(   24) = (  -0.1767767  -0.4124790   0.4124790), wk =   0.0138889
        k(   25) = (  -0.1178511  -0.3535534   0.3535534), wk =   0.0138889
        k(   26) = (  -0.0589256  -0.2946278   0.2946278), wk =   0.0138889
        k(   27) = (   0.0000000  -0.2357023   0.2357023), wk =   0.0069444
        k(   28) = (   0.3535534   0.0000000   0.0000000), wk =   0.0034722
        k(   29) = (   0.4124790   0.0589256  -0.0589256), wk =   0.0138889
        k(   30) = (   0.4714045   0.1178511  -0.1178511), wk =   0.0138889
        k(   31) = (  -0.1767767  -0.5303301   0.5303301), wk =   0.0138889
        k(   32) = (  -0.1178511  -0.4714045   0.4714045), wk =   0.0138889
        k(   33) = (  -0.0589256  -0.4124790   0.4124790), wk =   0.0138889
        k(   34) = (   0.0000000  -0.3535534   0.3535534), wk =   0.0069444
        k(   35) = (   0.4714045   0.0000000  -0.0000000), wk =   0.0034722
        k(   36) = (   0.5303301   0.0589256  -0.0589256), wk =   0.0138889
        k(   37) = (  -0.1178511  -0.5892557   0.5892557), wk =   0.0138889
        k(   38) = (  -0.0589256  -0.5303301   0.5303301), wk =   0.0138889
        k(   39) = (  -0.0000000  -0.4714045   0.4714045), wk =   0.0069444
        k(   40) = (   0.5892557   0.0000000  -0.0000000), wk =   0.0034722
        k(   41) = (  -0.0589256  -0.6481812   0.6481812), wk =   0.0138889
        k(   42) = (   0.0000000  -0.5892557   0.5892557), wk =   0.0069444
        k(   43) = (  -0.7071068   0.0000000   0.0000000), wk =   0.0017361
        k(   44) = (   0.2357023   0.1178511   0.0000000), wk =   0.0138889
        k(   45) = (   0.2946278   0.1767767  -0.0589256), wk =   0.0277778
        k(   46) = (   0.3535534   0.2357023  -0.1178511), wk =   0.0277778
        k(   47) = (  -0.2946278  -0.4124790   0.5303301), wk =   0.0277778
        k(   48) = (  -0.2357023  -0.3535534   0.4714045), wk =   0.0138889
        k(   49) = (   0.3535534   0.1178511   0.0000000), wk =   0.0138889
        k(   50) = (   0.4124790   0.1767767  -0.0589256), wk =   0.0277778
        k(   51) = (  -0.2357023  -0.4714045   0.5892557), wk =   0.0277778
        k(   52) = (  -0.1767767  -0.4124790   0.5303301), wk =   0.0277778
        k(   53) = (  -0.1178511  -0.3535534   0.4714045), wk =   0.0277778
        k(   54) = (  -0.0589256  -0.2946278   0.4124790), wk =   0.0277778
        k(   55) = (   0.0000000  -0.2357023   0.3535534), wk =   0.0138889
        k(   56) = (   0.4714045   0.1178511  -0.0000000), wk =   0.0138889
        k(   57) = (  -0.1767767  -0.5303301   0.6481812), wk =   0.0277778
        k(   58) = (  -0.1178511  -0.4714045   0.5892557), wk =   0.0277778
        k(   59) = (  -0.0589256  -0.4124790   0.5303301), wk =   0.0277778
        k(   60) = (  -0.0000000  -0.3535534   0.4714045), wk =   0.0138889
        k(   61) = (  -0.1178511  -0.5892557   0.7071068), wk =   0.0138889
        k(   62) = (  -0.0589256  -0.5303301   0.6481812), wk =   0.0277778
        k(   63) = (  -0.0000000  -0.4714045   0.5892557), wk =   0.0138889
        k(   64) = (  -0.7071068   0.1178511  -0.0000000), wk =   0.0069444
        k(   65) = (  -0.2357023  -0.4714045   0.7071068), wk =   0.0138889
        k(   66) = (  -0.1767767  -0.4124790   0.6481812), wk =   0.0277778
        k(   67) = (  -0.1178511  -0.3535534   0.5892557), wk =   0.0138889
        k(   68) = (  -0.1178511  -0.4714045   0.7071068), wk =   0.0138889
        k(   69) = (  -0.0589256  -0.4124790   0.6481812), wk =   0.0277778
        k(   70) = (   0.0000000  -0.3535534   0.5892557), wk =   0.0138889
        k(   71) = (  -0.7071068   0.2357023   0.0000000), wk =   0.0069444
        k(   72) = (  -0.7071068   0.3535534   0.0000000), wk =   0.0034722

                       cryst. coord.
        k(    1) = (   0.0000000   0.0000000   0.0000000), wk =   0.0005787
        k(    2) = (   0.0000000   0.0000000   0.0833333), wk =   0.0046296
        k(    3) = (   0.0000000   0.0000000   0.1666667), wk =   0.0046296
        k(    4) = (   0.0000000   0.0000000   0.2500000), wk =   0.0046296
        k(    5) = (   0.0000000   0.0000000   0.3333333), wk =   0.0046296
        k(    6) = (  -0.0000000  -0.0000000   0.4166667), wk =   0.0046296
        k(    7) = (  -0.0000000  -0.0000000  -0.5000000), wk =   0.0023148
        k(    8) = (  -0.0000000   0.0833333   0.0833333), wk =   0.0034722
        k(    9) = (   0.0000000   0.0833333   0.1666667), wk =   0.0138889
        k(   10) = (  -0.0000000   0.0833333   0.2500000), wk =   0.0138889
        k(   11) = (   0.0000000   0.0833333   0.3333333), wk =   0.0138889
        k(   12) = (  -0.0000000   0.0833333   0.4166667), wk =   0.0138889
        k(   13) = (  -0.0000000   0.0833333  -0.5000000), wk =   0.0138889
        k(   14) = (   0.0000000   0.0833333  -0.4166667), wk =   0.0138889
        k(   15) = (  -0.0000000   0.0833333  -0.3333333), wk =   0.0138889
        k(   16) = (  -0.0000000   0.0833333  -0.2500000), wk =   0.0138889
        k(   17) = (   0.0000000   0.0833333  -0.1666667), wk =   0.0138889
        k(   18) = (   0.0000000   0.0833333  -0.0833333), wk =   0.0069444
        k(   19) = (  -0.0000000   0.1666667   0.1666667), wk =   0.0034722
        k(   20) = (  -0.0000000   0.1666667   0.2500000), wk =   0.0138889
        k(   21) = (   0.0000000   0.1666667   0.3333333), wk =   0.0138889
        k(   22) = (   0.0000000   0.1666667   0.4166667), wk =   0.0138889
        k(   23) = (  -0.0000000   0.1666667  -0.5000000), wk =   0.0138889
        k(   24) = (  -0.0000000   0.1666667  -0.4166667), wk =   0.0138889
        k(   25) = (  -0.0000000   0.1666667  -0.3333333), wk =   0.0138889
        k(   26) = (   0.0000000   0.1666667  -0.2500000), wk =   0.0138889
        k(   27) = (   0.0000000   0.1666667  -0.1666667), wk =   0.0069444
        k(   28) = (   0.0000000   0.2500000   0.2500000), wk =   0.0034722
        k(   29) = (  -0.0000000   0.2500000   0.3333333), wk =   0.0138889
        k(   30) = (  -0.0000000   0.2500000   0.4166667), wk =   0.0138889
        k(   31) = (   0.0000000   0.2500000  -0.5000000), wk =   0.0138889
        k(   32) = (  -0.0000000   0.2500000  -0.4166667), wk =   0.0138889
        k(   33) = (  -0.0000000   0.2500000  -0.3333333), wk =   0.0138889
        k(   34) = (  -0.0000000   0.2500000  -0.2500000), wk =   0.0069444
        k(   35) = (  -0.0000000   0.3333333   0.3333333), wk =   0.0034722
        k(   36) = (  -0.0000000   0.3333333   0.4166667), wk =   0.0138889
        k(   37) = (   0.0000000   0.3333333  -0.5000000), wk =   0.0138889
        k(   38) = (  -0.0000000   0.3333333  -0.4166667), wk =   0.0138889
        k(   39) = (   0.0000000   0.3333333  -0.3333333), wk =   0.0069444
        k(   40) = (   0.0000000   0.4166667   0.4166667), wk =   0.0034722
        k(   41) = (   0.0000000   0.4166667  -0.5000000), wk =   0.0138889
        k(   42) = (   0.0000000   0.4166667  -0.4166667), wk =   0.0069444
        k(   43) = (   0.0000000  -0.5000000  -0.5000000), wk =   0.0017361
        k(   44) = (   0.0833333   0.1666667   0.2500000), wk =   0.0138889
        k(   45) = (   0.0833333   0.1666667   0.3333333), wk =   0.0277778
        k(   46) = (   0.0833333   0.1666667   0.4166667), wk =   0.0277778
        k(   47) = (   0.0833333   0.1666667  -0.5000000), wk =   0.0277778
        k(   48) = (   0.0833333   0.1666667  -0.4166667), wk =   0.0138889
        k(   49) = (   0.0833333   0.2500000   0.3333333), wk =   0.0138889
        k(   50) = (   0.0833333   0.2500000   0.4166667), wk =   0.0277778
        k(   51) = (   0.0833333   0.2500000  -0.5000000), wk =   0.0277778
        k(   52) = (   0.0833333   0.2500000  -0.4166667), wk =   0.0277778
        k(   53) = (   0.0833333   0.2500000  -0.3333333), wk =   0.0277778
        k(   54) = (   0.0833333   0.2500000  -0.2500000), wk =   0.0277778
        k(   55) = (   0.0833333   0.2500000  -0.1666667), wk =   0.0138889
        k(   56) = (   0.0833333   0.3333333   0.4166667), wk =   0.0138889
        k(   57) = (   0.0833333   0.3333333  -0.5000000), wk =   0.0277778
        k(   58) = (   0.0833333   0.3333333  -0.4166667), wk =   0.0277778
        k(   59) = (   0.0833333   0.3333333  -0.3333333), wk =   0.0277778
        k(   60) = (   0.0833333   0.3333333  -0.2500000), wk =   0.0138889
        k(   61) = (   0.0833333   0.4166667  -0.5000000), wk =   0.0138889
        k(   62) = (   0.0833333   0.4166667  -0.4166667), wk =   0.0277778
        k(   63) = (   0.0833333   0.4166667  -0.3333333), wk =   0.0138889
        k(   64) = (   0.0833333  -0.5000000  -0.4166667), wk =   0.0069444
        k(   65) = (   0.1666667   0.3333333  -0.5000000), wk =   0.0138889
        k(   66) = (   0.1666667   0.3333333  -0.4166667), wk =   0.0277778
        k(   67) = (   0.1666667   0.3333333  -0.3333333), wk =   0.0138889
        k(   68) = (   0.1666667   0.4166667  -0.4166667), wk =   0.0138889
        k(   69) = (   0.1666667   0.4166667  -0.3333333), wk =   0.0277778
        k(   70) = (   0.1666667   0.4166667  -0.2500000), wk =   0.0138889
        k(   71) = (   0.1666667  -0.5000000  -0.3333333), wk =   0.0069444
        k(   72) = (   0.2500000  -0.5000000  -0.2500000), wk =   0.0034722

     Dense  grid:    43143 G-vectors     FFT dimensions: (  50,  50,  50)

     Smooth grid:    15089 G-vectors     FFT dimensions: (  36,  36,  36)

     Dynamical RAM for                 wfc:       0.10 MB

     Dynamical RAM for     wfc (w. buffer):       2.31 MB

     Dynamical RAM for           str. fact:       0.33 MB

     Dynamical RAM for           local pot:       0.00 MB

     Dynamical RAM for          nlocal pot:       0.26 MB

     Dynamical RAM for                qrad:       5.74 MB

     Dynamical RAM for          rho,v,vnew:       1.30 MB

     Dynamical RAM for               rhoin:       0.43 MB

     Dynamical RAM for            rho*nmix:       2.63 MB

     Dynamical RAM for           G-vectors:       0.32 MB

     Dynamical RAM for          h,s,v(r/c):       0.15 MB

     Dynamical RAM for          <psi|beta>:       0.03 MB

     Dynamical RAM for                 psi:       0.21 MB

     Dynamical RAM for                hpsi:       0.21 MB

     Dynamical RAM for                spsi:       0.21 MB

     Dynamical RAM for      wfcinit/wfcrot:       0.30 MB

     Dynamical RAM for           addusdens:       2.35 MB

     Dynamical RAM for          addusforce:       2.29 MB

     Dynamical RAM for         addusstress:       2.45 MB

     Estimated static dynamical RAM per process >      11.90 MB

     Estimated max dynamical RAM per process >      16.99 MB

     Estimated total dynamical RAM >     824.75 MB

     Check: negative core charge=   -0.000004
     Generating pointlists ...
     new r_m :   0.2526 (alat units)  2.1636 (a.u.) for type    1
     new r_m :   0.2526 (alat units)  2.1636 (a.u.) for type    2
     new r_m :   0.2526 (alat units)  2.1636 (a.u.) for type    3
     new r_m :   0.2526 (alat units)  2.1636 (a.u.) for type    4

     The initial density is read from file :
     ./out/aiida.save/charge-density


     negative rho (up, down):  3.096E-02 3.104E-02
     Starting wfcs are   37 randomized atomic wfcs
     Checking if some PAW data can be deallocated... 
       PAW data deallocated on   42 nodes for type:  1

     total cpu time spent up to now is        1.7 secs

     per-process dynamical memory:    23.3 Mb

     Self-consistent Calculation

     iteration #  1     ecut=    40.00 Ry     beta= 0.40
     Davidson diagonalization with overlap

---- Real-time Memory Report at c_bands before calling an iterative solver
            61 MiB given to the printing process from OS
            22 MiB allocation reported by mallinfo(arena+hblkhd)
        485081 MiB available memory on the node where the printing process lives
------------------
     c_bands:  1 eigenvalues not converged
     ethr =  1.00E-05,  avg # of iterations = 12.5

     negative rho (up, down):  3.102E-02 3.109E-02

     total cpu time spent up to now is        3.2 secs

     total energy              =    -457.98394404 Ry
     estimated scf accuracy    <       0.03445583 Ry

     total magnetization       =     0.91 Bohr mag/cell
     absolute magnetization    =     3.61 Bohr mag/cell

     iteration #  2     ecut=    40.00 Ry     beta= 0.40
     Davidson diagonalization with overlap

---- Real-time Memory Report at c_bands before calling an iterative solver
            67 MiB given to the printing process from OS
            27 MiB allocation reported by mallinfo(arena+hblkhd)
        484870 MiB available memory on the node where the printing process lives
------------------
     ethr =  8.20E-05,  avg # of iterations =  4.4

     negative rho (up, down):  3.104E-02 3.108E-02

     total cpu time spent up to now is        3.9 secs

     total energy              =    -457.94032237 Ry
     estimated scf accuracy    <       1.33532796 Ry

     total magnetization       =     0.16 Bohr mag/cell
     absolute magnetization    =     3.31 Bohr mag/cell

     iteration #  3     ecut=    40.00 Ry     beta= 0.40
     Davidson diagonalization with overlap

---- Real-time Memory Report at c_bands before calling an iterative solver
            67 MiB given to the printing process from OS
            27 MiB allocation reported by mallinfo(arena+hblkhd)
        484867 MiB available memory on the node where the printing process lives
------------------
     ethr =  8.20E-05,  avg # of iterations =  4.1

     negative rho (up, down):  3.104E-02 3.106E-02

     total cpu time spent up to now is        4.5 secs

     total energy              =    -457.99979936 Ry
     estimated scf accuracy    <       0.05752623 Ry

     total magnetization       =     0.41 Bohr mag/cell
     absolute magnetization    =     4.01 Bohr mag/cell

     iteration #  4     ecut=    40.00 Ry     beta= 0.40
     Davidson diagonalization with overlap

---- Real-time Memory Report at c_bands before calling an iterative solver
            68 MiB given to the printing process from OS
            27 MiB allocation reported by mallinfo(arena+hblkhd)
        484864 MiB available memory on the node where the printing process lives
------------------
     ethr =  8.20E-05,  avg # of iterations =  1.8

     negative rho (up, down):  3.088E-02 3.114E-02

     total cpu time spent up to now is        5.0 secs

     total energy              =    -457.94891252 Ry
     estimated scf accuracy    <       0.01222644 Ry

     total magnetization       =     0.36 Bohr mag/cell
     absolute magnetization    =     4.24 Bohr mag/cell

     iteration #  5     ecut=    40.00 Ry     beta= 0.40
     Davidson diagonalization with overlap

---- Real-time Memory Report at c_bands before calling an iterative solver
            68 MiB given to the printing process from OS
            27 MiB allocation reported by mallinfo(arena+hblkhd)
        484862 MiB available memory on the node where the printing process lives
------------------
     ethr =  2.91E-05,  avg # of iterations =  3.5

     negative rho (up, down):  3.078E-02 3.123E-02

     total cpu time spent up to now is        5.7 secs

     total energy              =    -457.95828613 Ry
     estimated scf accuracy    <       0.01484077 Ry

     total magnetization       =     1.89 Bohr mag/cell
     absolute magnetization    =     2.53 Bohr mag/cell

     iteration #  6     ecut=    40.00 Ry     beta= 0.40
     Davidson diagonalization with overlap

---- Real-time Memory Report at c_bands before calling an iterative solver
            68 MiB given to the printing process from OS
            27 MiB allocation reported by mallinfo(arena+hblkhd)
        484855 MiB available memory on the node where the printing process lives
------------------
     ethr =  2.91E-05,  avg # of iterations =  3.2

     negative rho (up, down):  3.073E-02 3.140E-02

     total cpu time spent up to now is        6.3 secs

     total energy              =    -457.96775831 Ry
     estimated scf accuracy    <       0.01169434 Ry

     total magnetization       =     3.04 Bohr mag/cell
     absolute magnetization    =     3.31 Bohr mag/cell

     iteration #  7     ecut=    40.00 Ry     beta= 0.40
     Davidson diagonalization with overlap

---- Real-time Memory Report at c_bands before calling an iterative solver
            68 MiB given to the printing process from OS
            28 MiB allocation reported by mallinfo(arena+hblkhd)
        484853 MiB available memory on the node where the printing process lives
------------------
     ethr =  2.78E-05,  avg # of iterations =  2.0

     negative rho (up, down):  3.076E-02 3.619E-02

     total cpu time spent up to now is        6.9 secs

     total energy              =    -457.85423847 Ry
     estimated scf accuracy    <       0.00203800 Ry

     total magnetization       =     3.18 Bohr mag/cell
     absolute magnetization    =     3.44 Bohr mag/cell

     iteration #  8     ecut=    40.00 Ry     beta= 0.40
     Davidson diagonalization with overlap

---- Real-time Memory Report at c_bands before calling an iterative solver
            69 MiB given to the printing process from OS
            28 MiB allocation reported by mallinfo(arena+hblkhd)
        484851 MiB available memory on the node where the printing process lives
------------------
     ethr =  4.85E-06,  avg # of iterations =  9.3

     negative rho (up, down):  3.071E-02 3.144E-02

     total cpu time spent up to now is        8.2 secs

     total energy              =    -457.93096299 Ry
     estimated scf accuracy    <       0.04862969 Ry

     total magnetization       =     4.76 Bohr mag/cell
     absolute magnetization    =     4.93 Bohr mag/cell

     iteration #  9     ecut=    40.00 Ry     beta= 0.40
     Davidson diagonalization with overlap

---- Real-time Memory Report at c_bands before calling an iterative solver
            69 MiB given to the printing process from OS
            28 MiB allocation reported by mallinfo(arena+hblkhd)
        484850 MiB available memory on the node where the printing process lives
------------------
     ethr =  4.85E-06,  avg # of iterations =  8.2

     negative rho (up, down):  3.090E-02 3.118E-02

     total cpu time spent up to now is        9.3 secs

     total energy              =    -457.94006876 Ry
     estimated scf accuracy    <       0.00336017 Ry

     total magnetization       =     3.34 Bohr mag/cell
     absolute magnetization    =     3.57 Bohr mag/cell

     iteration # 10     ecut=    40.00 Ry     beta= 0.40
     Davidson diagonalization with overlap

---- Real-time Memory Report at c_bands before calling an iterative solver
            69 MiB given to the printing process from OS
            28 MiB allocation reported by mallinfo(arena+hblkhd)
        484846 MiB available memory on the node where the printing process lives
------------------
     ethr =  4.85E-06,  avg # of iterations =  7.0

     negative rho (up, down):  3.091E-02 3.116E-02

     total cpu time spent up to now is       10.4 secs

     total energy              =    -457.98738320 Ry
     estimated scf accuracy    <       0.00478933 Ry

     total magnetization       =     1.38 Bohr mag/cell
     absolute magnetization    =     2.88 Bohr mag/cell

     iteration # 11     ecut=    40.00 Ry     beta= 0.40
     Davidson diagonalization with overlap

---- Real-time Memory Report at c_bands before calling an iterative solver
            69 MiB given to the printing process from OS
            28 MiB allocation reported by mallinfo(arena+hblkhd)
        484845 MiB available memory on the node where the printing process lives
------------------
     ethr =  4.85E-06,  avg # of iterations =  1.2

     negative rho (up, down):  3.097E-02 3.110E-02

     total cpu time spent up to now is       10.9 secs

     total energy              =    -457.99226652 Ry
     estimated scf accuracy    <       0.00673548 Ry

     total magnetization       =     1.29 Bohr mag/cell
     absolute magnetization    =     3.02 Bohr mag/cell

     iteration # 12     ecut=    40.00 Ry     beta= 0.40
     Davidson diagonalization with overlap

---- Real-time Memory Report at c_bands before calling an iterative solver
            69 MiB given to the printing process from OS
            28 MiB allocation reported by mallinfo(arena+hblkhd)
        484844 MiB available memory on the node where the printing process lives
------------------
     ethr =  4.85E-06,  avg # of iterations =  3.2

     negative rho (up, down):  3.098E-02 3.109E-02

     total cpu time spent up to now is       11.5 secs

     total energy              =    -457.99703587 Ry
     estimated scf accuracy    <       0.01730965 Ry

     total magnetization       =     0.73 Bohr mag/cell
     absolute magnetization    =     3.79 Bohr mag/cell

     iteration # 13     ecut=    40.00 Ry     beta= 0.40
     Davidson diagonalization with overlap

---- Real-time Memory Report at c_bands before calling an iterative solver
            69 MiB given to the printing process from OS
            28 MiB allocation reported by mallinfo(arena+hblkhd)
        484844 MiB available memory on the node where the printing process lives
------------------
     ethr =  4.85E-06,  avg # of iterations =  1.0

     negative rho (up, down):  3.100E-02 3.105E-02

     total cpu time spent up to now is       12.0 secs

     total energy              =    -458.00125885 Ry
     estimated scf accuracy    <       0.01809767 Ry

     total magnetization       =     0.68 Bohr mag/cell
     absolute magnetization    =     3.86 Bohr mag/cell

     iteration # 14     ecut=    40.00 Ry     beta= 0.40
     Davidson diagonalization with overlap

---- Real-time Memory Report at c_bands before calling an iterative solver
            70 MiB given to the printing process from OS
            28 MiB allocation reported by mallinfo(arena+hblkhd)
        484842 MiB available memory on the node where the printing process lives
------------------
     ethr =  4.85E-06,  avg # of iterations =  1.6

     negative rho (up, down):  3.100E-02 3.104E-02

     total cpu time spent up to now is       12.5 secs

     total energy              =    -458.00229941 Ry
     estimated scf accuracy    <       0.02950704 Ry

     total magnetization       =     0.50 Bohr mag/cell
     absolute magnetization    =     4.17 Bohr mag/cell

     iteration # 15     ecut=    40.00 Ry     beta= 0.40
     Davidson diagonalization with overlap

---- Real-time Memory Report at c_bands before calling an iterative solver
            70 MiB given to the printing process from OS
            28 MiB allocation reported by mallinfo(arena+hblkhd)
        484841 MiB available memory on the node where the printing process lives
------------------
     ethr =  4.85E-06,  avg # of iterations =  1.0

     negative rho (up, down):  3.095E-02 3.109E-02

     total cpu time spent up to now is       13.0 secs

     total energy              =    -457.99022779 Ry
     estimated scf accuracy    <       0.03076245 Ry

     total magnetization       =     0.49 Bohr mag/cell
     absolute magnetization    =     4.19 Bohr mag/cell

     iteration # 16     ecut=    40.00 Ry     beta= 0.40
     Davidson diagonalization with overlap

---- Real-time Memory Report at c_bands before calling an iterative solver
            70 MiB given to the printing process from OS
            28 MiB allocation reported by mallinfo(arena+hblkhd)
        484841 MiB available memory on the node where the printing process lives
------------------
     ethr =  4.85E-06,  avg # of iterations =  2.0

     negative rho (up, down):  3.091E-02 3.112E-02

     total cpu time spent up to now is       13.5 secs

     total energy              =    -457.98662705 Ry
     estimated scf accuracy    <       0.02371252 Ry

     total magnetization       =     0.96 Bohr mag/cell
     absolute magnetization    =     3.52 Bohr mag/cell

     iteration # 17     ecut=    40.00 Ry     beta= 0.40
     Davidson diagonalization with overlap

---- Real-time Memory Report at c_bands before calling an iterative solver
            70 MiB given to the printing process from OS
            28 MiB allocation reported by mallinfo(arena+hblkhd)
        484840 MiB available memory on the node where the printing process lives
------------------
     ethr =  4.85E-06,  avg # of iterations =  2.2

     negative rho (up, down):  3.080E-02 3.126E-02

     total cpu time spent up to now is       14.1 secs

     total energy              =    -457.96112581 Ry
     estimated scf accuracy    <       0.01732940 Ry

     total magnetization       =     1.33 Bohr mag/cell
     absolute magnetization    =     3.03 Bohr mag/cell

     iteration # 18     ecut=    40.00 Ry     beta= 0.40
     Davidson diagonalization with overlap

---- Real-time Memory Report at c_bands before calling an iterative solver
            70 MiB given to the printing process from OS
            28 MiB allocation reported by mallinfo(arena+hblkhd)
        484835 MiB available memory on the node where the printing process lives
------------------
     ethr =  4.85E-06,  avg # of iterations =  5.0

     negative rho (up, down):  3.076E-02 3.133E-02

     total cpu time spent up to now is       14.8 secs

     total energy              =    -457.97387842 Ry
     estimated scf accuracy    <       0.01390549 Ry

     total magnetization       =     2.52 Bohr mag/cell
     absolute magnetization    =     2.91 Bohr mag/cell

     iteration # 19     ecut=    40.00 Ry     beta= 0.40
     Davidson diagonalization with overlap

---- Real-time Memory Report at c_bands before calling an iterative solver
            70 MiB given to the printing process from OS
            28 MiB allocation reported by mallinfo(arena+hblkhd)
        484834 MiB available memory on the node where the printing process lives
------------------
     ethr =  4.85E-06,  avg # of iterations =  2.6

     negative rho (up, down):  3.075E-02 3.135E-02

     total cpu time spent up to now is       15.5 secs

     total energy              =    -457.97479135 Ry
     estimated scf accuracy    <       0.00992987 Ry

     total magnetization       =     2.83 Bohr mag/cell
     absolute magnetization    =     3.14 Bohr mag/cell

     iteration # 20     ecut=    40.00 Ry     beta= 0.40
     Davidson diagonalization with overlap

---- Real-time Memory Report at c_bands before calling an iterative solver
            70 MiB given to the printing process from OS
            28 MiB allocation reported by mallinfo(arena+hblkhd)
        484832 MiB available memory on the node where the printing process lives
------------------
     ethr =  4.85E-06,  avg # of iterations =  1.1

     negative rho (up, down):  3.071E-02 3.145E-02

     total cpu time spent up to now is       16.0 secs

     total energy              =    -457.96997885 Ry
     estimated scf accuracy    <       0.00991624 Ry

     total magnetization       =     2.91 Bohr mag/cell
     absolute magnetization    =     3.21 Bohr mag/cell

     iteration # 21     ecut=    40.00 Ry     beta= 0.40
     Davidson diagonalization with overlap

---- Real-time Memory Report at c_bands before calling an iterative solver
            70 MiB given to the printing process from OS
            28 MiB allocation reported by mallinfo(arena+hblkhd)
        484831 MiB available memory on the node where the printing process lives
------------------
     ethr =  4.85E-06,  avg # of iterations =  3.4

     negative rho (up, down):  3.068E-02 3.149E-02

     total cpu time spent up to now is       16.7 secs

     total energy              =    -457.97048945 Ry
     estimated scf accuracy    <       0.01009779 Ry

     total magnetization       =     3.27 Bohr mag/cell
     absolute magnetization    =     3.50 Bohr mag/cell

     iteration # 22     ecut=    40.00 Ry     beta= 0.40
     Davidson diagonalization with overlap

---- Real-time Memory Report at c_bands before calling an iterative solver
            70 MiB given to the printing process from OS
            28 MiB allocation reported by mallinfo(arena+hblkhd)
        484831 MiB available memory on the node where the printing process lives
------------------
     ethr =  4.85E-06,  avg # of iterations =  1.6

     negative rho (up, down):  3.066E-02 3.154E-02

     total cpu time spent up to now is       17.2 secs

     total energy              =    -457.96822012 Ry
     estimated scf accuracy    <       0.01031042 Ry

     total magnetization       =     3.40 Bohr mag/cell
     absolute magnetization    =     3.61 Bohr mag/cell

     iteration # 23     ecut=    40.00 Ry     beta= 0.40
     Davidson diagonalization with overlap

---- Real-time Memory Report at c_bands before calling an iterative solver
            70 MiB given to the printing process from OS
            28 MiB allocation reported by mallinfo(arena+hblkhd)
        484830 MiB available memory on the node where the printing process lives
------------------
     ethr =  4.85E-06,  avg # of iterations =  2.3

     negative rho (up, down):  3.073E-02 3.143E-02

     total cpu time spent up to now is       17.8 secs

     total energy              =    -457.96928765 Ry
     estimated scf accuracy    <       0.01171098 Ry

     total magnetization       =     3.59 Bohr mag/cell
     absolute magnetization    =     3.78 Bohr mag/cell

     iteration # 24     ecut=    40.00 Ry     beta= 0.40
     Davidson diagonalization with overlap

---- Real-time Memory Report at c_bands before calling an iterative solver
            70 MiB given to the printing process from OS
            28 MiB allocation reported by mallinfo(arena+hblkhd)
        484829 MiB available memory on the node where the printing process lives
------------------
     ethr =  4.85E-06,  avg # of iterations =  2.9

     negative rho (up, down):  3.081E-02 3.129E-02

     total cpu time spent up to now is       18.4 secs

     total energy              =    -457.97134541 Ry
     estimated scf accuracy    <       0.00647423 Ry

     total magnetization       =     3.04 Bohr mag/cell
     absolute magnetization    =     3.31 Bohr mag/cell

     iteration # 25     ecut=    40.00 Ry     beta= 0.40
     Davidson diagonalization with overlap

---- Real-time Memory Report at c_bands before calling an iterative solver
            70 MiB given to the printing process from OS
            28 MiB allocation reported by mallinfo(arena+hblkhd)
        484823 MiB available memory on the node where the printing process lives
------------------
     ethr =  4.85E-06,  avg # of iterations =  4.3

     negative rho (up, down):  3.103E-02 3.097E-02

     total cpu time spent up to now is       19.1 secs

     total energy              =    -457.95753695 Ry
     estimated scf accuracy    <       0.00474652 Ry

     total magnetization       =     2.30 Bohr mag/cell
     absolute magnetization    =     2.77 Bohr mag/cell

     iteration # 26     ecut=    40.00 Ry     beta= 0.40
     Davidson diagonalization with overlap

---- Real-time Memory Report at c_bands before calling an iterative solver
            70 MiB given to the printing process from OS
            28 MiB allocation reported by mallinfo(arena+hblkhd)
        484822 MiB available memory on the node where the printing process lives
------------------
     ethr =  4.85E-06,  avg # of iterations =  6.7

     negative rho (up, down):  3.089E-02 3.115E-02

     total cpu time spent up to now is       20.1 secs

     total energy              =    -457.96950463 Ry
     estimated scf accuracy    <       0.05450868 Ry

     total magnetization       =     0.36 Bohr mag/cell
     absolute magnetization    =     4.46 Bohr mag/cell

     iteration # 27     ecut=    40.00 Ry     beta= 0.40
     Davidson diagonalization with overlap

---- Real-time Memory Report at c_bands before calling an iterative solver
            70 MiB given to the printing process from OS
            28 MiB allocation reported by mallinfo(arena+hblkhd)
        484821 MiB available memory on the node where the printing process lives
------------------
     ethr =  4.85E-06,  avg # of iterations =  4.2

     negative rho (up, down):  3.081E-02 3.127E-02

     total cpu time spent up to now is       20.8 secs

     total energy              =    -457.97110888 Ry
     estimated scf accuracy    <       0.01133775 Ry

     total magnetization       =     1.44 Bohr mag/cell
     absolute magnetization    =     2.85 Bohr mag/cell

     iteration # 28     ecut=    40.00 Ry     beta= 0.40
     Davidson diagonalization with overlap

---- Real-time Memory Report at c_bands before calling an iterative solver
            70 MiB given to the printing process from OS
            28 MiB allocation reported by mallinfo(arena+hblkhd)
        484821 MiB available memory on the node where the printing process lives
------------------
     ethr =  4.85E-06,  avg # of iterations =  4.5

     negative rho (up, down):  3.077E-02 3.134E-02

     total cpu time spent up to now is       21.6 secs

     total energy              =    -457.97380333 Ry
     estimated scf accuracy    <       0.00546830 Ry

     total magnetization       =     2.25 Bohr mag/cell
     absolute magnetization    =     2.74 Bohr mag/cell

     iteration # 29     ecut=    40.00 Ry     beta= 0.40
     Davidson diagonalization with overlap

---- Real-time Memory Report at c_bands before calling an iterative solver
            70 MiB given to the printing process from OS
            28 MiB allocation reported by mallinfo(arena+hblkhd)
        484821 MiB available memory on the node where the printing process lives
------------------
     ethr =  4.85E-06,  avg # of iterations =  2.7

     negative rho (up, down):  3.069E-02 3.148E-02

     total cpu time spent up to now is       22.2 secs

     total energy              =    -457.96479640 Ry
     estimated scf accuracy    <       0.00526994 Ry

     total magnetization       =     2.66 Bohr mag/cell
     absolute magnetization    =     3.01 Bohr mag/cell

     iteration # 30     ecut=    40.00 Ry     beta= 0.40
     Davidson diagonalization with overlap

---- Real-time Memory Report at c_bands before calling an iterative solver
            70 MiB given to the printing process from OS
            28 MiB allocation reported by mallinfo(arena+hblkhd)
        484821 MiB available memory on the node where the printing process lives
------------------
     ethr =  4.85E-06,  avg # of iterations =  4.7

     negative rho (up, down):  3.069E-02 3.147E-02

     total cpu time spent up to now is       22.9 secs

     total energy              =    -457.97196088 Ry
     estimated scf accuracy    <       0.00803771 Ry

     total magnetization       =     3.32 Bohr mag/cell
     absolute magnetization    =     3.54 Bohr mag/cell

     iteration # 31     ecut=    40.00 Ry     beta= 0.40
     Davidson diagonalization with overlap

---- Real-time Memory Report at c_bands before calling an iterative solver
            70 MiB given to the printing process from OS
            28 MiB allocation reported by mallinfo(arena+hblkhd)
        484820 MiB available memory on the node where the printing process lives
------------------
     ethr =  4.85E-06,  avg # of iterations =  1.0

     negative rho (up, down):  3.068E-02 3.149E-02

     total cpu time spent up to now is       23.4 secs

     total energy              =    -457.97113692 Ry
     estimated scf accuracy    <       0.00735917 Ry

     total magnetization       =     3.25 Bohr mag/cell
     absolute magnetization    =     3.49 Bohr mag/cell

     iteration # 32     ecut=    40.00 Ry     beta= 0.40
     Davidson diagonalization with overlap

---- Real-time Memory Report at c_bands before calling an iterative solver
            71 MiB given to the printing process from OS
            28 MiB allocation reported by mallinfo(arena+hblkhd)
        484820 MiB available memory on the node where the printing process lives
------------------
     ethr =  4.85E-06,  avg # of iterations =  1.0

     negative rho (up, down):  3.069E-02 3.147E-02

     total cpu time spent up to now is       23.9 secs

     total energy              =    -457.97179089 Ry
     estimated scf accuracy    <       0.00806151 Ry

     total magnetization       =     3.34 Bohr mag/cell
     absolute magnetization    =     3.56 Bohr mag/cell

     iteration # 33     ecut=    40.00 Ry     beta= 0.40
     Davidson diagonalization with overlap

---- Real-time Memory Report at c_bands before calling an iterative solver
            71 MiB given to the printing process from OS
            28 MiB allocation reported by mallinfo(arena+hblkhd)
        484820 MiB available memory on the node where the printing process lives
------------------
     ethr =  4.85E-06,  avg # of iterations =  1.0

     negative rho (up, down):  3.062E-02 3.223E-02

     total cpu time spent up to now is       24.4 secs

     total energy              =    -457.95998823 Ry
     estimated scf accuracy    <       0.00747374 Ry

     total magnetization       =     3.27 Bohr mag/cell
     absolute magnetization    =     3.51 Bohr mag/cell

     iteration # 34     ecut=    40.00 Ry     beta= 0.40
     Davidson diagonalization with overlap

---- Real-time Memory Report at c_bands before calling an iterative solver
            71 MiB given to the printing process from OS
            28 MiB allocation reported by mallinfo(arena+hblkhd)
        484820 MiB available memory on the node where the printing process lives
------------------
     ethr =  4.85E-06,  avg # of iterations =  4.2

     negative rho (up, down):  3.063E-02 3.239E-02

     total cpu time spent up to now is       25.1 secs

     total energy              =    -457.96431706 Ry
     estimated scf accuracy    <       0.01248579 Ry

     total magnetization       =     3.83 Bohr mag/cell
     absolute magnetization    =     4.02 Bohr mag/cell

     iteration # 35     ecut=    40.00 Ry     beta= 0.40
     Davidson diagonalization with overlap

---- Real-time Memory Report at c_bands before calling an iterative solver
            71 MiB given to the printing process from OS
            28 MiB allocation reported by mallinfo(arena+hblkhd)
        484820 MiB available memory on the node where the printing process lives
------------------
     ethr =  4.85E-06,  avg # of iterations =  1.1

     negative rho (up, down):  3.113E-02 3.082E-02

     total cpu time spent up to now is       25.6 secs

     total energy              =    -457.79878860 Ry
     estimated scf accuracy    <       0.01333365 Ry

     total magnetization       =     3.89 Bohr mag/cell
     absolute magnetization    =     4.07 Bohr mag/cell

     iteration # 36     ecut=    40.00 Ry     beta= 0.40
     Davidson diagonalization with overlap

---- Real-time Memory Report at c_bands before calling an iterative solver
            71 MiB given to the printing process from OS
            28 MiB allocation reported by mallinfo(arena+hblkhd)
        484818 MiB available memory on the node where the printing process lives
------------------
     ethr =  4.85E-06,  avg # of iterations =  8.5

     negative rho (up, down):  3.093E-02 3.109E-02

     total cpu time spent up to now is       26.8 secs

     total energy              =    -457.96631010 Ry
     estimated scf accuracy    <       0.11769770 Ry

     total magnetization       =     0.10 Bohr mag/cell
     absolute magnetization    =     5.25 Bohr mag/cell

     iteration # 37     ecut=    40.00 Ry     beta= 0.40
     Davidson diagonalization with overlap

---- Real-time Memory Report at c_bands before calling an iterative solver
            71 MiB given to the printing process from OS
            28 MiB allocation reported by mallinfo(arena+hblkhd)
        484818 MiB available memory on the node where the printing process lives
------------------
     ethr =  4.85E-06,  avg # of iterations =  5.0

     negative rho (up, down):  3.062E-02 3.219E-02

     total cpu time spent up to now is       27.7 secs

     total energy              =    -457.84652470 Ry
     estimated scf accuracy    <       0.02148116 Ry

     total magnetization       =     1.07 Bohr mag/cell
     absolute magnetization    =     3.35 Bohr mag/cell

     iteration # 38     ecut=    40.00 Ry     beta= 0.40
     Davidson diagonalization with overlap

---- Real-time Memory Report at c_bands before calling an iterative solver
            71 MiB given to the printing process from OS
            28 MiB allocation reported by mallinfo(arena+hblkhd)
        484818 MiB available memory on the node where the printing process lives
------------------
     ethr =  4.85E-06,  avg # of iterations =  7.8

     negative rho (up, down):  3.083E-02 1.099E-01

     total cpu time spent up to now is       28.8 secs

     total energy              =    -457.32670546 Ry
     estimated scf accuracy    <       0.01272751 Ry

     total magnetization       =     3.82 Bohr mag/cell
     absolute magnetization    =     4.01 Bohr mag/cell

     iteration # 39     ecut=    40.00 Ry     beta= 0.40
     Davidson diagonalization with overlap

---- Real-time Memory Report at c_bands before calling an iterative solver
            71 MiB given to the printing process from OS
            28 MiB allocation reported by mallinfo(arena+hblkhd)
        484817 MiB available memory on the node where the printing process lives
------------------
     ethr =  4.85E-06,  avg # of iterations = 11.2

     negative rho (up, down):  3.078E-02 5.101E-02

     total cpu time spent up to now is       30.2 secs

     total energy              =    -457.72181219 Ry
     estimated scf accuracy    <       0.27375560 Ry

     total magnetization       =     5.49 Bohr mag/cell
     absolute magnetization    =     5.68 Bohr mag/cell

     iteration # 40     ecut=    40.00 Ry     beta= 0.40
     Davidson diagonalization with overlap

---- Real-time Memory Report at c_bands before calling an iterative solver
            71 MiB given to the printing process from OS
            28 MiB allocation reported by mallinfo(arena+hblkhd)
        484816 MiB available memory on the node where the printing process lives
------------------
     ethr =  4.85E-06,  avg # of iterations =  6.8

     negative rho (up, down):  3.081E-02 6.767E-02

     total cpu time spent up to now is       31.2 secs

     total energy              =    -457.65664482 Ry
     estimated scf accuracy    <       0.15870595 Ry

     total magnetization       =     5.38 Bohr mag/cell
     absolute magnetization    =     5.56 Bohr mag/cell

     iteration # 41     ecut=    40.00 Ry     beta= 0.40
     Davidson diagonalization with overlap

---- Real-time Memory Report at c_bands before calling an iterative solver
            71 MiB given to the printing process from OS
            28 MiB allocation reported by mallinfo(arena+hblkhd)
        484810 MiB available memory on the node where the printing process lives
------------------
     ethr =  4.85E-06,  avg # of iterations =  4.0

     negative rho (up, down):  3.062E-02 3.154E-02

     total cpu time spent up to now is       32.0 secs

     total energy              =    -457.85112584 Ry
     estimated scf accuracy    <       0.20107057 Ry

     total magnetization       =     5.39 Bohr mag/cell
     absolute magnetization    =     5.58 Bohr mag/cell

     iteration # 42     ecut=    40.00 Ry     beta= 0.40
     Davidson diagonalization with overlap

---- Real-time Memory Report at c_bands before calling an iterative solver
            71 MiB given to the printing process from OS
            28 MiB allocation reported by mallinfo(arena+hblkhd)
        484810 MiB available memory on the node where the printing process lives
------------------
     ethr =  4.85E-06,  avg # of iterations = 10.3

     negative rho (up, down):  3.064E-02 3.445E-02

     total cpu time spent up to now is       33.4 secs

     total energy              =    -457.92524092 Ry
     estimated scf accuracy    <       0.00618341 Ry

     total magnetization       =     3.55 Bohr mag/cell
     absolute magnetization    =     3.76 Bohr mag/cell

     iteration # 43     ecut=    40.00 Ry     beta= 0.40
     Davidson diagonalization with overlap

---- Real-time Memory Report at c_bands before calling an iterative solver
            71 MiB given to the printing process from OS
            28 MiB allocation reported by mallinfo(arena+hblkhd)
        484810 MiB available memory on the node where the printing process lives
------------------
     ethr =  4.85E-06,  avg # of iterations =  6.1

     negative rho (up, down):  3.066E-02 3.540E-02

     total cpu time spent up to now is       34.4 secs

     total energy              =    -457.93044219 Ry
     estimated scf accuracy    <       0.02245818 Ry

     total magnetization       =     4.53 Bohr mag/cell
     absolute magnetization    =     4.70 Bohr mag/cell

     iteration # 44     ecut=    40.00 Ry     beta= 0.40
     Davidson diagonalization with overlap

---- Real-time Memory Report at c_bands before calling an iterative solver
            71 MiB given to the printing process from OS
            28 MiB allocation reported by mallinfo(arena+hblkhd)
        484810 MiB available memory on the node where the printing process lives
------------------
     ethr =  4.85E-06,  avg # of iterations =  3.7

     negative rho (up, down):  3.067E-02 3.601E-02

     total cpu time spent up to now is       35.1 secs

     total energy              =    -457.92024722 Ry
     estimated scf accuracy    <       0.02993530 Ry

     total magnetization       =     4.74 Bohr mag/cell
     absolute magnetization    =     4.91 Bohr mag/cell

     iteration # 45     ecut=    40.00 Ry     beta= 0.40
     Davidson diagonalization with overlap

---- Real-time Memory Report at c_bands before calling an iterative solver
            71 MiB given to the printing process from OS
            28 MiB allocation reported by mallinfo(arena+hblkhd)
        484810 MiB available memory on the node where the printing process lives
------------------
     ethr =  4.85E-06,  avg # of iterations =  2.5

     negative rho (up, down):  3.066E-02 3.755E-02

     total cpu time spent up to now is       35.8 secs

     total energy              =    -457.87962650 Ry
     estimated scf accuracy    <       0.03652254 Ry

     total magnetization       =     4.87 Bohr mag/cell
     absolute magnetization    =     5.03 Bohr mag/cell

     iteration # 46     ecut=    40.00 Ry     beta= 0.40
     Davidson diagonalization with overlap

---- Real-time Memory Report at c_bands before calling an iterative solver
            71 MiB given to the printing process from OS
            28 MiB allocation reported by mallinfo(arena+hblkhd)
        484810 MiB available memory on the node where the printing process lives
------------------
     ethr =  4.85E-06,  avg # of iterations =  6.3

     negative rho (up, down):  3.077E-02 3.130E-02

     total cpu time spent up to now is       36.7 secs

     total energy              =    -457.85746902 Ry
     estimated scf accuracy    <       0.05314646 Ry

     total magnetization       =     5.09 Bohr mag/cell
     absolute magnetization    =     5.25 Bohr mag/cell

     iteration # 47     ecut=    40.00 Ry     beta= 0.40
     Davidson diagonalization with overlap

---- Real-time Memory Report at c_bands before calling an iterative solver
            71 MiB given to the printing process from OS
            28 MiB allocation reported by mallinfo(arena+hblkhd)
        484809 MiB available memory on the node where the printing process lives
------------------
     ethr =  4.85E-06,  avg # of iterations =  9.3

     negative rho (up, down):  3.088E-02 3.118E-02

     total cpu time spent up to now is       38.1 secs

     total energy              =    -457.97953998 Ry
     estimated scf accuracy    <       0.00121659 Ry

     total magnetization       =     2.21 Bohr mag/cell
     absolute magnetization    =     2.73 Bohr mag/cell

     iteration # 48     ecut=    40.00 Ry     beta= 0.40
     Davidson diagonalization with overlap

---- Real-time Memory Report at c_bands before calling an iterative solver
            71 MiB given to the printing process from OS
            28 MiB allocation reported by mallinfo(arena+hblkhd)
        484808 MiB available memory on the node where the printing process lives
------------------
     ethr =  2.90E-06,  avg # of iterations =  4.7

     negative rho (up, down):  3.112E-02 3.088E-02

     total cpu time spent up to now is       38.9 secs

     total energy              =    -457.97633665 Ry
     estimated scf accuracy    <       0.00523276 Ry

     total magnetization       =     1.49 Bohr mag/cell
     absolute magnetization    =     2.81 Bohr mag/cell

     iteration # 49     ecut=    40.00 Ry     beta= 0.40
     Davidson diagonalization with overlap

---- Real-time Memory Report at c_bands before calling an iterative solver
            71 MiB given to the printing process from OS
            28 MiB allocation reported by mallinfo(arena+hblkhd)
        484810 MiB available memory on the node where the printing process lives
------------------
     ethr =  2.90E-06,  avg # of iterations =  7.5
     Minimization algorithm failed to find Fermi energy: reverting to bisection
     Possible cause: smearing is larger than the electronic band-gap.

     negative rho (up, down):  3.070E-02 3.603E-02

     total cpu time spent up to now is       39.9 secs

     total energy              =    -457.41639412 Ry
     estimated scf accuracy    <       0.07932951 Ry

     total magnetization       =     0.13 Bohr mag/cell
     absolute magnetization    =     5.17 Bohr mag/cell

     iteration # 50     ecut=    40.00 Ry     beta= 0.40
     Davidson diagonalization with overlap

---- Real-time Memory Report at c_bands before calling an iterative solver
            71 MiB given to the printing process from OS
            28 MiB allocation reported by mallinfo(arena+hblkhd)
        484810 MiB available memory on the node where the printing process lives
------------------
     ethr =  2.90E-06,  avg # of iterations = 11.4

     negative rho (up, down):  3.069E-02 3.538E-02

     total cpu time spent up to now is       41.3 secs

     total energy              =    -457.93243204 Ry
     estimated scf accuracy    <       0.04263667 Ry

     total magnetization       =     4.84 Bohr mag/cell
     absolute magnetization    =     5.01 Bohr mag/cell

     iteration # 51     ecut=    40.00 Ry     beta= 0.40
     Davidson diagonalization with overlap

---- Real-time Memory Report at c_bands before calling an iterative solver
            71 MiB given to the printing process from OS
            28 MiB allocation reported by mallinfo(arena+hblkhd)
        484810 MiB available memory on the node where the printing process lives
------------------
     ethr =  2.90E-06,  avg # of iterations =  2.6

     negative rho (up, down):  3.069E-02 3.517E-02

     total cpu time spent up to now is       42.0 secs

     total energy              =    -457.93615557 Ry
     estimated scf accuracy    <       0.03597954 Ry

     total magnetization       =     4.71 Bohr mag/cell
     absolute magnetization    =     4.88 Bohr mag/cell

     iteration # 52     ecut=    40.00 Ry     beta= 0.40
     Davidson diagonalization with overlap

---- Real-time Memory Report at c_bands before calling an iterative solver
            71 MiB given to the printing process from OS
            28 MiB allocation reported by mallinfo(arena+hblkhd)
        484810 MiB available memory on the node where the printing process lives
------------------
     ethr =  2.90E-06,  avg # of iterations =  1.4

     negative rho (up, down):  3.068E-02 3.391E-02

     total cpu time spent up to now is       42.5 secs

     total energy              =    -457.94999989 Ry
     estimated scf accuracy    <       0.03427394 Ry

     total magnetization       =     4.67 Bohr mag/cell
     absolute magnetization    =     4.84 Bohr mag/cell

     iteration # 53     ecut=    40.00 Ry     beta= 0.40
     Davidson diagonalization with overlap

---- Real-time Memory Report at c_bands before calling an iterative solver
            71 MiB given to the printing process from OS
            28 MiB allocation reported by mallinfo(arena+hblkhd)
        484810 MiB available memory on the node where the printing process lives
------------------
     ethr =  2.90E-06,  avg # of iterations =  5.5

     negative rho (up, down):  3.071E-02 3.535E-02

     total cpu time spent up to now is       43.4 secs

     total energy              =    -457.92986084 Ry
     estimated scf accuracy    <       0.02647773 Ry

     total magnetization       =     4.36 Bohr mag/cell
     absolute magnetization    =     4.54 Bohr mag/cell

     iteration # 54     ecut=    40.00 Ry     beta= 0.40
     Davidson diagonalization with overlap

---- Real-time Memory Report at c_bands before calling an iterative solver
            71 MiB given to the printing process from OS
            28 MiB allocation reported by mallinfo(arena+hblkhd)
        484809 MiB available memory on the node where the printing process lives
------------------
     ethr =  2.90E-06,  avg # of iterations =  4.8

     negative rho (up, down):  3.068E-02 3.456E-02

     total cpu time spent up to now is       44.2 secs

     total energy              =    -457.94360760 Ry
     estimated scf accuracy    <       0.04043296 Ry

     total magnetization       =     4.68 Bohr mag/cell
     absolute magnetization    =     4.85 Bohr mag/cell

     iteration # 55     ecut=    40.00 Ry     beta= 0.40
     Davidson diagonalization with overlap

---- Real-time Memory Report at c_bands before calling an iterative solver
            71 MiB given to the printing process from OS
            28 MiB allocation reported by mallinfo(arena+hblkhd)
        484809 MiB available memory on the node where the printing process lives
------------------
     ethr =  2.90E-06,  avg # of iterations =  3.1

     negative rho (up, down):  3.069E-02 3.571E-02

     total cpu time spent up to now is       44.9 secs

     total energy              =    -457.92458706 Ry
     estimated scf accuracy    <       0.03018684 Ry

     total magnetization       =     4.53 Bohr mag/cell
     absolute magnetization    =     4.70 Bohr mag/cell

     iteration # 56     ecut=    40.00 Ry     beta= 0.40
     Davidson diagonalization with overlap

---- Real-time Memory Report at c_bands before calling an iterative solver
            71 MiB given to the printing process from OS
            28 MiB allocation reported by mallinfo(arena+hblkhd)
        484807 MiB available memory on the node where the printing process lives
------------------
     ethr =  2.90E-06,  avg # of iterations =  4.0

     negative rho (up, down):  3.066E-02 3.528E-02

     total cpu time spent up to now is       45.7 secs

     total energy              =    -457.93315281 Ry
     estimated scf accuracy    <       0.03640973 Ry

     total magnetization       =     4.80 Bohr mag/cell
     absolute magnetization    =     4.97 Bohr mag/cell

     iteration # 57     ecut=    40.00 Ry     beta= 0.40
     Davidson diagonalization with overlap

---- Real-time Memory Report at c_bands before calling an iterative solver
            71 MiB given to the printing process from OS
            28 MiB allocation reported by mallinfo(arena+hblkhd)
        484806 MiB available memory on the node where the printing process lives
------------------
     ethr =  2.90E-06,  avg # of iterations =  1.8

     negative rho (up, down):  3.077E-02 3.925E-02

     total cpu time spent up to now is       46.2 secs

     total energy              =    -457.81482989 Ry
     estimated scf accuracy    <       0.02570808 Ry

     total magnetization       =     4.76 Bohr mag/cell
     absolute magnetization    =     4.93 Bohr mag/cell

     iteration # 58     ecut=    40.00 Ry     beta= 0.40
     Davidson diagonalization with overlap

---- Real-time Memory Report at c_bands before calling an iterative solver
            71 MiB given to the printing process from OS
            28 MiB allocation reported by mallinfo(arena+hblkhd)
        484806 MiB available memory on the node where the printing process lives
------------------
     ethr =  2.90E-06,  avg # of iterations =  9.3

     negative rho (up, down):  3.064E-02 3.169E-02

     total cpu time spent up to now is       47.5 secs

     total energy              =    -457.88991677 Ry
     estimated scf accuracy    <       0.09431582 Ry

     total magnetization       =     5.29 Bohr mag/cell
     absolute magnetization    =     5.47 Bohr mag/cell

     iteration # 59     ecut=    40.00 Ry     beta= 0.40
     Davidson diagonalization with overlap

---- Real-time Memory Report at c_bands before calling an iterative solver
            71 MiB given to the printing process from OS
            28 MiB allocation reported by mallinfo(arena+hblkhd)
        484805 MiB available memory on the node where the printing process lives
------------------
     ethr =  2.90E-06,  avg # of iterations = 10.3

     negative rho (up, down):  3.065E-02 3.166E-02

     total cpu time spent up to now is       48.9 secs

     total energy              =    -457.97147300 Ry
     estimated scf accuracy    <       0.01060894 Ry

     total magnetization       =     3.41 Bohr mag/cell
     absolute magnetization    =     3.65 Bohr mag/cell

     iteration # 60     ecut=    40.00 Ry     beta= 0.40
     Davidson diagonalization with overlap

---- Real-time Memory Report at c_bands before calling an iterative solver
            71 MiB given to the printing process from OS
            28 MiB allocation reported by mallinfo(arena+hblkhd)
        484805 MiB available memory on the node where the printing process lives
------------------
     ethr =  2.90E-06,  avg # of iterations =  1.3

     negative rho (up, down):  3.066E-02 3.162E-02

     total cpu time spent up to now is       49.4 secs

     total energy              =    -457.97212723 Ry
     estimated scf accuracy    <       0.00862777 Ry

     total magnetization       =     3.31 Bohr mag/cell
     absolute magnetization    =     3.56 Bohr mag/cell

     iteration # 61     ecut=    40.00 Ry     beta= 0.40
     Davidson diagonalization with overlap

---- Real-time Memory Report at c_bands before calling an iterative solver
            71 MiB given to the printing process from OS
            28 MiB allocation reported by mallinfo(arena+hblkhd)
        484804 MiB available memory on the node where the printing process lives
------------------
     ethr =  2.90E-06,  avg # of iterations =  1.5

     negative rho (up, down):  3.072E-02 3.148E-02

     total cpu time spent up to now is       49.9 secs

     total energy              =    -457.97272601 Ry
     estimated scf accuracy    <       0.00665048 Ry

     total magnetization       =     3.22 Bohr mag/cell
     absolute magnetization    =     3.48 Bohr mag/cell

     iteration # 62     ecut=    40.00 Ry     beta= 0.40
     Davidson diagonalization with overlap

---- Real-time Memory Report at c_bands before calling an iterative solver
            71 MiB given to the printing process from OS
            28 MiB allocation reported by mallinfo(arena+hblkhd)
        484803 MiB available memory on the node where the printing process lives
------------------
     ethr =  2.90E-06,  avg # of iterations =  3.9

     negative rho (up, down):  3.079E-02 3.136E-02

     total cpu time spent up to now is       50.7 secs

     total energy              =    -457.97506986 Ry
     estimated scf accuracy    <       0.00213279 Ry

     total magnetization       =     2.82 Bohr mag/cell
     absolute magnetization    =     3.16 Bohr mag/cell

     iteration # 63     ecut=    40.00 Ry     beta= 0.40
     Davidson diagonalization with overlap

---- Real-time Memory Report at c_bands before calling an iterative solver
            71 MiB given to the printing process from OS
            28 MiB allocation reported by mallinfo(arena+hblkhd)
        484802 MiB available memory on the node where the printing process lives
------------------
     ethr =  2.90E-06,  avg # of iterations =  4.0

     negative rho (up, down):  3.085E-02 3.128E-02

     total cpu time spent up to now is       51.5 secs

     total energy              =    -457.97915407 Ry
     estimated scf accuracy    <       0.00109383 Ry

     total magnetization       =     2.34 Bohr mag/cell
     absolute magnetization    =     2.82 Bohr mag/cell

     iteration # 64     ecut=    40.00 Ry     beta= 0.40
     Davidson diagonalization with overlap

---- Real-time Memory Report at c_bands before calling an iterative solver
            71 MiB given to the printing process from OS
            28 MiB allocation reported by mallinfo(arena+hblkhd)
        484802 MiB available memory on the node where the printing process lives
------------------
     ethr =  2.60E-06,  avg # of iterations =  4.6

     negative rho (up, down):  3.076E-02 3.134E-02

     total cpu time spent up to now is       52.3 secs

     total energy              =    -457.96841815 Ry
     estimated scf accuracy    <       0.00203922 Ry

[...]
            28 MiB allocation reported by mallinfo(arena+hblkhd)
        484796 MiB available memory on the node where the printing process lives
------------------
     ethr =  2.45E-06,  avg # of iterations =  5.3

     negative rho (up, down):  3.062E-02 3.184E-02

     total cpu time spent up to now is       64.0 secs

     total energy              =    -457.96576263 Ry
     estimated scf accuracy    <       0.00636368 Ry

     total magnetization       =     3.43 Bohr mag/cell
     absolute magnetization    =     3.65 Bohr mag/cell

     iteration # 81     ecut=    40.00 Ry     beta= 0.40
     Davidson diagonalization with overlap

---- Real-time Memory Report at c_bands before calling an iterative solver
            72 MiB given to the printing process from OS
            28 MiB allocation reported by mallinfo(arena+hblkhd)
        484796 MiB available memory on the node where the printing process lives
------------------
     ethr =  2.45E-06,  avg # of iterations =  2.7

     negative rho (up, down):  3.063E-02 3.412E-02

     total cpu time spent up to now is       64.6 secs

     total energy              =    -457.93839855 Ry
     estimated scf accuracy    <       0.00987082 Ry

     total magnetization       =     3.73 Bohr mag/cell
     absolute magnetization    =     3.92 Bohr mag/cell

     iteration # 82     ecut=    40.00 Ry     beta= 0.40
     Davidson diagonalization with overlap

---- Real-time Memory Report at c_bands before calling an iterative solver
            72 MiB given to the printing process from OS
            28 MiB allocation reported by mallinfo(arena+hblkhd)
        484795 MiB available memory on the node where the printing process lives
------------------
     ethr =  2.45E-06,  avg # of iterations =  6.5

     negative rho (up, down):  3.064E-02 3.425E-02

     total cpu time spent up to now is       65.7 secs

     total energy              =    -457.94698051 Ry
     estimated scf accuracy    <       0.01583065 Ry

     total magnetization       =     4.48 Bohr mag/cell
     absolute magnetization    =     4.65 Bohr mag/cell

     iteration # 83     ecut=    40.00 Ry     beta= 0.40
     Davidson diagonalization with overlap

---- Real-time Memory Report at c_bands before calling an iterative solver
            72 MiB given to the printing process from OS
            28 MiB allocation reported by mallinfo(arena+hblkhd)
        484795 MiB available memory on the node where the printing process lives
------------------
     ethr =  2.45E-06,  avg # of iterations =  1.1

     negative rho (up, down):  3.070E-02 3.151E-02

     total cpu time spent up to now is       66.1 secs

     total energy              =    -457.93762538 Ry
     estimated scf accuracy    <       0.01852740 Ry

     total magnetization       =     4.52 Bohr mag/cell
     absolute magnetization    =     4.69 Bohr mag/cell

     iteration # 84     ecut=    40.00 Ry     beta= 0.40
     Davidson diagonalization with overlap

---- Real-time Memory Report at c_bands before calling an iterative solver
            72 MiB given to the printing process from OS
            28 MiB allocation reported by mallinfo(arena+hblkhd)
        484794 MiB available memory on the node where the printing process lives
------------------
     ethr =  2.45E-06,  avg # of iterations =  8.0

     negative rho (up, down):  3.069E-02 3.153E-02

     total cpu time spent up to now is       67.3 secs

     total energy              =    -457.97370089 Ry
     estimated scf accuracy    <       0.00172918 Ry

     total magnetization       =     2.84 Bohr mag/cell
     absolute magnetization    =     3.16 Bohr mag/cell

     iteration # 85     ecut=    40.00 Ry     beta= 0.40
     Davidson diagonalization with overlap

---- Real-time Memory Report at c_bands before calling an iterative solver
            72 MiB given to the printing process from OS
            28 MiB allocation reported by mallinfo(arena+hblkhd)
        484794 MiB available memory on the node where the printing process lives
------------------
     ethr =  2.45E-06,  avg # of iterations =  1.1

     negative rho (up, down):  3.068E-02 3.154E-02

     total cpu time spent up to now is       67.8 secs

     total energy              =    -457.97359709 Ry
     estimated scf accuracy    <       0.00157227 Ry

     total magnetization       =     2.92 Bohr mag/cell
     absolute magnetization    =     3.22 Bohr mag/cell

     iteration # 86     ecut=    40.00 Ry     beta= 0.40
     Davidson diagonalization with overlap

---- Real-time Memory Report at c_bands before calling an iterative solver
            72 MiB given to the printing process from OS
            28 MiB allocation reported by mallinfo(arena+hblkhd)
        484793 MiB available memory on the node where the printing process lives
------------------
     ethr =  2.45E-06,  avg # of iterations =  1.0

     negative rho (up, down):  3.075E-02 3.142E-02

     total cpu time spent up to now is       68.3 secs

     total energy              =    -457.97395489 Ry
     estimated scf accuracy    <       0.00160889 Ry

     total magnetization       =     2.95 Bohr mag/cell
     absolute magnetization    =     3.24 Bohr mag/cell

     iteration # 87     ecut=    40.00 Ry     beta= 0.40
     Davidson diagonalization with overlap

---- Real-time Memory Report at c_bands before calling an iterative solver
            72 MiB given to the printing process from OS
            28 MiB allocation reported by mallinfo(arena+hblkhd)
        484793 MiB available memory on the node where the printing process lives
------------------
     ethr =  2.45E-06,  avg # of iterations =  3.5

     negative rho (up, down):  3.080E-02 3.133E-02

     total cpu time spent up to now is       69.0 secs

     total energy              =    -457.97745194 Ry
     estimated scf accuracy    <       0.00121738 Ry

     total magnetization       =     2.52 Bohr mag/cell
     absolute magnetization    =     2.92 Bohr mag/cell

     iteration # 88     ecut=    40.00 Ry     beta= 0.40
     Davidson diagonalization with overlap

---- Real-time Memory Report at c_bands before calling an iterative solver
            72 MiB given to the printing process from OS
            28 MiB allocation reported by mallinfo(arena+hblkhd)
        484792 MiB available memory on the node where the printing process lives
------------------
     ethr =  2.45E-06,  avg # of iterations =  3.3

     negative rho (up, down):  3.087E-02 3.120E-02

     total cpu time spent up to now is       69.7 secs

     total energy              =    -457.97962471 Ry
     estimated scf accuracy    <       0.00127658 Ry

     total magnetization       =     2.17 Bohr mag/cell
     absolute magnetization    =     2.70 Bohr mag/cell

     iteration # 89     ecut=    40.00 Ry     beta= 0.40
     Davidson diagonalization with overlap

---- Real-time Memory Report at c_bands before calling an iterative solver
            72 MiB given to the printing process from OS
            28 MiB allocation reported by mallinfo(arena+hblkhd)
        484792 MiB available memory on the node where the printing process lives
------------------
     ethr =  2.45E-06,  avg # of iterations =  5.3

     negative rho (up, down):  3.074E-02 3.141E-02

     total cpu time spent up to now is       70.5 secs

     total energy              =    -457.95477247 Ry
     estimated scf accuracy    <       0.00428823 Ry

     total magnetization       =     1.43 Bohr mag/cell
     absolute magnetization    =     2.79 Bohr mag/cell

     iteration # 90     ecut=    40.00 Ry     beta= 0.40
     Davidson diagonalization with overlap

---- Real-time Memory Report at c_bands before calling an iterative solver
            72 MiB given to the printing process from OS
            28 MiB allocation reported by mallinfo(arena+hblkhd)
        484792 MiB available memory on the node where the printing process lives
------------------
     ethr =  2.45E-06,  avg # of iterations =  5.5

     negative rho (up, down):  3.098E-02 3.102E-02

     total cpu time spent up to now is       71.4 secs

     total energy              =    -457.95050606 Ry
     estimated scf accuracy    <       0.00083321 Ry

     total magnetization       =     2.71 Bohr mag/cell
     absolute magnetization    =     3.06 Bohr mag/cell

     iteration # 91     ecut=    40.00 Ry     beta= 0.40
     Davidson diagonalization with overlap

---- Real-time Memory Report at c_bands before calling an iterative solver
            72 MiB given to the printing process from OS
            28 MiB allocation reported by mallinfo(arena+hblkhd)
        484791 MiB available memory on the node where the printing process lives
------------------
     ethr =  1.98E-06,  avg # of iterations =  7.1

     negative rho (up, down):  3.087E-02 3.119E-02

     total cpu time spent up to now is       72.4 secs

     total energy              =    -457.97334589 Ry
     estimated scf accuracy    <       0.03217110 Ry

     total magnetization       =     0.68 Bohr mag/cell
     absolute magnetization    =     3.82 Bohr mag/cell

     iteration # 92     ecut=    40.00 Ry     beta= 0.40
     Davidson diagonalization with overlap

---- Real-time Memory Report at c_bands before calling an iterative solver
            72 MiB given to the printing process from OS
            28 MiB allocation reported by mallinfo(arena+hblkhd)
        484791 MiB available memory on the node where the printing process lives
------------------
     ethr =  1.98E-06,  avg # of iterations =  4.8

     negative rho (up, down):  3.067E-02 3.153E-02

     total cpu time spent up to now is       73.2 secs

     total energy              =    -457.92790916 Ry
     estimated scf accuracy    <       0.00544862 Ry

     total magnetization       =     1.61 Bohr mag/cell
     absolute magnetization    =     2.60 Bohr mag/cell

     iteration # 93     ecut=    40.00 Ry     beta= 0.40
     Davidson diagonalization with overlap

---- Real-time Memory Report at c_bands before calling an iterative solver
            72 MiB given to the printing process from OS
            28 MiB allocation reported by mallinfo(arena+hblkhd)
        484791 MiB available memory on the node where the printing process lives
------------------
     ethr =  1.98E-06,  avg # of iterations =  7.4

     negative rho (up, down):  3.064E-02 3.157E-02

     total cpu time spent up to now is       74.3 secs

     total energy              =    -457.96921597 Ry
     estimated scf accuracy    <       0.00356303 Ry

     total magnetization       =     3.37 Bohr mag/cell
     absolute magnetization    =     3.59 Bohr mag/cell

     iteration # 94     ecut=    40.00 Ry     beta= 0.40
     Davidson diagonalization with overlap

---- Real-time Memory Report at c_bands before calling an iterative solver
            72 MiB given to the printing process from OS
            28 MiB allocation reported by mallinfo(arena+hblkhd)
        484791 MiB available memory on the node where the printing process lives
------------------
     ethr =  1.98E-06,  avg # of iterations =  1.8

     negative rho (up, down):  3.065E-02 3.156E-02

     total cpu time spent up to now is       74.8 secs

     total energy              =    -457.96982352 Ry
     estimated scf accuracy    <       0.00408779 Ry

     total magnetization       =     3.52 Bohr mag/cell
     absolute magnetization    =     3.72 Bohr mag/cell

     iteration # 95     ecut=    40.00 Ry     beta= 0.40
     Davidson diagonalization with overlap

---- Real-time Memory Report at c_bands before calling an iterative solver
            72 MiB given to the printing process from OS
            28 MiB allocation reported by mallinfo(arena+hblkhd)
        484790 MiB available memory on the node where the printing process lives
------------------
     ethr =  1.98E-06,  avg # of iterations =  1.0

     negative rho (up, down):  3.064E-02 3.157E-02

     total cpu time spent up to now is       75.3 secs

     total energy              =    -457.96955259 Ry
     estimated scf accuracy    <       0.00372983 Ry

     total magnetization       =     3.47 Bohr mag/cell
     absolute magnetization    =     3.68 Bohr mag/cell

     iteration # 96     ecut=    40.00 Ry     beta= 0.40
     Davidson diagonalization with overlap

---- Real-time Memory Report at c_bands before calling an iterative solver
            72 MiB given to the printing process from OS
            28 MiB allocation reported by mallinfo(arena+hblkhd)
        484789 MiB available memory on the node where the printing process lives
------------------
     ethr =  1.98E-06,  avg # of iterations =  1.0

     negative rho (up, down):  3.060E-02 3.234E-02

     total cpu time spent up to now is       75.8 secs

     total energy              =    -457.96126981 Ry
     estimated scf accuracy    <       0.00380256 Ry

     total magnetization       =     3.50 Bohr mag/cell
     absolute magnetization    =     3.71 Bohr mag/cell

     iteration # 97     ecut=    40.00 Ry     beta= 0.40
     Davidson diagonalization with overlap

---- Real-time Memory Report at c_bands before calling an iterative solver
            72 MiB given to the printing process from OS
            28 MiB allocation reported by mallinfo(arena+hblkhd)
        484789 MiB available memory on the node where the printing process lives
------------------
     ethr =  1.98E-06,  avg # of iterations =  4.9

     negative rho (up, down):  3.061E-02 3.283E-02

     total cpu time spent up to now is       76.6 secs

     total energy              =    -457.96001323 Ry
     estimated scf accuracy    <       0.00645617 Ry

     total magnetization       =     3.93 Bohr mag/cell
     absolute magnetization    =     4.11 Bohr mag/cell

     iteration # 98     ecut=    40.00 Ry     beta= 0.40
     Davidson diagonalization with overlap

---- Real-time Memory Report at c_bands before calling an iterative solver
            72 MiB given to the printing process from OS
            28 MiB allocation reported by mallinfo(arena+hblkhd)
        484789 MiB available memory on the node where the printing process lives
------------------
     ethr =  1.98E-06,  avg # of iterations =  2.9

     negative rho (up, down):  3.062E-02 3.405E-02

     total cpu time spent up to now is       77.3 secs

     total energy              =    -457.94630181 Ry
     estimated scf accuracy    <       0.00853402 Ry

     total magnetization       =     4.11 Bohr mag/cell
     absolute magnetization    =     4.28 Bohr mag/cell

     iteration # 99     ecut=    40.00 Ry     beta= 0.40
     Davidson diagonalization with overlap

---- Real-time Memory Report at c_bands before calling an iterative solver
            72 MiB given to the printing process from OS
            28 MiB allocation reported by mallinfo(arena+hblkhd)
        484788 MiB available memory on the node where the printing process lives
------------------
     ethr =  1.98E-06,  avg # of iterations =  6.3

     negative rho (up, down):  3.060E-02 3.223E-02

     total cpu time spent up to now is       78.2 secs

     total energy              =    -457.95891315 Ry
     estimated scf accuracy    <       0.01333731 Ry

     total magnetization       =     4.49 Bohr mag/cell
     absolute magnetization    =     4.65 Bohr mag/cell

     iteration #100     ecut=    40.00 Ry     beta= 0.40
     Davidson diagonalization with overlap

---- Real-time Memory Report at c_bands before calling an iterative solver
            72 MiB given to the printing process from OS
            28 MiB allocation reported by mallinfo(arena+hblkhd)
        484783 MiB available memory on the node where the printing process lives
------------------
     ethr =  1.98E-06,  avg # of iterations =  5.7

     negative rho (up, down):  3.124E-02 3.068E-02

     total cpu time spent up to now is       79.2 secs

     total energy              =    -457.71788507 Ry
     estimated scf accuracy    <       0.00398343 Ry

     total magnetization       =     3.86 Bohr mag/cell
     absolute magnetization    =     4.04 Bohr mag/cell

     End of self-consistent calculation

     convergence NOT achieved after 100 iterations: stopping

     Writing config to output data dir ./out/aiida.save/ :
     XML data file, charge density

     init_run     :      0.95s CPU      1.09s WALL (       1 calls)
     electrons    :     74.34s CPU     77.57s WALL (       1 calls)

     Called by init_run:
     wfcinit      :      0.18s CPU      0.25s WALL (       1 calls)
     wfcinit:atom :      0.00s CPU      0.00s WALL (      21 calls)
     wfcinit:wfcr :      0.17s CPU      0.23s WALL (      21 calls)
     potinit      :      0.40s CPU      0.45s WALL (       1 calls)
     hinit0       :      0.33s CPU      0.34s WALL (       1 calls)

     Called by electrons:
     c_bands      :     54.91s CPU     57.49s WALL (     100 calls)
     sum_band     :      6.60s CPU      7.01s WALL (     100 calls)
     v_of_rho     :      1.70s CPU      1.76s WALL (     101 calls)
     v_h          :      0.04s CPU      0.04s WALL (     101 calls)
     v_xc         :      1.66s CPU      1.72s WALL (     101 calls)
     newd         :      0.95s CPU      0.96s WALL (     101 calls)
     PAW_pot      :      9.69s CPU      9.69s WALL (     101 calls)
     mix_rho      :      0.25s CPU      0.26s WALL (     100 calls)

     Called by c_bands:
     init_us_2    :      0.46s CPU      0.48s WALL (    4221 calls)
     init_us_2:cp :      0.45s CPU      0.47s WALL (    4221 calls)
     cegterg      :     36.59s CPU     38.56s WALL (    2100 calls)

     Called by sum_band:
     sum_band:wei :      0.14s CPU      0.14s WALL (     100 calls)
     sum_band:loo :      4.63s CPU      4.98s WALL (     100 calls)
     sum_band:buf :      0.03s CPU      0.04s WALL (    2100 calls)
     sum_band:ini :      0.22s CPU      0.23s WALL (    2100 calls)
     sum_band:cal :      0.44s CPU      0.48s WALL (    2100 calls)
     sum_band:bec :      0.03s CPU      0.04s WALL (    2100 calls)
     addusdens    :      1.24s CPU      1.25s WALL (     100 calls)
                                        0.00s GPU  (     100 calls)
     addusd:skk   :      0.00s CPU      0.00s WALL (     400 calls)
                                        0.00s GPU  (     400 calls)

     Called by *egterg:
     cdiaghg      :      7.96s CPU      8.20s WALL (    9188 calls)
     cegterg:over :      1.31s CPU      1.39s WALL (    7088 calls)
     cegterg:upda :      0.62s CPU      0.63s WALL (    7088 calls)
     cegterg:last :      1.17s CPU      1.19s WALL (    4397 calls)
     h_psi        :     23.71s CPU     25.31s WALL (    9209 calls)
     s_psi        :      1.05s CPU      1.09s WALL (    9209 calls)
     g_psi        :      0.07s CPU      0.07s WALL (    7088 calls)

     Called by h_psi:
     h_psi:calbec :      1.47s CPU      1.56s WALL (    9209 calls)
     vloc_psi     :     21.01s CPU     22.47s WALL (    9209 calls)
     add_vuspsi   :      1.11s CPU      1.15s WALL (    9209 calls)

     General routines
     calbec       :      1.89s CPU      2.00s WALL (   11309 calls)
     fft          :      0.83s CPU      0.92s WALL (    2523 calls)
     ffts         :      0.30s CPU      0.31s WALL (     402 calls)
     fftw         :     20.79s CPU     22.14s WALL (  381854 calls)
     interpolate  :      0.35s CPU      0.36s WALL (     202 calls)
     davcio       :      0.00s CPU      0.14s WALL (      39 calls)

     Parallel routines

     PAW routines
     PAW_pot      :      9.69s CPU      9.69s WALL (     101 calls)
     PAW_symme    :      0.07s CPU      0.07s WALL (     200 calls)

     PWSCF        :   1m15.85s CPU   1m19.59s WALL


   This run was terminated on:   4: 7: 5  30Nov2023            

=------------------------------------------------------------------------------=
   JOB DONE.
=------------------------------------------------------------------------------=
