
     Program PWSCF v.7.2 starts on 23Oct2023 at 17:43:12 

     This program is part of the open-source Quantum ESPRESSO suite
     for quantum simulation of materials; please cite
         "P. Giannozzi et al., J. Phys.:Condens. Matter 21 395502 (2009);
         "P. Giannozzi et al., J. Phys.:Condens. Matter 29 465901 (2017);
         "P. Giannozzi et al., J. Chem. Phys. 152 154105 (2020);
          URL http://www.quantum-espresso.org", 
     in publications or presentations arising from this work. More details at
     http://www.quantum-espresso.org/quote

     Parallel version (MPI & OpenMP), running on      12 processor cores
     Number of MPI processes:                 1
     Threads/MPI process:                    12

     MPI processes distributed on     1 nodes
     60522 MiB available memory on the printing compute node when the environment starts
 
     Reading input from aiida.in

     Current dimensions of program PWSCF are:
     Max number of different atomic species (ntypx) = 10
     Max number of k-points (npk) =  40000
     Max angular momentum in pseudopotentials (lmaxx) =  4
     Message from routine setup:
     using ibrav=0 with symmetry is DISCOURAGED, use correct ibrav instead
 
     Subspace diagonalization in iterative solution of the eigenvalue problem:
     a serial algorithm will be used

 
     G-vector sticks info
     --------------------
     sticks:   dense  smooth     PW     G-vecs:    dense   smooth      PW
     Sum        3211    1611    459               277737    98241   14819
 
     Using Slab Decomposition
 


     bravais-lattice index     =            0
     lattice parameter (alat)  =      10.7030  a.u.
     unit-cell volume          =    1782.2271 (a.u.)^3
     number of atoms/cell      =            4
     number of atomic types    =            2
     number of electrons       =        54.00
     number of Kohn-Sham states=           32
     kinetic-energy cutoff     =      55.0000  Ry
     charge density cutoff     =     440.0000  Ry
     scf convergence threshold =      8.0E-10
     mixing beta               =       0.4000
     number of iterations used =            8  plain     mixing
     Exchange-correlation= SLA  PW   PSX  PSC
                           (   1   4  10   8   0   0   0)

     GPU acceleration is ACTIVE.


     GPU used by master process:

        Device Number: 0
        Device name: Tesla P100-PCIE-16GB
        Compute capability : 60
        Ratio of single to double precision performance  : 2
        Memory Clock Rate (KHz): 715000
        Memory Bus Width (bits): 4096
        Peak Memory Bandwidth (GB/s): 732.16

     celldm(1)=  10.703031  celldm(2)=   0.000000  celldm(3)=   0.000000
     celldm(4)=   0.000000  celldm(5)=   0.000000  celldm(6)=   0.000000

     crystal axes: (cart. coord. in units of alat)
               a(1) = (   1.000000   0.000000   0.000000 )  
               a(2) = (   0.000000   0.802341   0.000000 )  
               a(3) = (  -0.209620   0.000000   1.811689 )  

     reciprocal axes: (cart. coord. in units 2 pi/alat)
               b(1) = (  1.000000 -0.000000  0.115704 )  
               b(2) = (  0.000000  1.246353 -0.000000 )  
               b(3) = (  0.000000  0.000000  0.551971 )  


     PseudoPot. # 1 for Hf read from file:
     ./pseudo/Hf-sp.oncvpsp.upf
     MD5 check sum: 3619c98de2ee908b1d969add25be4863
     Pseudo is Norm-conserving + core correction, Zval = 12.0
     Generated using ONCVPSP code by D. R. Hamann
     Using radial grid of 1656 points,  8 beta functions with: 
                l(1) =   0
                l(2) =   0
                l(3) =   1
                l(4) =   1
                l(5) =   2
                l(6) =   2
                l(7) =   3
                l(8) =   3

     PseudoPot. # 2 for Ir read from file:
     ./pseudo/ir_pbesol_v1.2.uspp.F.UPF
     MD5 check sum: 965d8bb5733ec2587acb56a50491f36d
     Pseudo is Ultrasoft + core correction, Zval = 15.0
     Generated by new atomic code, or converted to UPF format
     Using radial grid of  983 points,  7 beta functions with: 
                l(1) =   0
                l(2) =   0
                l(3) =   1
                l(4) =   1
                l(5) =   1
                l(6) =   2
                l(7) =   2
     Q(r) pseudized with  8 coefficients,  rinner =    1.400   1.400   1.400
                                                       1.400   1.400

     atomic species   valence    mass     pseudopotential
        Hf            12.00   178.49000     Hf( 1.00)
        Ir            15.00   192.21700     Ir( 1.00)

     Starting magnetic structure 
     atomic species   magnetization
        Hf           0.417
        Ir           0.333

      4 Sym. Ops., with inversion, found ( 2 have fractional translation)


                                    s                        frac. trans.

      isym =  1     identity                                     

 cryst.   s( 1) = (     1          0          0      )
                  (     0          1          0      )
                  (     0          0          1      )

 cart.    s( 1) = (  1.0000000  0.0000000 -0.0000000 )
                  (  0.0000000  1.0000000  0.0000000 )
                  (  0.0000000  0.0000000  1.0000000 )


      isym =  2     180 deg rotation - cart. axis [0,1,0]        

 cryst.   s( 2) = (    -1          0          0      )    f =(  0.0000000 )
                  (     0          1          0      )       (  0.5000000 )
                  (     0          0         -1      )       (  0.0000000 )

 cart.    s( 2) = ( -1.0000000  0.0000000  0.0000000 )    f =(  0.0000000 )
                  (  0.0000000  1.0000000  0.0000000 )       (  0.4011706 )
                  (  0.0000000  0.0000000 -1.0000000 )       (  0.0000000 )


      isym =  3     inversion                                    

 cryst.   s( 3) = (    -1          0          0      )
                  (     0         -1          0      )
                  (     0          0         -1      )

 cart.    s( 3) = ( -1.0000000  0.0000000  0.0000000 )
                  (  0.0000000 -1.0000000  0.0000000 )
                  (  0.0000000  0.0000000 -1.0000000 )


      isym =  4     inv. 180 deg rotation - cart. axis [0,1,0]   

 cryst.   s( 4) = (     1          0          0      )    f =(  0.0000000 )
                  (     0         -1          0      )       (  0.5000000 )
                  (     0          0          1      )       (  0.0000000 )

 cart.    s( 4) = (  1.0000000  0.0000000 -0.0000000 )    f =(  0.0000000 )
                  (  0.0000000 -1.0000000  0.0000000 )       (  0.4011706 )
                  (  0.0000000  0.0000000  1.0000000 )       (  0.0000000 )


   Cartesian axes

     site n.     atom                  positions (alat units)
         1           Hf  tau(   1) = (   0.3630047   0.6017559   0.3983904  )
         2           Hf  tau(   2) = (   0.4273758   0.2005853   1.4132986  )
         3           Ir  tau(   3) = (  -0.0834358   0.6017559   1.2535076  )
         4           Ir  tau(   4) = (   0.8738162   0.2005853   0.5581814  )

   Crystallographic axes

     site n.     atom                  positions (cryst. coord.)
         1           Hf  tau(   1) = (  0.4091000  0.7500000  0.2199000  )
         2           Hf  tau(   2) = (  0.5909000  0.2500000  0.7801000  )
         3           Ir  tau(   3) = (  0.0616000  0.7500000  0.6919000  )
         4           Ir  tau(   4) = (  0.9384000  0.2500000  0.3081000  )

     number of k points=   126  Marzari-Vanderbilt smearing, width (Ry)=  0.0100
                       cart. coord. in units 2pi/alat
        k(    1) = (   0.0000000   0.0000000   0.0000000), wk =   0.0025000
        k(    2) = (   0.0000000   0.0000000   0.1103942), wk =   0.0050000
        k(    3) = (   0.0000000   0.0000000   0.2207885), wk =   0.0050000
        k(    4) = (   0.0000000   0.1246353   0.0000000), wk =   0.0050000
        k(    5) = (   0.0000000   0.1246353   0.1103942), wk =   0.0100000
        k(    6) = (   0.0000000   0.1246353   0.2207885), wk =   0.0100000
        k(    7) = (   0.0000000   0.2492705   0.0000000), wk =   0.0050000
        k(    8) = (   0.0000000   0.2492705   0.1103942), wk =   0.0100000
        k(    9) = (   0.0000000   0.2492705   0.2207885), wk =   0.0100000
        k(   10) = (   0.0000000   0.3739058   0.0000000), wk =   0.0050000
        k(   11) = (   0.0000000   0.3739058   0.1103942), wk =   0.0100000
        k(   12) = (   0.0000000   0.3739058   0.2207885), wk =   0.0100000
        k(   13) = (   0.0000000   0.4985410   0.0000000), wk =   0.0050000
        k(   14) = (   0.0000000   0.4985410   0.1103942), wk =   0.0100000
        k(   15) = (   0.0000000   0.4985410   0.2207885), wk =   0.0100000
        k(   16) = (   0.0000000  -0.6231763   0.0000000), wk =   0.0025000
        k(   17) = (   0.0000000  -0.6231763   0.1103942), wk =   0.0050000
        k(   18) = (   0.0000000  -0.6231763   0.2207885), wk =   0.0050000
        k(   19) = (   0.1250000   0.0000000   0.0144630), wk =   0.0050000
        k(   20) = (   0.1250000   0.0000000   0.1248572), wk =   0.0050000
        k(   21) = (   0.1250000   0.0000000   0.2352514), wk =   0.0050000
        k(   22) = (   0.1250000   0.0000000  -0.2063255), wk =   0.0050000
        k(   23) = (   0.1250000   0.0000000  -0.0959312), wk =   0.0050000
        k(   24) = (   0.1250000   0.1246353   0.0144630), wk =   0.0100000
        k(   25) = (   0.1250000   0.1246353   0.1248572), wk =   0.0100000
        k(   26) = (   0.1250000   0.1246353   0.2352514), wk =   0.0100000
        k(   27) = (   0.1250000   0.1246353  -0.2063255), wk =   0.0100000
        k(   28) = (   0.1250000   0.1246353  -0.0959312), wk =   0.0100000
        k(   29) = (   0.1250000   0.2492705   0.0144630), wk =   0.0100000
        k(   30) = (   0.1250000   0.2492705   0.1248572), wk =   0.0100000
        k(   31) = (   0.1250000   0.2492705   0.2352514), wk =   0.0100000
        k(   32) = (   0.1250000   0.2492705  -0.2063255), wk =   0.0100000
        k(   33) = (   0.1250000   0.2492705  -0.0959312), wk =   0.0100000
        k(   34) = (   0.1250000   0.3739058   0.0144630), wk =   0.0100000
        k(   35) = (   0.1250000   0.3739058   0.1248572), wk =   0.0100000
        k(   36) = (   0.1250000   0.3739058   0.2352514), wk =   0.0100000
        k(   37) = (   0.1250000   0.3739058  -0.2063255), wk =   0.0100000
        k(   38) = (   0.1250000   0.3739058  -0.0959312), wk =   0.0100000
        k(   39) = (   0.1250000   0.4985410   0.0144630), wk =   0.0100000
        k(   40) = (   0.1250000   0.4985410   0.1248572), wk =   0.0100000
        k(   41) = (   0.1250000   0.4985410   0.2352514), wk =   0.0100000
        k(   42) = (   0.1250000   0.4985410  -0.2063255), wk =   0.0100000
        k(   43) = (   0.1250000   0.4985410  -0.0959312), wk =   0.0100000
        k(   44) = (   0.1250000  -0.6231763   0.0144630), wk =   0.0050000
        k(   45) = (   0.1250000  -0.6231763   0.1248572), wk =   0.0050000
        k(   46) = (   0.1250000  -0.6231763   0.2352514), wk =   0.0050000
        k(   47) = (   0.1250000  -0.6231763  -0.2063255), wk =   0.0050000
        k(   48) = (   0.1250000  -0.6231763  -0.0959312), wk =   0.0050000
        k(   49) = (   0.2500000   0.0000000   0.0289260), wk =   0.0050000
        k(   50) = (   0.2500000   0.0000000   0.1393202), wk =   0.0050000
        k(   51) = (   0.2500000   0.0000000   0.2497144), wk =   0.0050000
        k(   52) = (   0.2500000   0.0000000  -0.1918625), wk =   0.0050000
        k(   53) = (   0.2500000   0.0000000  -0.0814682), wk =   0.0050000
        k(   54) = (   0.2500000   0.1246353   0.0289260), wk =   0.0100000
        k(   55) = (   0.2500000   0.1246353   0.1393202), wk =   0.0100000
        k(   56) = (   0.2500000   0.1246353   0.2497144), wk =   0.0100000
        k(   57) = (   0.2500000   0.1246353  -0.1918625), wk =   0.0100000
        k(   58) = (   0.2500000   0.1246353  -0.0814682), wk =   0.0100000
        k(   59) = (   0.2500000   0.2492705   0.0289260), wk =   0.0100000
        k(   60) = (   0.2500000   0.2492705   0.1393202), wk =   0.0100000
        k(   61) = (   0.2500000   0.2492705   0.2497144), wk =   0.0100000
        k(   62) = (   0.2500000   0.2492705  -0.1918625), wk =   0.0100000
        k(   63) = (   0.2500000   0.2492705  -0.0814682), wk =   0.0100000
        k(   64) = (   0.2500000   0.3739058   0.0289260), wk =   0.0100000
        k(   65) = (   0.2500000   0.3739058   0.1393202), wk =   0.0100000
        k(   66) = (   0.2500000   0.3739058   0.2497144), wk =   0.0100000
        k(   67) = (   0.2500000   0.3739058  -0.1918625), wk =   0.0100000
        k(   68) = (   0.2500000   0.3739058  -0.0814682), wk =   0.0100000
        k(   69) = (   0.2500000   0.4985410   0.0289260), wk =   0.0100000
        k(   70) = (   0.2500000   0.4985410   0.1393202), wk =   0.0100000
        k(   71) = (   0.2500000   0.4985410   0.2497144), wk =   0.0100000
        k(   72) = (   0.2500000   0.4985410  -0.1918625), wk =   0.0100000
        k(   73) = (   0.2500000   0.4985410  -0.0814682), wk =   0.0100000
        k(   74) = (   0.2500000  -0.6231763   0.0289260), wk =   0.0050000
        k(   75) = (   0.2500000  -0.6231763   0.1393202), wk =   0.0050000
        k(   76) = (   0.2500000  -0.6231763   0.2497144), wk =   0.0050000
        k(   77) = (   0.2500000  -0.6231763  -0.1918625), wk =   0.0050000
        k(   78) = (   0.2500000  -0.6231763  -0.0814682), wk =   0.0050000
        k(   79) = (   0.3750000   0.0000000   0.0433890), wk =   0.0050000
        k(   80) = (   0.3750000   0.0000000   0.1537832), wk =   0.0050000
        k(   81) = (   0.3750000   0.0000000   0.2641774), wk =   0.0050000
        k(   82) = (   0.3750000   0.0000000  -0.1773995), wk =   0.0050000
        k(   83) = (   0.3750000   0.0000000  -0.0670052), wk =   0.0050000
        k(   84) = (   0.3750000   0.1246353   0.0433890), wk =   0.0100000
        k(   85) = (   0.3750000   0.1246353   0.1537832), wk =   0.0100000
        k(   86) = (   0.3750000   0.1246353   0.2641774), wk =   0.0100000
        k(   87) = (   0.3750000   0.1246353  -0.1773995), wk =   0.0100000
        k(   88) = (   0.3750000   0.1246353  -0.0670052), wk =   0.0100000
        k(   89) = (   0.3750000   0.2492705   0.0433890), wk =   0.0100000
        k(   90) = (   0.3750000   0.2492705   0.1537832), wk =   0.0100000
        k(   91) = (   0.3750000   0.2492705   0.2641774), wk =   0.0100000
        k(   92) = (   0.3750000   0.2492705  -0.1773995), wk =   0.0100000
        k(   93) = (   0.3750000   0.2492705  -0.0670052), wk =   0.0100000
        k(   94) = (   0.3750000   0.3739058   0.0433890), wk =   0.0100000
        k(   95) = (   0.3750000   0.3739058   0.1537832), wk =   0.0100000
        k(   96) = (   0.3750000   0.3739058   0.2641774), wk =   0.0100000
        k(   97) = (   0.3750000   0.3739058  -0.1773995), wk =   0.0100000
        k(   98) = (   0.3750000   0.3739058  -0.0670052), wk =   0.0100000
        k(   99) = (   0.3750000   0.4985410   0.0433890), wk =   0.0100000
        k(  100) = (   0.3750000   0.4985410   0.1537832), wk =   0.0100000
        k(  101) = (   0.3750000   0.4985410   0.2641774), wk =   0.0100000
        k(  102) = (   0.3750000   0.4985410  -0.1773995), wk =   0.0100000
        k(  103) = (   0.3750000   0.4985410  -0.0670052), wk =   0.0100000
        k(  104) = (   0.3750000  -0.6231763   0.0433890), wk =   0.0050000
        k(  105) = (   0.3750000  -0.6231763   0.1537832), wk =   0.0050000
        k(  106) = (   0.3750000  -0.6231763   0.2641774), wk =   0.0050000
        k(  107) = (   0.3750000  -0.6231763  -0.1773995), wk =   0.0050000
        k(  108) = (   0.3750000  -0.6231763  -0.0670052), wk =   0.0050000
        k(  109) = (  -0.5000000   0.0000000  -0.0578520), wk =   0.0025000
        k(  110) = (  -0.5000000   0.0000000   0.0525423), wk =   0.0050000
        k(  111) = (  -0.5000000   0.0000000   0.1629365), wk =   0.0050000
        k(  112) = (  -0.5000000   0.1246353  -0.0578520), wk =   0.0050000
        k(  113) = (  -0.5000000   0.1246353   0.0525423), wk =   0.0100000
        k(  114) = (  -0.5000000   0.1246353   0.1629365), wk =   0.0100000
        k(  115) = (  -0.5000000   0.2492705  -0.0578520), wk =   0.0050000
        k(  116) = (  -0.5000000   0.2492705   0.0525423), wk =   0.0100000
        k(  117) = (  -0.5000000   0.2492705   0.1629365), wk =   0.0100000
        k(  118) = (  -0.5000000   0.3739058  -0.0578520), wk =   0.0050000
        k(  119) = (  -0.5000000   0.3739058   0.0525423), wk =   0.0100000
        k(  120) = (  -0.5000000   0.3739058   0.1629365), wk =   0.0100000
        k(  121) = (  -0.5000000   0.4985410  -0.0578520), wk =   0.0050000
        k(  122) = (  -0.5000000   0.4985410   0.0525423), wk =   0.0100000
        k(  123) = (  -0.5000000   0.4985410   0.1629365), wk =   0.0100000
        k(  124) = (  -0.5000000  -0.6231763  -0.0578520), wk =   0.0025000
        k(  125) = (  -0.5000000  -0.6231763   0.0525423), wk =   0.0050000
        k(  126) = (  -0.5000000  -0.6231763   0.1629365), wk =   0.0050000

                       cryst. coord.
        k(    1) = (   0.0000000   0.0000000   0.0000000), wk =   0.0025000
        k(    2) = (   0.0000000   0.0000000   0.2000000), wk =   0.0050000
        k(    3) = (   0.0000000   0.0000000   0.4000000), wk =   0.0050000
        k(    4) = (   0.0000000   0.1000000   0.0000000), wk =   0.0050000
        k(    5) = (   0.0000000   0.1000000   0.2000000), wk =   0.0100000
        k(    6) = (   0.0000000   0.1000000   0.4000000), wk =   0.0100000
        k(    7) = (   0.0000000   0.2000000   0.0000000), wk =   0.0050000
        k(    8) = (   0.0000000   0.2000000   0.2000000), wk =   0.0100000
        k(    9) = (   0.0000000   0.2000000   0.4000000), wk =   0.0100000
        k(   10) = (   0.0000000   0.3000000   0.0000000), wk =   0.0050000
        k(   11) = (   0.0000000   0.3000000   0.2000000), wk =   0.0100000
        k(   12) = (   0.0000000   0.3000000   0.4000000), wk =   0.0100000
        k(   13) = (   0.0000000   0.4000000   0.0000000), wk =   0.0050000
        k(   14) = (   0.0000000   0.4000000   0.2000000), wk =   0.0100000
        k(   15) = (   0.0000000   0.4000000   0.4000000), wk =   0.0100000
        k(   16) = (   0.0000000  -0.5000000   0.0000000), wk =   0.0025000
        k(   17) = (   0.0000000  -0.5000000   0.2000000), wk =   0.0050000
        k(   18) = (   0.0000000  -0.5000000   0.4000000), wk =   0.0050000
        k(   19) = (   0.1250000   0.0000000  -0.0000000), wk =   0.0050000
        k(   20) = (   0.1250000   0.0000000   0.2000000), wk =   0.0050000
        k(   21) = (   0.1250000   0.0000000   0.4000000), wk =   0.0050000
        k(   22) = (   0.1250000   0.0000000  -0.4000000), wk =   0.0050000
        k(   23) = (   0.1250000   0.0000000  -0.2000000), wk =   0.0050000
        k(   24) = (   0.1250000   0.1000000  -0.0000000), wk =   0.0100000
        k(   25) = (   0.1250000   0.1000000   0.2000000), wk =   0.0100000
        k(   26) = (   0.1250000   0.1000000   0.4000000), wk =   0.0100000
        k(   27) = (   0.1250000   0.1000000  -0.4000000), wk =   0.0100000
        k(   28) = (   0.1250000   0.1000000  -0.2000000), wk =   0.0100000
        k(   29) = (   0.1250000   0.2000000  -0.0000000), wk =   0.0100000
        k(   30) = (   0.1250000   0.2000000   0.2000000), wk =   0.0100000
        k(   31) = (   0.1250000   0.2000000   0.4000000), wk =   0.0100000
        k(   32) = (   0.1250000   0.2000000  -0.4000000), wk =   0.0100000
        k(   33) = (   0.1250000   0.2000000  -0.2000000), wk =   0.0100000
        k(   34) = (   0.1250000   0.3000000  -0.0000000), wk =   0.0100000
        k(   35) = (   0.1250000   0.3000000   0.2000000), wk =   0.0100000
        k(   36) = (   0.1250000   0.3000000   0.4000000), wk =   0.0100000
        k(   37) = (   0.1250000   0.3000000  -0.4000000), wk =   0.0100000
        k(   38) = (   0.1250000   0.3000000  -0.2000000), wk =   0.0100000
        k(   39) = (   0.1250000   0.4000000  -0.0000000), wk =   0.0100000
        k(   40) = (   0.1250000   0.4000000   0.2000000), wk =   0.0100000
        k(   41) = (   0.1250000   0.4000000   0.4000000), wk =   0.0100000
        k(   42) = (   0.1250000   0.4000000  -0.4000000), wk =   0.0100000
        k(   43) = (   0.1250000   0.4000000  -0.2000000), wk =   0.0100000
        k(   44) = (   0.1250000  -0.5000000  -0.0000000), wk =   0.0050000
        k(   45) = (   0.1250000  -0.5000000   0.2000000), wk =   0.0050000
        k(   46) = (   0.1250000  -0.5000000   0.4000000), wk =   0.0050000
        k(   47) = (   0.1250000  -0.5000000  -0.4000000), wk =   0.0050000
        k(   48) = (   0.1250000  -0.5000000  -0.2000000), wk =   0.0050000
        k(   49) = (   0.2500000   0.0000000  -0.0000000), wk =   0.0050000
        k(   50) = (   0.2500000   0.0000000   0.2000000), wk =   0.0050000
        k(   51) = (   0.2500000   0.0000000   0.4000000), wk =   0.0050000
        k(   52) = (   0.2500000   0.0000000  -0.4000000), wk =   0.0050000
        k(   53) = (   0.2500000   0.0000000  -0.2000000), wk =   0.0050000
        k(   54) = (   0.2500000   0.1000000  -0.0000000), wk =   0.0100000
        k(   55) = (   0.2500000   0.1000000   0.2000000), wk =   0.0100000
        k(   56) = (   0.2500000   0.1000000   0.4000000), wk =   0.0100000
        k(   57) = (   0.2500000   0.1000000  -0.4000000), wk =   0.0100000
        k(   58) = (   0.2500000   0.1000000  -0.2000000), wk =   0.0100000
        k(   59) = (   0.2500000   0.2000000  -0.0000000), wk =   0.0100000
        k(   60) = (   0.2500000   0.2000000   0.2000000), wk =   0.0100000
        k(   61) = (   0.2500000   0.2000000   0.4000000), wk =   0.0100000
        k(   62) = (   0.2500000   0.2000000  -0.4000000), wk =   0.0100000
        k(   63) = (   0.2500000   0.2000000  -0.2000000), wk =   0.0100000
        k(   64) = (   0.2500000   0.3000000  -0.0000000), wk =   0.0100000
        k(   65) = (   0.2500000   0.3000000   0.2000000), wk =   0.0100000
        k(   66) = (   0.2500000   0.3000000   0.4000000), wk =   0.0100000
        k(   67) = (   0.2500000   0.3000000  -0.4000000), wk =   0.0100000
        k(   68) = (   0.2500000   0.3000000  -0.2000000), wk =   0.0100000
        k(   69) = (   0.2500000   0.4000000  -0.0000000), wk =   0.0100000
        k(   70) = (   0.2500000   0.4000000   0.2000000), wk =   0.0100000
        k(   71) = (   0.2500000   0.4000000   0.4000000), wk =   0.0100000
        k(   72) = (   0.2500000   0.4000000  -0.4000000), wk =   0.0100000
        k(   73) = (   0.2500000   0.4000000  -0.2000000), wk =   0.0100000
        k(   74) = (   0.2500000  -0.5000000  -0.0000000), wk =   0.0050000
        k(   75) = (   0.2500000  -0.5000000   0.2000000), wk =   0.0050000
        k(   76) = (   0.2500000  -0.5000000   0.4000000), wk =   0.0050000
        k(   77) = (   0.2500000  -0.5000000  -0.4000000), wk =   0.0050000
        k(   78) = (   0.2500000  -0.5000000  -0.2000000), wk =   0.0050000
        k(   79) = (   0.3750000   0.0000000   0.0000000), wk =   0.0050000
        k(   80) = (   0.3750000   0.0000000   0.2000000), wk =   0.0050000
        k(   81) = (   0.3750000   0.0000000   0.4000000), wk =   0.0050000
        k(   82) = (   0.3750000   0.0000000  -0.4000000), wk =   0.0050000
        k(   83) = (   0.3750000   0.0000000  -0.2000000), wk =   0.0050000
        k(   84) = (   0.3750000   0.1000000   0.0000000), wk =   0.0100000
        k(   85) = (   0.3750000   0.1000000   0.2000000), wk =   0.0100000
        k(   86) = (   0.3750000   0.1000000   0.4000000), wk =   0.0100000
        k(   87) = (   0.3750000   0.1000000  -0.4000000), wk =   0.0100000
        k(   88) = (   0.3750000   0.1000000  -0.2000000), wk =   0.0100000
        k(   89) = (   0.3750000   0.2000000   0.0000000), wk =   0.0100000
        k(   90) = (   0.3750000   0.2000000   0.2000000), wk =   0.0100000
        k(   91) = (   0.3750000   0.2000000   0.4000000), wk =   0.0100000
        k(   92) = (   0.3750000   0.2000000  -0.4000000), wk =   0.0100000
        k(   93) = (   0.3750000   0.2000000  -0.2000000), wk =   0.0100000
        k(   94) = (   0.3750000   0.3000000   0.0000000), wk =   0.0100000
        k(   95) = (   0.3750000   0.3000000   0.2000000), wk =   0.0100000
        k(   96) = (   0.3750000   0.3000000   0.4000000), wk =   0.0100000
        k(   97) = (   0.3750000   0.3000000  -0.4000000), wk =   0.0100000
        k(   98) = (   0.3750000   0.3000000  -0.2000000), wk =   0.0100000
        k(   99) = (   0.3750000   0.4000000   0.0000000), wk =   0.0100000
        k(  100) = (   0.3750000   0.4000000   0.2000000), wk =   0.0100000
        k(  101) = (   0.3750000   0.4000000   0.4000000), wk =   0.0100000
        k(  102) = (   0.3750000   0.4000000  -0.4000000), wk =   0.0100000
        k(  103) = (   0.3750000   0.4000000  -0.2000000), wk =   0.0100000
        k(  104) = (   0.3750000  -0.5000000   0.0000000), wk =   0.0050000
        k(  105) = (   0.3750000  -0.5000000   0.2000000), wk =   0.0050000
        k(  106) = (   0.3750000  -0.5000000   0.4000000), wk =   0.0050000
        k(  107) = (   0.3750000  -0.5000000  -0.4000000), wk =   0.0050000
        k(  108) = (   0.3750000  -0.5000000  -0.2000000), wk =   0.0050000
        k(  109) = (  -0.5000000   0.0000000   0.0000000), wk =   0.0025000
        k(  110) = (  -0.5000000   0.0000000   0.2000000), wk =   0.0050000
        k(  111) = (  -0.5000000   0.0000000   0.4000000), wk =   0.0050000
        k(  112) = (  -0.5000000   0.1000000   0.0000000), wk =   0.0050000
        k(  113) = (  -0.5000000   0.1000000   0.2000000), wk =   0.0100000
        k(  114) = (  -0.5000000   0.1000000   0.4000000), wk =   0.0100000
        k(  115) = (  -0.5000000   0.2000000   0.0000000), wk =   0.0050000
        k(  116) = (  -0.5000000   0.2000000   0.2000000), wk =   0.0100000
        k(  117) = (  -0.5000000   0.2000000   0.4000000), wk =   0.0100000
        k(  118) = (  -0.5000000   0.3000000   0.0000000), wk =   0.0050000
        k(  119) = (  -0.5000000   0.3000000   0.2000000), wk =   0.0100000
        k(  120) = (  -0.5000000   0.3000000   0.4000000), wk =   0.0100000
        k(  121) = (  -0.5000000   0.4000000   0.0000000), wk =   0.0050000
        k(  122) = (  -0.5000000   0.4000000   0.2000000), wk =   0.0100000
        k(  123) = (  -0.5000000   0.4000000   0.4000000), wk =   0.0100000
        k(  124) = (  -0.5000000  -0.5000000   0.0000000), wk =   0.0025000
        k(  125) = (  -0.5000000  -0.5000000   0.2000000), wk =   0.0050000
        k(  126) = (  -0.5000000  -0.5000000   0.4000000), wk =   0.0050000

     Dense  grid:   277737 G-vectors     FFT dimensions: (  72,  60, 135)

     Smooth grid:    98241 G-vectors     FFT dimensions: (  54,  48,  96)

     Dynamical RAM for                 wfc:       5.99 MB

     Dynamical RAM for     wfc (w. buffer):    1516.52 MB

     Dynamical RAM for           str. fact:       8.48 MB

     Dynamical RAM for           local pot:       0.00 MB

     Dynamical RAM for          nlocal pot:      19.86 MB

     Dynamical RAM for                qrad:       8.08 MB

     Dynamical RAM for          rho,v,vnew:      52.12 MB

     Dynamical RAM for               rhoin:      17.37 MB

     Dynamical RAM for            rho*nmix:     135.61 MB

     Dynamical RAM for           G-vectors:      16.64 MB

     Dynamical RAM for          h,s,v(r/c):       0.19 MB

     Dynamical RAM for          <psi|beta>:       0.05 MB

     Dynamical RAM for                 psi:      11.99 MB

     Dynamical RAM for                hpsi:      11.99 MB

     Dynamical RAM for                spsi:      11.99 MB

     Dynamical RAM for      wfcinit/wfcrot:      16.53 MB

     Dynamical RAM for           addusdens:    1106.10 MB

     Dynamical RAM for          addusforce:    1114.60 MB

     Dynamical RAM for         addusstress:    1214.17 MB

     Estimated static dynamical RAM per process >       1.64 GB

     Estimated max dynamical RAM per process >       2.96 GB
     Generating pointlists ...
     new r_m :   0.2692 (alat units)  2.8809 (a.u.) for type    1
     new r_m :   0.2692 (alat units)  2.8809 (a.u.) for type    2

     Initial potential from superposition of free atoms

     starting charge      52.9966, renormalised to      54.0000

     negative rho (up, down):  4.884E-01 2.442E-01
     Starting wfcs are   44 randomized atomic wfcs

     total cpu time spent up to now is       10.8 secs

     Self-consistent Calculation
[tb_dev] Currently allocated     3.54E+01 Mbytes, locked:    0 /  19
[tb_pin] Currently allocated     0.00E+00 Mbytes, locked:    0 /   0

     iteration #  1     ecut=    55.00 Ry     beta= 0.40
     Davidson diagonalization with overlap

---- Real-time Memory Report at c_bands before calling an iterative solver
          2523 MiB given to the printing process from OS
         -1774 MiB allocation reported by mallinfo(arena+hblkhd)
         57526 MiB available memory on the node where the printing process lives
     GPU memory used/free/total (MiB): 1788 / 14492 / 16280
------------------
     ethr =  1.00E-02,  avg # of iterations =  1.9

     negative rho (up, down):  4.370E-01 2.195E-01

     total cpu time spent up to now is       20.0 secs

     total energy              =    -586.14365390 Ry
     estimated scf accuracy    <       3.11817640 Ry

     total magnetization       =    10.11 Bohr mag/cell
     absolute magnetization    =    10.55 Bohr mag/cell
[tb_dev] Currently allocated     3.54E+01 Mbytes, locked:    0 /  17
[tb_pin] Currently allocated     0.00E+00 Mbytes, locked:    0 /   0

     iteration #  2     ecut=    55.00 Ry     beta= 0.40
     Davidson diagonalization with overlap

---- Real-time Memory Report at c_bands before calling an iterative solver
          2607 MiB given to the printing process from OS
         -1713 MiB allocation reported by mallinfo(arena+hblkhd)
         57462 MiB available memory on the node where the printing process lives
     GPU memory used/free/total (MiB): 3110 / 13170 / 16280
------------------
     ethr =  5.77E-03,  avg # of iterations =  2.7

     negative rho (up, down):  4.329E-01 2.412E-01

     total cpu time spent up to now is       30.5 secs

     total energy              =    -586.62401632 Ry
     estimated scf accuracy    <       8.00716761 Ry

     total magnetization       =     1.40 Bohr mag/cell
     absolute magnetization    =     1.63 Bohr mag/cell
[tb_dev] Currently allocated     3.54E+01 Mbytes, locked:    0 /  17
[tb_pin] Currently allocated     0.00E+00 Mbytes, locked:    0 /   0

     iteration #  3     ecut=    55.00 Ry     beta= 0.40
     Davidson diagonalization with overlap

---- Real-time Memory Report at c_bands before calling an iterative solver
          2614 MiB given to the printing process from OS
         -1707 MiB allocation reported by mallinfo(arena+hblkhd)
         57457 MiB available memory on the node where the printing process lives
     GPU memory used/free/total (MiB): 3240 / 13040 / 16280
------------------
     ethr =  5.77E-03,  avg # of iterations =  2.0

     negative rho (up, down):  4.185E-01 2.451E-01

     total cpu time spent up to now is       40.1 secs

     total energy              =    -587.01643905 Ry
     estimated scf accuracy    <       0.56209174 Ry

     total magnetization       =     7.92 Bohr mag/cell
     absolute magnetization    =     8.26 Bohr mag/cell
[tb_dev] Currently allocated     3.54E+01 Mbytes, locked:    0 /  17
[tb_pin] Currently allocated     0.00E+00 Mbytes, locked:    0 /   0

     iteration #  4     ecut=    55.00 Ry     beta= 0.40
     Davidson diagonalization with overlap

---- Real-time Memory Report at c_bands before calling an iterative solver
          2623 MiB given to the printing process from OS
         -1698 MiB allocation reported by mallinfo(arena+hblkhd)
         57450 MiB available memory on the node where the printing process lives
     GPU memory used/free/total (MiB): 3336 / 12944 / 16280
------------------
     ethr =  1.04E-03,  avg # of iterations =  2.8

     negative rho (up, down):  3.895E-01 2.679E-01

     total cpu time spent up to now is       51.0 secs

     total energy              =    -587.01353294 Ry
     estimated scf accuracy    <       1.06644277 Ry

     total magnetization       =     3.89 Bohr mag/cell
     absolute magnetization    =     4.22 Bohr mag/cell
[tb_dev] Currently allocated     3.54E+01 Mbytes, locked:    0 /  17
[tb_pin] Currently allocated     0.00E+00 Mbytes, locked:    0 /   0

     iteration #  5     ecut=    55.00 Ry     beta= 0.40
     Davidson diagonalization with overlap

---- Real-time Memory Report at c_bands before calling an iterative solver
          2632 MiB given to the printing process from OS
         -1689 MiB allocation reported by mallinfo(arena+hblkhd)
         57443 MiB available memory on the node where the printing process lives
     GPU memory used/free/total (MiB): 3336 / 12944 / 16280
------------------
     c_bands:  1 eigenvalues not converged
     ethr =  1.04E-03,  avg # of iterations = 10.6

     negative rho (up, down):  3.894E-01 2.680E-01

     total cpu time spent up to now is       72.5 secs

     total energy              =    -587.85142249 Ry
     estimated scf accuracy    <      13.27168545 Ry

     total magnetization       =     9.32 Bohr mag/cell
     absolute magnetization    =     9.73 Bohr mag/cell
[tb_dev] Currently allocated     3.54E+01 Mbytes, locked:    0 /  17
[tb_pin] Currently allocated     0.00E+00 Mbytes, locked:    0 /   0

     iteration #  6     ecut=    55.00 Ry     beta= 0.40
     Davidson diagonalization with overlap

---- Real-time Memory Report at c_bands before calling an iterative solver
          2638 MiB given to the printing process from OS
         -1683 MiB allocation reported by mallinfo(arena+hblkhd)
         57438 MiB available memory on the node where the printing process lives
     GPU memory used/free/total (MiB): 3336 / 12944 / 16280
------------------
     ethr =  1.04E-03,  avg # of iterations =  1.0

     negative rho (up, down):  3.987E-01 2.581E-01

     total cpu time spent up to now is       80.9 secs

     total energy              =    -587.31200605 Ry
     estimated scf accuracy    <      14.00750078 Ry

     total magnetization       =     9.06 Bohr mag/cell
     absolute magnetization    =     9.47 Bohr mag/cell
[tb_dev] Currently allocated     3.54E+01 Mbytes, locked:    0 /  17
[tb_pin] Currently allocated     0.00E+00 Mbytes, locked:    0 /   0

     iteration #  7     ecut=    55.00 Ry     beta= 0.40
     Davidson diagonalization with overlap

---- Real-time Memory Report at c_bands before calling an iterative solver
          2641 MiB given to the printing process from OS
         -1680 MiB allocation reported by mallinfo(arena+hblkhd)
         57435 MiB available memory on the node where the printing process lives
     GPU memory used/free/total (MiB): 3336 / 12944 / 16280
------------------
     ethr =  1.04E-03,  avg # of iterations =  1.9

     negative rho (up, down):  4.001E-01 2.548E-01

     total cpu time spent up to now is       90.0 secs

     total energy              =    -587.20909298 Ry
     estimated scf accuracy    <       7.27694547 Ry

     total magnetization       =    10.06 Bohr mag/cell
     absolute magnetization    =    10.45 Bohr mag/cell
[tb_dev] Currently allocated     3.54E+01 Mbytes, locked:    0 /  17
[tb_pin] Currently allocated     0.00E+00 Mbytes, locked:    0 /   0

     iteration #  8     ecut=    55.00 Ry     beta= 0.40
     Davidson diagonalization with overlap

---- Real-time Memory Report at c_bands before calling an iterative solver
          2650 MiB given to the printing process from OS
         -1671 MiB allocation reported by mallinfo(arena+hblkhd)
         57426 MiB available memory on the node where the printing process lives
     GPU memory used/free/total (MiB): 3336 / 12944 / 16280
------------------
     ethr =  1.04E-03,  avg # of iterations =  3.3

     negative rho (up, down):  4.039E-01 2.520E-01

     total cpu time spent up to now is      100.5 secs

     total energy              =    -587.14772205 Ry
     estimated scf accuracy    <       3.64990311 Ry

     total magnetization       =    10.03 Bohr mag/cell
     absolute magnetization    =    10.38 Bohr mag/cell
[tb_dev] Currently allocated     3.54E+01 Mbytes, locked:    0 /  17
[tb_pin] Currently allocated     0.00E+00 Mbytes, locked:    0 /   0

     iteration #  9     ecut=    55.00 Ry     beta= 0.40
     Davidson diagonalization with overlap

---- Real-time Memory Report at c_bands before calling an iterative solver
          2656 MiB given to the printing process from OS
         -1665 MiB allocation reported by mallinfo(arena+hblkhd)
         57420 MiB available memory on the node where the printing process lives
     GPU memory used/free/total (MiB): 3336 / 12944 / 16280
------------------
     ethr =  1.04E-03,  avg # of iterations =  3.8

     negative rho (up, down):  4.044E-01 2.515E-01

     total cpu time spent up to now is      111.5 secs

     total energy              =    -587.15475712 Ry
     estimated scf accuracy    <       1.53759483 Ry

     total magnetization       =     9.26 Bohr mag/cell
     absolute magnetization    =     9.59 Bohr mag/cell
[tb_dev] Currently allocated     3.54E+01 Mbytes, locked:    0 /  17
[tb_pin] Currently allocated     0.00E+00 Mbytes, locked:    0 /   0

     iteration # 10     ecut=    55.00 Ry     beta= 0.40
     Davidson diagonalization with overlap

---- Real-time Memory Report at c_bands before calling an iterative solver
          2662 MiB given to the printing process from OS
         -1659 MiB allocation reported by mallinfo(arena+hblkhd)
         57414 MiB available memory on the node where the printing process lives
     GPU memory used/free/total (MiB): 3336 / 12944 / 16280
------------------
     ethr =  1.04E-03,  avg # of iterations =  1.7

     negative rho (up, down):  4.033E-01 2.542E-01

     total cpu time spent up to now is      120.6 secs

     total energy              =    -587.13680237 Ry
     estimated scf accuracy    <       0.54050136 Ry

     total magnetization       =     7.66 Bohr mag/cell
     absolute magnetization    =     8.00 Bohr mag/cell
[tb_dev] Currently allocated     3.54E+01 Mbytes, locked:    0 /  17
[tb_pin] Currently allocated     0.00E+00 Mbytes, locked:    0 /   0

     iteration # 11     ecut=    55.00 Ry     beta= 0.40
     Davidson diagonalization with overlap

---- Real-time Memory Report at c_bands before calling an iterative solver
          2662 MiB given to the printing process from OS
         -1659 MiB allocation reported by mallinfo(arena+hblkhd)
         57415 MiB available memory on the node where the printing process lives
     GPU memory used/free/total (MiB): 3336 / 12944 / 16280
------------------
     ethr =  1.00E-03,  avg # of iterations =  2.9

     negative rho (up, down):  4.020E-01 2.552E-01

     total cpu time spent up to now is      130.7 secs

     total energy              =    -587.18876916 Ry
     estimated scf accuracy    <       0.08783568 Ry

     total magnetization       =     5.14 Bohr mag/cell
     absolute magnetization    =     5.61 Bohr mag/cell
[tb_dev] Currently allocated     3.54E+01 Mbytes, locked:    0 /  17
[tb_pin] Currently allocated     0.00E+00 Mbytes, locked:    0 /   0

     iteration # 12     ecut=    55.00 Ry     beta= 0.40
     Davidson diagonalization with overlap

---- Real-time Memory Report at c_bands before calling an iterative solver
          2662 MiB given to the printing process from OS
         -1659 MiB allocation reported by mallinfo(arena+hblkhd)
         57415 MiB available memory on the node where the printing process lives
     GPU memory used/free/total (MiB): 3336 / 12944 / 16280
------------------
     ethr =  1.63E-04,  avg # of iterations =  7.1

     negative rho (up, down):  3.985E-01 2.579E-01

     total cpu time spent up to now is      147.1 secs

     total energy              =    -587.22989385 Ry
     estimated scf accuracy    <       0.29708086 Ry

     total magnetization       =     4.75 Bohr mag/cell
     absolute magnetization    =     5.17 Bohr mag/cell
[tb_dev] Currently allocated     3.54E+01 Mbytes, locked:    0 /  17
[tb_pin] Currently allocated     0.00E+00 Mbytes, locked:    0 /   0

     iteration # 13     ecut=    55.00 Ry     beta= 0.40
     Davidson diagonalization with overlap

---- Real-time Memory Report at c_bands before calling an iterative solver
          2662 MiB given to the printing process from OS
         -1659 MiB allocation reported by mallinfo(arena+hblkhd)
         57415 MiB available memory on the node where the printing process lives
     GPU memory used/free/total (MiB): 3336 / 12944 / 16280
------------------
     ethr =  1.63E-04,  avg # of iterations =  1.1

     negative rho (up, down):  3.943E-01 2.622E-01

     total cpu time spent up to now is      155.5 secs

     total energy              =    -587.24547930 Ry
     estimated scf accuracy    <       0.06087425 Ry

     total magnetization       =     5.54 Bohr mag/cell
     absolute magnetization    =     5.96 Bohr mag/cell
[tb_dev] Currently allocated     3.54E+01 Mbytes, locked:    0 /  17
[tb_pin] Currently allocated     0.00E+00 Mbytes, locked:    0 /   0

     iteration # 14     ecut=    55.00 Ry     beta= 0.40
     Davidson diagonalization with overlap

---- Real-time Memory Report at c_bands before calling an iterative solver
          2662 MiB given to the printing process from OS
         -1659 MiB allocation reported by mallinfo(arena+hblkhd)
         57416 MiB available memory on the node where the printing process lives
     GPU memory used/free/total (MiB): 3336 / 12944 / 16280
------------------
     ethr =  1.13E-04,  avg # of iterations =  1.8

     negative rho (up, down):  3.760E-01 2.820E-01

     total cpu time spent up to now is      164.6 secs

     total energy              =    -587.24019428 Ry
     estimated scf accuracy    <       0.01961937 Ry

     total magnetization       =     5.51 Bohr mag/cell
     absolute magnetization    =     6.00 Bohr mag/cell
[tb_dev] Currently allocated     3.54E+01 Mbytes, locked:    0 /  17
[tb_pin] Currently allocated     0.00E+00 Mbytes, locked:    0 /   0

     iteration # 15     ecut=    55.00 Ry     beta= 0.40
     Davidson diagonalization with overlap

---- Real-time Memory Report at c_bands before calling an iterative solver
          2662 MiB given to the printing process from OS
         -1659 MiB allocation reported by mallinfo(arena+hblkhd)
         57416 MiB available memory on the node where the printing process lives
     GPU memory used/free/total (MiB): 3336 / 12944 / 16280
------------------
     c_bands:  1 eigenvalues not converged
     c_bands:  3 eigenvalues not converged
     c_bands:  2 eigenvalues not converged
     c_bands:  1 eigenvalues not converged
     c_bands:  2 eigenvalues not converged
     c_bands:  1 eigenvalues not converged
     c_bands:  1 eigenvalues not converged
     c_bands:  1 eigenvalues not converged
     c_bands:  1 eigenvalues not converged
     c_bands:  3 eigenvalues not converged
     c_bands:  1 eigenvalues not converged
     c_bands:  1 eigenvalues not converged
     c_bands:  1 eigenvalues not converged
     c_bands:  1 eigenvalues not converged
     c_bands:  1 eigenvalues not converged
     c_bands:  1 eigenvalues not converged
     c_bands:  1 eigenvalues not converged
     c_bands:  1 eigenvalues not converged
     ethr =  3.63E-05,  avg # of iterations = 11.6

     negative rho (up, down):  3.789E-01 2.784E-01

     total cpu time spent up to now is      188.0 secs

     total energy              =    -587.26972039 Ry
     estimated scf accuracy    <       0.78834038 Ry

     total magnetization       =     3.69 Bohr mag/cell
     absolute magnetization    =     6.58 Bohr mag/cell
[tb_dev] Currently allocated     3.54E+01 Mbytes, locked:    0 /  17
[tb_pin] Currently allocated     0.00E+00 Mbytes, locked:    0 /   0

     iteration # 16     ecut=    55.00 Ry     beta= 0.40
     Davidson diagonalization with overlap

---- Real-time Memory Report at c_bands before calling an iterative solver
          2662 MiB given to the printing process from OS
         -1659 MiB allocation reported by mallinfo(arena+hblkhd)
         57416 MiB available memory on the node where the printing process lives
     GPU memory used/free/total (MiB): 3336 / 12944 / 16280
------------------
     ethr =  3.63E-05,  avg # of iterations =  4.4

     negative rho (up, down):  3.759E-01 2.818E-01

     total cpu time spent up to now is      200.5 secs

     total energy              =    -587.28844375 Ry
     estimated scf accuracy    <       0.06183315 Ry

     total magnetization       =     3.23 Bohr mag/cell
     absolute magnetization    =     5.21 Bohr mag/cell
[tb_dev] Currently allocated     3.54E+01 Mbytes, locked:    0 /  17
[tb_pin] Currently allocated     0.00E+00 Mbytes, locked:    0 /   0

     iteration # 17     ecut=    55.00 Ry     beta= 0.40
     Davidson diagonalization with overlap

---- Real-time Memory Report at c_bands before calling an iterative solver
          2662 MiB given to the printing process from OS
         -1659 MiB allocation reported by mallinfo(arena+hblkhd)
         57416 MiB available memory on the node where the printing process lives
     GPU memory used/free/total (MiB): 3336 / 12944 / 16280
------------------
     ethr =  3.63E-05,  avg # of iterations =  1.0

     negative rho (up, down):  3.713E-01 2.872E-01

     total cpu time spent up to now is      208.9 secs

     total energy              =    -587.28974947 Ry
     estimated scf accuracy    <       0.08704011 Ry

     total magnetization       =     2.92 Bohr mag/cell
     absolute magnetization    =     5.37 Bohr mag/cell
[tb_dev] Currently allocated     3.54E+01 Mbytes, locked:    0 /  17
[tb_pin] Currently allocated     0.00E+00 Mbytes, locked:    0 /   0

     iteration # 18     ecut=    55.00 Ry     beta= 0.40
     Davidson diagonalization with overlap

---- Real-time Memory Report at c_bands before calling an iterative solver
          2662 MiB given to the printing process from OS
         -1659 MiB allocation reported by mallinfo(arena+hblkhd)
         57416 MiB available memory on the node where the printing process lives
     GPU memory used/free/total (MiB): 3336 / 12944 / 16280
------------------
     ethr =  3.63E-05,  avg # of iterations =  2.1

     negative rho (up, down):  3.704E-01 2.881E-01

     total cpu time spent up to now is      218.3 secs

     total energy              =    -587.29302237 Ry
     estimated scf accuracy    <       0.03925372 Ry

     total magnetization       =     2.15 Bohr mag/cell
     absolute magnetization    =     5.38 Bohr mag/cell
[tb_dev] Currently allocated     3.54E+01 Mbytes, locked:    0 /  17
[tb_pin] Currently allocated     0.00E+00 Mbytes, locked:    0 /   0

     iteration # 19     ecut=    55.00 Ry     beta= 0.40
     Davidson diagonalization with overlap

---- Real-time Memory Report at c_bands before calling an iterative solver
          2662 MiB given to the printing process from OS
         -1659 MiB allocation reported by mallinfo(arena+hblkhd)
         57416 MiB available memory on the node where the printing process lives
     GPU memory used/free/total (MiB): 3336 / 12944 / 16280
------------------
     ethr =  3.63E-05,  avg # of iterations =  1.5

     negative rho (up, down):  3.705E-01 2.881E-01

     total cpu time spent up to now is      227.1 secs

     total energy              =    -587.29431412 Ry
     estimated scf accuracy    <       0.00707192 Ry

     total magnetization       =     1.93 Bohr mag/cell
     absolute magnetization    =     5.21 Bohr mag/cell
[tb_dev] Currently allocated     3.54E+01 Mbytes, locked:    0 /  17
[tb_pin] Currently allocated     0.00E+00 Mbytes, locked:    0 /   0

     iteration # 20     ecut=    55.00 Ry     beta= 0.40
     Davidson diagonalization with overlap

---- Real-time Memory Report at c_bands before calling an iterative solver
          2665 MiB given to the printing process from OS
         -1659 MiB allocation reported by mallinfo(arena+hblkhd)
         57416 MiB available memory on the node where the printing process lives
     GPU memory used/free/total (MiB): 3336 / 12944 / 16280
------------------
     ethr =  1.31E-05,  avg # of iterations =  5.2

     negative rho (up, down):  3.712E-01 2.872E-01

     total cpu time spent up to now is      239.8 secs

     total energy              =    -587.29542560 Ry
     estimated scf accuracy    <       0.00091335 Ry

     total magnetization       =     1.88 Bohr mag/cell
     absolute magnetization    =     5.21 Bohr mag/cell
[tb_dev] Currently allocated     3.54E+01 Mbytes, locked:    0 /  17
[tb_pin] Currently allocated     0.00E+00 Mbytes, locked:    0 /   0

     iteration # 21     ecut=    55.00 Ry     beta= 0.40
     Davidson diagonalization with overlap

---- Real-time Memory Report at c_bands before calling an iterative solver
          2665 MiB given to the printing process from OS
         -1659 MiB allocation reported by mallinfo(arena+hblkhd)
         57416 MiB available memory on the node where the printing process lives
     GPU memory used/free/total (MiB): 3336 / 12944 / 16280
------------------
     c_bands:  2 eigenvalues not converged
     c_bands:  2 eigenvalues not converged
     c_bands:  1 eigenvalues not converged
     c_bands:  1 eigenvalues not converged
     c_bands:  1 eigenvalues not converged
     c_bands:  1 eigenvalues not converged
     c_bands:  1 eigenvalues not converged
     c_bands:  1 eigenvalues not converged
     c_bands:  2 eigenvalues not converged
     c_bands:  1 eigenvalues not converged
     c_bands:  2 eigenvalues not converged
     c_bands:  1 eigenvalues not converged
     c_bands:  1 eigenvalues not converged
     c_bands:  1 eigenvalues not converged
     c_bands:  1 eigenvalues not converged
     c_bands:  1 eigenvalues not converged
     c_bands:  1 eigenvalues not converged
     c_bands:  2 eigenvalues not converged
     c_bands:  1 eigenvalues not converged
     c_bands:  1 eigenvalues not converged
     c_bands:  3 eigenvalues not converged
     c_bands:  2 eigenvalues not converged
     c_bands:  1 eigenvalues not converged
     c_bands:  1 eigenvalues not converged
     c_bands:  1 eigenvalues not converged
     c_bands:  1 eigenvalues not converged
     c_bands:  1 eigenvalues not converged
     c_bands:  1 eigenvalues not converged
     c_bands:  1 eigenvalues not converged
     c_bands:  1 eigenvalues not converged
     c_bands:  1 eigenvalues not converged
     c_bands:  1 eigenvalues not converged
     c_bands:  2 eigenvalues not converged
     c_bands:  1 eigenvalues not converged
     c_bands:  1 eigenvalues not converged
     c_bands:  1 eigenvalues not converged
     c_bands:  1 eigenvalues not converged
     c_bands:  1 eigenvalues not converged
     c_bands:  2 eigenvalues not converged
     c_bands:  1 eigenvalues not converged
     ethr =  1.69E-06,  avg # of iterations = 10.7

     negative rho (up, down):  3.714E-01 2.870E-01

     total cpu time spent up to now is      260.2 secs

     total energy              =    -587.29639526 Ry
     estimated scf accuracy    <       0.00033978 Ry

     total magnetization       =     1.86 Bohr mag/cell
     absolute magnetization    =     5.21 Bohr mag/cell
[tb_dev] Currently allocated     3.54E+01 Mbytes, locked:    0 /  17
[tb_pin] Currently allocated     0.00E+00 Mbytes, locked:    0 /   0

     iteration # 22     ecut=    55.00 Ry     beta= 0.40
     Davidson diagonalization with overlap

---- Real-time Memory Report at c_bands before calling an iterative solver
          2665 MiB given to the printing process from OS
         -1659 MiB allocation reported by mallinfo(arena+hblkhd)
         57415 MiB available memory on the node where the printing process lives
     GPU memory used/free/total (MiB): 3336 / 12944 / 16280
------------------
     c_bands:  1 eigenvalues not converged
     c_bands:  2 eigenvalues not converged
     c_bands:  2 eigenvalues not converged
     c_bands:  1 eigenvalues not converged
     c_bands:  1 eigenvalues not converged
     ethr =  6.29E-07,  avg # of iterations =  6.2

     negative rho (up, down):  3.718E-01 2.865E-01

     total cpu time spent up to now is      274.7 secs

     total energy              =    -587.29699704 Ry
     estimated scf accuracy    <       0.00205985 Ry

     total magnetization       =     1.81 Bohr mag/cell
     absolute magnetization    =     5.34 Bohr mag/cell
[tb_dev] Currently allocated     3.54E+01 Mbytes, locked:    0 /  17
[tb_pin] Currently allocated     0.00E+00 Mbytes, locked:    0 /   0

     iteration # 23     ecut=    55.00 Ry     beta= 0.40
     Davidson diagonalization with overlap

---- Real-time Memory Report at c_bands before calling an iterative solver
          2665 MiB given to the printing process from OS
         -1659 MiB allocation reported by mallinfo(arena+hblkhd)
         57415 MiB available memory on the node where the printing process lives
     GPU memory used/free/total (MiB): 3336 / 12944 / 16280
------------------
     c_bands:  1 eigenvalues not converged
     c_bands:  1 eigenvalues not converged
     c_bands:  1 eigenvalues not converged
     c_bands:  1 eigenvalues not converged
     ethr =  6.29E-07,  avg # of iterations =  7.3

     negative rho (up, down):  3.730E-01 2.852E-01

     total cpu time spent up to now is      290.8 secs

     total energy              =    -587.29742047 Ry
     estimated scf accuracy    <       0.00166116 Ry

     total magnetization       =     1.74 Bohr mag/cell
     absolute magnetization    =     5.41 Bohr mag/cell
[tb_dev] Currently allocated     3.54E+01 Mbytes, locked:    0 /  17
[tb_pin] Currently allocated     0.00E+00 Mbytes, locked:    0 /   0

     iteration # 24     ecut=    55.00 Ry     beta= 0.40
     Davidson diagonalization with overlap

---- Real-time Memory Report at c_bands before calling an iterative solver
          2665 MiB given to the printing process from OS
         -1659 MiB allocation reported by mallinfo(arena+hblkhd)
         57416 MiB available memory on the node where the printing process lives
     GPU memory used/free/total (MiB): 3336 / 12944 / 16280
------------------
     c_bands:  1 eigenvalues not converged
     c_bands:  1 eigenvalues not converged
     c_bands:  2 eigenvalues not converged
     c_bands:  1 eigenvalues not converged
     c_bands:  1 eigenvalues not converged
     c_bands:  1 eigenvalues not converged
     c_bands:  1 eigenvalues not converged
     c_bands:  1 eigenvalues not converged
     c_bands:  1 eigenvalues not converged
     c_bands:  1 eigenvalues not converged
     c_bands:  1 eigenvalues not converged
     c_bands:  1 eigenvalues not converged
     ethr =  6.29E-07,  avg # of iterations =  9.9

     negative rho (up, down):  3.739E-01 2.842E-01

     total cpu time spent up to now is      311.1 secs

     total energy              =    -587.29804947 Ry
     estimated scf accuracy    <       0.00021766 Ry

     total magnetization       =     1.65 Bohr mag/cell
     absolute magnetization    =     5.48 Bohr mag/cell
[tb_dev] Currently allocated     3.54E+01 Mbytes, locked:    0 /  17
[tb_pin] Currently allocated     0.00E+00 Mbytes, locked:    0 /   0

     iteration # 25     ecut=    55.00 Ry     beta= 0.40
     Davidson diagonalization with overlap

---- Real-time Memory Report at c_bands before calling an iterative solver
          2668 MiB given to the printing process from OS
         -1659 MiB allocation reported by mallinfo(arena+hblkhd)
         57416 MiB available memory on the node where the printing process lives
     GPU memory used/free/total (MiB): 3336 / 12944 / 16280
------------------
     c_bands:  1 eigenvalues not converged
     c_bands:  1 eigenvalues not converged
     c_bands:  1 eigenvalues not converged
     c_bands:  1 eigenvalues not converged
     c_bands:  1 eigenvalues not converged
     c_bands:  1 eigenvalues not converged
     c_bands:  1 eigenvalues not converged
     c_bands:  1 eigenvalues not converged
     c_bands:  1 eigenvalues not converged
     c_bands:  1 eigenvalues not converged
     ethr =  4.03E-07,  avg # of iterations =  7.3

     negative rho (up, down):  3.741E-01 2.839E-01

     total cpu time spent up to now is      327.0 secs

     total energy              =    -587.29829646 Ry
     estimated scf accuracy    <       0.00009669 Ry

     total magnetization       =     1.63 Bohr mag/cell
     absolute magnetization    =     5.46 Bohr mag/cell
[tb_dev] Currently allocated     3.54E+01 Mbytes, locked:    0 /  17
[tb_pin] Currently allocated     0.00E+00 Mbytes, locked:    0 /   0

     iteration # 26     ecut=    55.00 Ry     beta= 0.40
     Davidson diagonalization with overlap

---- Real-time Memory Report at c_bands before calling an iterative solver
          2668 MiB given to the printing process from OS
         -1659 MiB allocation reported by mallinfo(arena+hblkhd)
         57415 MiB available memory on the node where the printing process lives
     GPU memory used/free/total (MiB): 3336 / 12944 / 16280
------------------
     c_bands:  1 eigenvalues not converged
     c_bands:  1 eigenvalues not converged
     c_bands:  1 eigenvalues not converged
     ethr =  1.79E-07,  avg # of iterations =  6.7

     negative rho (up, down):  3.747E-01 2.833E-01

     total cpu time spent up to now is      342.1 secs

     total energy              =    -587.29850527 Ry
     estimated scf accuracy    <       0.00010742 Ry

     total magnetization       =     1.61 Bohr mag/cell
     absolute magnetization    =     5.49 Bohr mag/cell
[tb_dev] Currently allocated     3.54E+01 Mbytes, locked:    0 /  17
[tb_pin] Currently allocated     0.00E+00 Mbytes, locked:    0 /   0

     iteration # 27     ecut=    55.00 Ry     beta= 0.40
     Davidson diagonalization with overlap

---- Real-time Memory Report at c_bands before calling an iterative solver
          2668 MiB given to the printing process from OS
         -1659 MiB allocation reported by mallinfo(arena+hblkhd)
         57416 MiB available memory on the node where the printing process lives
     GPU memory used/free/total (MiB): 3336 / 12944 / 16280
------------------
     c_bands:  1 eigenvalues not converged
     c_bands:  1 eigenvalues not converged
     c_bands:  1 eigenvalues not converged
     c_bands:  1 eigenvalues not converged
     c_bands:  1 eigenvalues not converged
     c_bands:  1 eigenvalues not converged
     c_bands:  1 eigenvalues not converged
     c_bands:  1 eigenvalues not converged
     c_bands:  1 eigenvalues not converged
     c_bands:  1 eigenvalues not converged
     c_bands:  1 eigenvalues not converged
     ethr =  1.79E-07,  avg # of iterations = 10.8

     negative rho (up, down):  3.754E-01 2.825E-01

     total cpu time spent up to now is      363.6 secs

     total energy              =    -587.29890684 Ry
     estimated scf accuracy    <       0.00017067 Ry

     total magnetization       =     1.54 Bohr mag/cell
     absolute magnetization    =     5.62 Bohr mag/cell
[tb_dev] Currently allocated     3.54E+01 Mbytes, locked:    0 /  17
[tb_pin] Currently allocated     0.00E+00 Mbytes, locked:    0 /   0

     iteration # 28     ecut=    55.00 Ry     beta= 0.40
     Davidson diagonalization with overlap

---- Real-time Memory Report at c_bands before calling an iterative solver
          2668 MiB given to the printing process from OS
         -1659 MiB allocation reported by mallinfo(arena+hblkhd)
         57416 MiB available memory on the node where the printing process lives
     GPU memory used/free/total (MiB): 3336 / 12944 / 16280
------------------
     c_bands:  1 eigenvalues not converged
     c_bands:  1 eigenvalues not converged
     c_bands:  1 eigenvalues not converged
     c_bands:  1 eigenvalues not converged
     c_bands:  1 eigenvalues not converged
     c_bands:  1 eigenvalues not converged
     c_bands:  1 eigenvalues not converged
     c_bands:  1 eigenvalues not converged
     c_bands:  1 eigenvalues not converged
     c_bands:  1 eigenvalues not converged
     c_bands:  2 eigenvalues not converged
     ethr =  1.79E-07,  avg # of iterations = 11.7

     negative rho (up, down):  3.751E-01 2.827E-01

     total cpu time spent up to now is      386.4 secs

     total energy              =    -587.29940339 Ry
     estimated scf accuracy    <       0.00005040 Ry

     total magnetization       =     1.44 Bohr mag/cell
     absolute magnetization    =     5.69 Bohr mag/cell
[tb_dev] Currently allocated     3.54E+01 Mbytes, locked:    0 /  17
[tb_pin] Currently allocated     0.00E+00 Mbytes, locked:    0 /   0

     iteration # 29     ecut=    55.00 Ry     beta= 0.40
     Davidson diagonalization with overlap

---- Real-time Memory Report at c_bands before calling an iterative solver
          2668 MiB given to the printing process from OS
         -1659 MiB allocation reported by mallinfo(arena+hblkhd)
         57415 MiB available memory on the node where the printing process lives
     GPU memory used/free/total (MiB): 3336 / 12944 / 16280
------------------
     c_bands:  1 eigenvalues not converged
     c_bands:  1 eigenvalues not converged
     c_bands:  2 eigenvalues not converged
     c_bands:  1 eigenvalues not converged
     c_bands:  1 eigenvalues not converged
     ethr =  9.33E-08,  avg # of iterations =  6.9

     negative rho (up, down):  3.758E-01 2.820E-01

     total cpu time spent up to now is      401.7 secs

     total energy              =    -587.29943756 Ry
     estimated scf accuracy    <       0.00002939 Ry

     total magnetization       =     1.41 Bohr mag/cell
     absolute magnetization    =     5.67 Bohr mag/cell
[tb_dev] Currently allocated     3.54E+01 Mbytes, locked:    0 /  17
[tb_pin] Currently allocated     0.00E+00 Mbytes, locked:    0 /   0

     iteration # 30     ecut=    55.00 Ry     beta= 0.40
     Davidson diagonalization with overlap

---- Real-time Memory Report at c_bands before calling an iterative solver
          2668 MiB given to the printing process from OS
         -1659 MiB allocation reported by mallinfo(arena+hblkhd)
         57417 MiB available memory on the node where the printing process lives
     GPU memory used/free/total (MiB): 3336 / 12944 / 16280
------------------
     c_bands:  1 eigenvalues not converged
     c_bands:  1 eigenvalues not converged
     c_bands:  1 eigenvalues not converged
     c_bands:  3 eigenvalues not converged
     c_bands:  2 eigenvalues not converged
     c_bands:  1 eigenvalues not converged
     c_bands:  2 eigenvalues not converged
     c_bands:  1 eigenvalues not converged
     c_bands:  1 eigenvalues not converged
     c_bands:  3 eigenvalues not converged
     c_bands:  3 eigenvalues not converged
     c_bands:  2 eigenvalues not converged
     c_bands:  2 eigenvalues not converged
     c_bands:  1 eigenvalues not converged
     c_bands:  2 eigenvalues not converged
     c_bands:  2 eigenvalues not converged
     c_bands:  3 eigenvalues not converged
     c_bands:  1 eigenvalues not converged
     c_bands:  2 eigenvalues not converged
     c_bands:  5 eigenvalues not converged
     c_bands:  1 eigenvalues not converged
     c_bands:  1 eigenvalues not converged
     c_bands:  1 eigenvalues not converged
     c_bands:  1 eigenvalues not converged
     c_bands:  2 eigenvalues not converged
     c_bands:  1 eigenvalues not converged
     c_bands:  1 eigenvalues not converged
     c_bands:  1 eigenvalues not converged
     c_bands:  2 eigenvalues not converged
     c_bands:  1 eigenvalues not converged
     c_bands:  2 eigenvalues not converged
     c_bands:  3 eigenvalues not converged
     c_bands:  5 eigenvalues not converged
     c_bands:  1 eigenvalues not converged
     c_bands:  2 eigenvalues not converged
     c_bands:  2 eigenvalues not converged
     c_bands:  1 eigenvalues not converged
     c_bands:  1 eigenvalues not converged
     c_bands:  1 eigenvalues not converged
     c_bands:  1 eigenvalues not converged
     c_bands:  2 eigenvalues not converged
     c_bands:  3 eigenvalues not converged
     c_bands:  1 eigenvalues not converged
     c_bands:  1 eigenvalues not converged
     c_bands:  5 eigenvalues not converged
     ethr =  5.44E-08,  avg # of iterations = 15.1

     negative rho (up, down):  3.755E-01 2.823E-01

     total cpu time spent up to now is      430.0 secs

     total energy              =    -587.29894634 Ry
     estimated scf accuracy    <       0.00007877 Ry

     total magnetization       =     1.27 Bohr mag/cell
     absolute magnetization    =     5.85 Bohr mag/cell
[tb_dev] Currently allocated     3.54E+01 Mbytes, locked:    0 /  17
[tb_pin] Currently allocated     0.00E+00 Mbytes, locked:    0 /   0

     iteration # 31     ecut=    55.00 Ry     beta= 0.40
     Davidson diagonalization with overlap

---- Real-time Memory Report at c_bands before calling an iterative solver
          2668 MiB given to the printing process from OS
         -1659 MiB allocation reported by mallinfo(arena+hblkhd)
         57416 MiB available memory on the node where the printing process lives
     GPU memory used/free/total (MiB): 3336 / 12944 / 16280
------------------
     c_bands:  1 eigenvalues not converged
     c_bands:  1 eigenvalues not converged
     c_bands:  1 eigenvalues not converged
     c_bands:  1 eigenvalues not converged
     c_bands:  1 eigenvalues not converged
     c_bands:  2 eigenvalues not converged
     c_bands:  1 eigenvalues not converged
     c_bands:  1 eigenvalues not converged
     ethr =  5.44E-08,  avg # of iterations = 12.7

     negative rho (up, down):  3.757E-01 2.821E-01

     total cpu time spent up to now is      454.4 secs

     total energy              =    -587.29899263 Ry
     estimated scf accuracy    <       0.00003222 Ry

     total magnetization       =     1.41 Bohr mag/cell
     absolute magnetization    =     5.72 Bohr mag/cell
[tb_dev] Currently allocated     3.54E+01 Mbytes, locked:    0 /  17
[tb_pin] Currently allocated     0.00E+00 Mbytes, locked:    0 /   0

     iteration # 32     ecut=    55.00 Ry     beta= 0.40
     Davidson diagonalization with overlap

---- Real-time Memory Report at c_bands before calling an iterative solver
          2668 MiB given to the printing process from OS
         -1659 MiB allocation reported by mallinfo(arena+hblkhd)
         57417 MiB available memory on the node where the printing process lives
     GPU memory used/free/total (MiB): 3336 / 12944 / 16280
------------------
     c_bands:  1 eigenvalues not converged
     ethr =  5.44E-08,  avg # of iterations = 10.5

     negative rho (up, down):  3.750E-01 2.828E-01

     total cpu time spent up to now is      475.3 secs

     total energy              =    -587.29322738 Ry
     estimated scf accuracy    <       0.00013142 Ry

     total magnetization       =     1.47 Bohr mag/cell
     absolute magnetization    =     5.74 Bohr mag/cell
[tb_dev] Currently allocated     3.54E+01 Mbytes, locked:    0 /  17
[tb_pin] Currently allocated     0.00E+00 Mbytes, locked:    0 /   0

     iteration # 33     ecut=    55.00 Ry     beta= 0.40
     Davidson diagonalization with overlap

---- Real-time Memory Report at c_bands before calling an iterative solver
          2668 MiB given to the printing process from OS
         -1659 MiB allocation reported by mallinfo(arena+hblkhd)
         57417 MiB available memory on the node where the printing process lives
     GPU memory used/free/total (MiB): 3336 / 12944 / 16280
------------------
     c_bands:  1 eigenvalues not converged
     c_bands:  3 eigenvalues not converged
     c_bands:  3 eigenvalues not converged
     c_bands:  2 eigenvalues not converged
     c_bands:  3 eigenvalues not converged
     c_bands:  1 eigenvalues not converged
     c_bands:  2 eigenvalues not converged
     c_bands:  3 eigenvalues not converged
     c_bands:  2 eigenvalues not converged
     c_bands:  2 eigenvalues not converged
     c_bands:  2 eigenvalues not converged
     c_bands:  2 eigenvalues not converged
     c_bands:  1 eigenvalues not converged
     c_bands:  1 eigenvalues not converged
     c_bands:  1 eigenvalues not converged
     c_bands:  1 eigenvalues not converged
     c_bands:  1 eigenvalues not converged
     c_bands:  2 eigenvalues not converged
     c_bands:  1 eigenvalues not converged
     c_bands:  1 eigenvalues not converged
     c_bands:  2 eigenvalues not converged
     c_bands:  1 eigenvalues not converged
     c_bands:  3 eigenvalues not converged
     c_bands:  2 eigenvalues not converged
     c_bands:  1 eigenvalues not converged
     c_bands:  1 eigenvalues not converged
     c_bands:  1 eigenvalues not converged
     c_bands:  1 eigenvalues not converged
     c_bands:  2 eigenvalues not converged
     c_bands:  2 eigenvalues not converged
     c_bands:  3 eigenvalues not converged
     c_bands:  2 eigenvalues not converged
     c_bands:  3 eigenvalues not converged
     c_bands:  2 eigenvalues not converged
     c_bands:  3 eigenvalues not converged
     c_bands:  2 eigenvalues not converged
     c_bands:  1 eigenvalues not converged
     c_bands:  2 eigenvalues not converged
     c_bands:  3 eigenvalues not converged
     c_bands:  2 eigenvalues not converged
     c_bands:  3 eigenvalues not converged
     c_bands:  5 eigenvalues not converged
     c_bands:  1 eigenvalues not converged
     c_bands:  1 eigenvalues not converged
     c_bands:  3 eigenvalues not converged
     c_bands:  1 eigenvalues not converged
     c_bands:  2 eigenvalues not converged
     c_bands:  1 eigenvalues not converged
     c_bands:  5 eigenvalues not converged
     c_bands:  3 eigenvalues not converged
     c_bands:  4 eigenvalues not converged
     c_bands:  3 eigenvalues not converged
     c_bands:  3 eigenvalues not converged
     c_bands:  5 eigenvalues not converged
     c_bands:  4 eigenvalues not converged
     c_bands:  5 eigenvalues not converged
     c_bands:  3 eigenvalues not converged
     c_bands:  5 eigenvalues not converged
     c_bands:  5 eigenvalues not converged
     c_bands:  4 eigenvalues not converged
     c_bands:  5 eigenvalues not converged
     c_bands:  1 eigenvalues not converged
     c_bands:  1 eigenvalues not converged
     c_bands:  3 eigenvalues not converged
     c_bands:  4 eigenvalues not converged
     c_bands:  2 eigenvalues not converged
     c_bands:  4 eigenvalues not converged
     c_bands:  2 eigenvalues not converged
     c_bands:  3 eigenvalues not converged
     c_bands:  2 eigenvalues not converged
     c_bands:  3 eigenvalues not converged
     c_bands:  5 eigenvalues not converged
     c_bands:  1 eigenvalues not converged
     c_bands:  5 eigenvalues not converged
     c_bands:  2 eigenvalues not converged
     c_bands:  2 eigenvalues not converged
     c_bands:  4 eigenvalues not converged
     c_bands:  5 eigenvalues not converged
     c_bands:  5 eigenvalues not converged
     c_bands:  3 eigenvalues not converged
     c_bands:  4 eigenvalues not converged
     c_bands:  3 eigenvalues not converged
     c_bands:  3 eigenvalues not converged
     c_bands:  1 eigenvalues not converged
     c_bands:  3 eigenvalues not converged
     c_bands:  2 eigenvalues not converged
     c_bands:  3 eigenvalues not converged
     c_bands:  5 eigenvalues not converged
     c_bands:  2 eigenvalues not converged
     c_bands:  1 eigenvalues not converged
     c_bands:  2 eigenvalues not converged
     c_bands:  3 eigenvalues not converged
     c_bands:  4 eigenvalues not converged
     c_bands:  4 eigenvalues not converged
     ethr =  5.44E-08,  avg # of iterations = 18.8

     negative rho (up, down):  3.750E-01 2.828E-01

     total cpu time spent up to now is      511.2 secs

     total energy              =    -587.29750612 Ry
     estimated scf accuracy    <       0.00086683 Ry

     total magnetization       =     1.72 Bohr mag/cell
     absolute magnetization    =     5.76 Bohr mag/cell
[tb_dev] Currently allocated     3.54E+01 Mbytes, locked:    0 /  17
[tb_pin] Currently allocated     0.00E+00 Mbytes, locked:    0 /   0

     iteration # 34     ecut=    55.00 Ry     beta= 0.40
     Davidson diagonalization with overlap

---- Real-time Memory Report at c_bands before calling an iterative solver
          2668 MiB given to the printing process from OS
         -1659 MiB allocation reported by mallinfo(arena+hblkhd)
         57417 MiB available memory on the node where the printing process lives
     GPU memory used/free/total (MiB): 3336 / 12944 / 16280
------------------
     c_bands:  1 eigenvalues not converged
     c_bands:  1 eigenvalues not converged
     c_bands:  1 eigenvalues not converged
     c_bands:  1 eigenvalues not converged
     c_bands:  1 eigenvalues not converged
     ethr =  5.44E-08,  avg # of iterations =  6.9

     negative rho (up, down):  3.751E-01 2.827E-01

     total cpu time spent up to now is      526.1 secs

     total energy              =    -587.29780499 Ry
     estimated scf accuracy    <       0.00067915 Ry

     total magnetization       =     1.70 Bohr mag/cell
     absolute magnetization    =     5.75 Bohr mag/cell
[tb_dev] Currently allocated     3.54E+01 Mbytes, locked:    0 /  17
[tb_pin] Currently allocated     0.00E+00 Mbytes, locked:    0 /   0

     iteration # 35     ecut=    55.00 Ry     beta= 0.40
     Davidson diagonalization with overlap

---- Real-time Memory Report at c_bands before calling an iterative solver
          2668 MiB given to the printing process from OS
         -1659 MiB allocation reported by mallinfo(arena+hblkhd)
         57416 MiB available memory on the node where the printing process lives
     GPU memory used/free/total (MiB): 3336 / 12944 / 16280
------------------
     c_bands:  1 eigenvalues not converged
     c_bands:  1 eigenvalues not converged
     c_bands:  2 eigenvalues not converged
     ethr =  5.44E-08,  avg # of iterations = 11.3

     negative rho (up, down):  3.757E-01 2.820E-01

     total cpu time spent up to now is      548.5 secs

     total energy              =    -587.29800054 Ry
     estimated scf accuracy    <       0.00046400 Ry

     total magnetization       =     1.64 Bohr mag/cell
     absolute magnetization    =     5.74 Bohr mag/cell
[tb_dev] Currently allocated     3.54E+01 Mbytes, locked:    0 /  17
[tb_pin] Currently allocated     0.00E+00 Mbytes, locked:    0 /   0

     iteration # 36     ecut=    55.00 Ry     beta= 0.40
     Davidson diagonalization with overlap

---- Real-time Memory Report at c_bands before calling an iterative solver
          2668 MiB given to the printing process from OS
         -1659 MiB allocation reported by mallinfo(arena+hblkhd)
         57417 MiB available memory on the node where the printing process lives
     GPU memory used/free/total (MiB): 3336 / 12944 / 16280
------------------
     c_bands:  1 eigenvalues not converged
     c_bands:  1 eigenvalues not converged
     c_bands:  1 eigenvalues not converged
     c_bands:  2 eigenvalues not converged
     c_bands:  1 eigenvalues not converged
     c_bands:  3 eigenvalues not converged
     c_bands:  2 eigenvalues not converged
     c_bands:  1 eigenvalues not converged
     c_bands:  1 eigenvalues not converged
     c_bands:  1 eigenvalues not converged
     c_bands:  1 eigenvalues not converged
     c_bands:  1 eigenvalues not converged
     c_bands:  3 eigenvalues not converged
     c_bands:  2 eigenvalues not converged
     c_bands:  3 eigenvalues not converged
     c_bands:  4 eigenvalues not converged
     c_bands:  2 eigenvalues not converged
     c_bands:  1 eigenvalues not converged
     c_bands:  2 eigenvalues not converged
     c_bands:  2 eigenvalues not converged
     c_bands:  2 eigenvalues not converged
     c_bands:  4 eigenvalues not converged
     c_bands:  4 eigenvalues not converged
     c_bands:  1 eigenvalues not converged
     c_bands:  1 eigenvalues not converged
     c_bands:  2 eigenvalues not converged
     c_bands:  1 eigenvalues not converged
     c_bands:  3 eigenvalues not converged
     c_bands:  2 eigenvalues not converged
     c_bands:  1 eigenvalues not converged
     c_bands:  2 eigenvalues not converged
     c_bands:  1 eigenvalues not converged
     c_bands:  2 eigenvalues not converged
     c_bands:  1 eigenvalues not converged
     c_bands:  2 eigenvalues not converged
     c_bands:  2 eigenvalues not converged
     c_bands:  2 eigenvalues not converged
     c_bands:  1 eigenvalues not converged
     c_bands:  1 eigenvalues not converged
     c_bands:  2 eigenvalues not converged
     c_bands:  4 eigenvalues not converged
     c_bands:  2 eigenvalues not converged
     c_bands:  4 eigenvalues not converged
     c_bands:  2 eigenvalues not converged
     c_bands:  2 eigenvalues not converged
     c_bands:  1 eigenvalues not converged
     c_bands:  4 eigenvalues not converged
     c_bands:  3 eigenvalues not converged
     c_bands:  5 eigenvalues not converged
     c_bands:  2 eigenvalues not converged
     c_bands:  4 eigenvalues not converged
     c_bands:  1 eigenvalues not converged
     c_bands:  1 eigenvalues not converged
     c_bands:  3 eigenvalues not converged
     c_bands:  1 eigenvalues not converged
     c_bands:  5 eigenvalues not converged
     c_bands:  3 eigenvalues not converged
     c_bands:  5 eigenvalues not converged
     ethr =  5.44E-08,  avg # of iterations = 15.0

     negative rho (up, down):  3.758E-01 2.819E-01

     total cpu time spent up to now is      577.5 secs

     total energy              =    -587.29899609 Ry
     estimated scf accuracy    <       0.00081976 Ry

     total magnetization       =     1.53 Bohr mag/cell
     absolute magnetization    =     5.79 Bohr mag/cell
[tb_dev] Currently allocated     3.54E+01 Mbytes, locked:    0 /  17
[tb_pin] Currently allocated     0.00E+00 Mbytes, locked:    0 /   0

     iteration # 37     ecut=    55.00 Ry     beta= 0.40
     Davidson diagonalization with overlap

---- Real-time Memory Report at c_bands before calling an iterative solver
          2668 MiB given to the printing process from OS
         -1659 MiB allocation reported by mallinfo(arena+hblkhd)
         57418 MiB available memory on the node where the printing process lives
     GPU memory used/free/total (MiB): 3336 / 12944 / 16280
------------------
     c_bands:  1 eigenvalues not converged
     c_bands:  1 eigenvalues not converged
     c_bands:  1 eigenvalues not converged
     c_bands:  1 eigenvalues not converged
     c_bands:  2 eigenvalues not converged
     c_bands:  2 eigenvalues not converged
     c_bands:  3 eigenvalues not converged
     c_bands:  1 eigenvalues not converged
     c_bands:  1 eigenvalues not converged
     c_bands:  2 eigenvalues not converged
     c_bands:  1 eigenvalues not converged
     ethr =  5.44E-08,  avg # of iterations = 11.9

     negative rho (up, down):  3.761E-01 2.816E-01

     total cpu time spent up to now is      600.6 secs

     total energy              =    -587.29936121 Ry
     estimated scf accuracy    <       0.00080851 Ry

     total magnetization       =     1.46 Bohr mag/cell
     absolute magnetization    =     5.80 Bohr mag/cell
[tb_dev] Currently allocated     3.54E+01 Mbytes, locked:    0 /  17
[tb_pin] Currently allocated     0.00E+00 Mbytes, locked:    0 /   0

     iteration # 38     ecut=    55.00 Ry     beta= 0.40
     Davidson diagonalization with overlap

---- Real-time Memory Report at c_bands before calling an iterative solver
[...]
     c_bands:  2 eigenvalues not converged
     c_bands:  3 eigenvalues not converged
     c_bands:  3 eigenvalues not converged
     c_bands:  2 eigenvalues not converged
     c_bands:  2 eigenvalues not converged
     c_bands:  3 eigenvalues not converged
     c_bands:  1 eigenvalues not converged
     c_bands:  4 eigenvalues not converged
     c_bands:  4 eigenvalues not converged
     c_bands:  2 eigenvalues not converged
     c_bands:  2 eigenvalues not converged
     c_bands:  2 eigenvalues not converged
     c_bands:  1 eigenvalues not converged
     c_bands:  3 eigenvalues not converged
     c_bands:  1 eigenvalues not converged
     c_bands:  4 eigenvalues not converged
     c_bands:  2 eigenvalues not converged
     c_bands:  5 eigenvalues not converged
     c_bands:  3 eigenvalues not converged
     c_bands:  3 eigenvalues not converged
     c_bands:  3 eigenvalues not converged
     c_bands:  4 eigenvalues not converged
     c_bands:  2 eigenvalues not converged
     c_bands:  2 eigenvalues not converged
     c_bands:  1 eigenvalues not converged
     c_bands:  2 eigenvalues not converged
     c_bands:  2 eigenvalues not converged
     c_bands:  2 eigenvalues not converged
     c_bands:  1 eigenvalues not converged
     c_bands:  4 eigenvalues not converged
     c_bands:  2 eigenvalues not converged
     c_bands:  3 eigenvalues not converged
     c_bands:  2 eigenvalues not converged
     c_bands:  2 eigenvalues not converged
     c_bands:  1 eigenvalues not converged
     c_bands:  2 eigenvalues not converged
     c_bands:  1 eigenvalues not converged
     c_bands:  2 eigenvalues not converged
     c_bands:  2 eigenvalues not converged
     c_bands:  2 eigenvalues not converged
     c_bands:  3 eigenvalues not converged
     c_bands:  3 eigenvalues not converged
     c_bands:  2 eigenvalues not converged
     c_bands:  2 eigenvalues not converged
     c_bands:  2 eigenvalues not converged
     c_bands:  5 eigenvalues not converged
     c_bands:  4 eigenvalues not converged
     c_bands:  4 eigenvalues not converged
     c_bands:  1 eigenvalues not converged
     c_bands:  1 eigenvalues not converged
     c_bands:  4 eigenvalues not converged
     c_bands:  1 eigenvalues not converged
     c_bands:  3 eigenvalues not converged
     c_bands:  3 eigenvalues not converged
     c_bands:  5 eigenvalues not converged
     c_bands:  2 eigenvalues not converged
     c_bands:  1 eigenvalues not converged
     c_bands:  1 eigenvalues not converged
     c_bands:  1 eigenvalues not converged
     c_bands:  3 eigenvalues not converged
     c_bands:  1 eigenvalues not converged
     c_bands:  2 eigenvalues not converged
     c_bands:  2 eigenvalues not converged
     c_bands:  4 eigenvalues not converged
     c_bands:  1 eigenvalues not converged
     c_bands:  4 eigenvalues not converged
     c_bands:  4 eigenvalues not converged
     c_bands:  4 eigenvalues not converged
     c_bands:  5 eigenvalues not converged
     c_bands:  5 eigenvalues not converged
     c_bands:  4 eigenvalues not converged
     c_bands:  2 eigenvalues not converged
     c_bands:  1 eigenvalues not converged
     c_bands:  1 eigenvalues not converged
     c_bands:  4 eigenvalues not converged
     c_bands:  1 eigenvalues not converged
     c_bands:  1 eigenvalues not converged
     c_bands:  1 eigenvalues not converged
     c_bands:  1 eigenvalues not converged
     c_bands:  5 eigenvalues not converged
     c_bands:  2 eigenvalues not converged
     c_bands:  2 eigenvalues not converged
     c_bands:  1 eigenvalues not converged
     c_bands:  1 eigenvalues not converged
     c_bands:  2 eigenvalues not converged
     c_bands:  3 eigenvalues not converged
     c_bands:  4 eigenvalues not converged
     c_bands:  1 eigenvalues not converged
     c_bands:  2 eigenvalues not converged
     c_bands:  3 eigenvalues not converged
     c_bands:  2 eigenvalues not converged
     c_bands:  1 eigenvalues not converged
     c_bands:  1 eigenvalues not converged
     c_bands:  4 eigenvalues not converged
     c_bands:  1 eigenvalues not converged
     c_bands:  5 eigenvalues not converged
     c_bands:  1 eigenvalues not converged
     c_bands:  3 eigenvalues not converged
     c_bands:  1 eigenvalues not converged
     c_bands:  2 eigenvalues not converged
     c_bands:  4 eigenvalues not converged
     ethr =  5.44E-08,  avg # of iterations = 33.8

     negative rho (up, down):  3.757E-01 2.821E-01

     total cpu time spent up to now is     1756.9 secs

     total energy              =    -587.29668602 Ry
     estimated scf accuracy    <       0.00443894 Ry

     total magnetization       =     1.07 Bohr mag/cell
     absolute magnetization    =     6.25 Bohr mag/cell
[tb_dev] Currently allocated     3.54E+01 Mbytes, locked:    0 /  17
[tb_pin] Currently allocated     0.00E+00 Mbytes, locked:    0 /   0

     iteration # 79     ecut=    55.00 Ry     beta= 0.40
     Davidson diagonalization with overlap

---- Real-time Memory Report at c_bands before calling an iterative solver
          2668 MiB given to the printing process from OS
         -1659 MiB allocation reported by mallinfo(arena+hblkhd)
         57413 MiB available memory on the node where the printing process lives
     GPU memory used/free/total (MiB): 3336 / 12944 / 16280
------------------
     c_bands:  1 eigenvalues not converged
     c_bands:  1 eigenvalues not converged
     c_bands:  1 eigenvalues not converged
     c_bands:  1 eigenvalues not converged
     c_bands:  2 eigenvalues not converged
     c_bands:  2 eigenvalues not converged
     c_bands:  2 eigenvalues not converged
     c_bands:  1 eigenvalues not converged
     c_bands:  1 eigenvalues not converged
     c_bands:  2 eigenvalues not converged
     c_bands:  3 eigenvalues not converged
     c_bands:  2 eigenvalues not converged
     c_bands:  4 eigenvalues not converged
     c_bands:  2 eigenvalues not converged
     c_bands:  2 eigenvalues not converged
     c_bands:  2 eigenvalues not converged
     c_bands:  1 eigenvalues not converged
     c_bands:  5 eigenvalues not converged
     c_bands:  4 eigenvalues not converged
     c_bands:  1 eigenvalues not converged
     c_bands:  3 eigenvalues not converged
     c_bands:  4 eigenvalues not converged
     c_bands:  1 eigenvalues not converged
     c_bands:  2 eigenvalues not converged
     c_bands:  1 eigenvalues not converged
     c_bands:  5 eigenvalues not converged
     c_bands:  4 eigenvalues not converged
     c_bands:  1 eigenvalues not converged
     c_bands:  2 eigenvalues not converged
     c_bands:  2 eigenvalues not converged
     c_bands:  1 eigenvalues not converged
     c_bands:  5 eigenvalues not converged
     c_bands:  5 eigenvalues not converged
     c_bands:  4 eigenvalues not converged
     c_bands:  5 eigenvalues not converged
     c_bands:  2 eigenvalues not converged
     c_bands:  1 eigenvalues not converged
     c_bands:  2 eigenvalues not converged
     c_bands:  1 eigenvalues not converged
     c_bands:  1 eigenvalues not converged
     c_bands:  1 eigenvalues not converged
     c_bands:  4 eigenvalues not converged
     c_bands:  1 eigenvalues not converged
     c_bands:  3 eigenvalues not converged
     c_bands:  4 eigenvalues not converged
     c_bands:  1 eigenvalues not converged
     c_bands:  2 eigenvalues not converged
     c_bands:  4 eigenvalues not converged
     c_bands:  1 eigenvalues not converged
     c_bands:  2 eigenvalues not converged
     c_bands:  5 eigenvalues not converged
     c_bands:  2 eigenvalues not converged
     c_bands:  3 eigenvalues not converged
     c_bands:  3 eigenvalues not converged
     c_bands:  2 eigenvalues not converged
     c_bands:  1 eigenvalues not converged
     c_bands:  4 eigenvalues not converged
     c_bands:  4 eigenvalues not converged
     c_bands:  1 eigenvalues not converged
     c_bands:  4 eigenvalues not converged
     c_bands:  3 eigenvalues not converged
     c_bands:  1 eigenvalues not converged
     c_bands:  1 eigenvalues not converged
     c_bands:  4 eigenvalues not converged
     c_bands:  1 eigenvalues not converged
     c_bands:  2 eigenvalues not converged
     c_bands:  3 eigenvalues not converged
     c_bands:  5 eigenvalues not converged
     c_bands:  4 eigenvalues not converged
     c_bands:  3 eigenvalues not converged
     c_bands:  4 eigenvalues not converged
     ethr =  5.44E-08,  avg # of iterations = 16.9

     negative rho (up, down):  3.742E-01 2.837E-01

     total cpu time spent up to now is     1789.3 secs

     total energy              =    -587.28319086 Ry
     estimated scf accuracy    <       0.00137055 Ry

     total magnetization       =     1.38 Bohr mag/cell
     absolute magnetization    =     5.87 Bohr mag/cell
[tb_dev] Currently allocated     3.54E+01 Mbytes, locked:    0 /  17
[tb_pin] Currently allocated     0.00E+00 Mbytes, locked:    0 /   0

     iteration # 80     ecut=    55.00 Ry     beta= 0.40
     Davidson diagonalization with overlap

---- Real-time Memory Report at c_bands before calling an iterative solver
          2668 MiB given to the printing process from OS
         -1659 MiB allocation reported by mallinfo(arena+hblkhd)
         57409 MiB available memory on the node where the printing process lives
     GPU memory used/free/total (MiB): 3336 / 12944 / 16280
------------------
     c_bands:  1 eigenvalues not converged
     c_bands:  1 eigenvalues not converged
     c_bands:  2 eigenvalues not converged
     c_bands:  3 eigenvalues not converged
     c_bands:  4 eigenvalues not converged
     c_bands:  5 eigenvalues not converged
     c_bands:  2 eigenvalues not converged
     c_bands:  2 eigenvalues not converged
     c_bands:  1 eigenvalues not converged
     c_bands:  1 eigenvalues not converged
     c_bands:  1 eigenvalues not converged
     c_bands:  1 eigenvalues not converged
     c_bands:  4 eigenvalues not converged
     c_bands:  4 eigenvalues not converged
     c_bands:  1 eigenvalues not converged
     c_bands:  4 eigenvalues not converged
     c_bands:  1 eigenvalues not converged
     c_bands:  2 eigenvalues not converged
     c_bands:  4 eigenvalues not converged
     c_bands:  4 eigenvalues not converged
     c_bands:  1 eigenvalues not converged
     c_bands:  4 eigenvalues not converged
     c_bands:  2 eigenvalues not converged
     c_bands:  2 eigenvalues not converged
     c_bands:  3 eigenvalues not converged
     c_bands:  1 eigenvalues not converged
     c_bands:  1 eigenvalues not converged
     c_bands:  1 eigenvalues not converged
     c_bands:  1 eigenvalues not converged
     c_bands:  2 eigenvalues not converged
     c_bands:  3 eigenvalues not converged
     c_bands:  2 eigenvalues not converged
     c_bands:  2 eigenvalues not converged
     c_bands:  2 eigenvalues not converged
     c_bands:  3 eigenvalues not converged
     c_bands:  2 eigenvalues not converged
     c_bands:  1 eigenvalues not converged
     c_bands:  1 eigenvalues not converged
     c_bands:  1 eigenvalues not converged
     c_bands:  2 eigenvalues not converged
     c_bands:  2 eigenvalues not converged
     c_bands:  2 eigenvalues not converged
     c_bands:  1 eigenvalues not converged
     c_bands:  4 eigenvalues not converged
     c_bands:  2 eigenvalues not converged
     c_bands:  3 eigenvalues not converged
     c_bands:  1 eigenvalues not converged
     c_bands:  4 eigenvalues not converged
     c_bands:  1 eigenvalues not converged
     c_bands:  1 eigenvalues not converged
     c_bands:  1 eigenvalues not converged
     c_bands:  1 eigenvalues not converged
     c_bands:  1 eigenvalues not converged
     c_bands:  1 eigenvalues not converged
     c_bands:  3 eigenvalues not converged
     c_bands:  2 eigenvalues not converged
     c_bands:  4 eigenvalues not converged
     c_bands:  4 eigenvalues not converged
     c_bands:  3 eigenvalues not converged
     c_bands:  4 eigenvalues not converged
     c_bands:  3 eigenvalues not converged
     c_bands:  3 eigenvalues not converged
     c_bands:  3 eigenvalues not converged
     c_bands:  4 eigenvalues not converged
     c_bands:  2 eigenvalues not converged
     c_bands:  2 eigenvalues not converged
     c_bands:  4 eigenvalues not converged
     c_bands:  1 eigenvalues not converged
     c_bands:  2 eigenvalues not converged
     c_bands:  1 eigenvalues not converged
     c_bands:  3 eigenvalues not converged
     c_bands:  5 eigenvalues not converged
     c_bands:  4 eigenvalues not converged
     c_bands:  2 eigenvalues not converged
     c_bands:  3 eigenvalues not converged
     c_bands:  1 eigenvalues not converged
     c_bands:  3 eigenvalues not converged
     c_bands:  5 eigenvalues not converged
     c_bands:  4 eigenvalues not converged
     c_bands:  4 eigenvalues not converged
     c_bands:  5 eigenvalues not converged
     c_bands:  4 eigenvalues not converged
     c_bands:  4 eigenvalues not converged
     c_bands:  4 eigenvalues not converged
     c_bands:  2 eigenvalues not converged
     c_bands:  1 eigenvalues not converged
     c_bands:  4 eigenvalues not converged
     c_bands:  4 eigenvalues not converged
     c_bands:  4 eigenvalues not converged
     c_bands:  4 eigenvalues not converged
     c_bands:  1 eigenvalues not converged
     c_bands:  4 eigenvalues not converged
     c_bands:  3 eigenvalues not converged
     c_bands:  4 eigenvalues not converged
     c_bands:  4 eigenvalues not converged
     c_bands:  1 eigenvalues not converged
     c_bands:  1 eigenvalues not converged
     c_bands:  1 eigenvalues not converged
     c_bands:  1 eigenvalues not converged
     c_bands:  4 eigenvalues not converged
     c_bands:  4 eigenvalues not converged
     c_bands:  2 eigenvalues not converged
     c_bands:  2 eigenvalues not converged
     c_bands:  1 eigenvalues not converged
     c_bands:  4 eigenvalues not converged
     c_bands:  3 eigenvalues not converged
     c_bands:  1 eigenvalues not converged
     c_bands:  1 eigenvalues not converged
     c_bands:  1 eigenvalues not converged
     c_bands:  1 eigenvalues not converged
     c_bands:  4 eigenvalues not converged
     c_bands:  3 eigenvalues not converged
     c_bands:  2 eigenvalues not converged
     c_bands:  4 eigenvalues not converged
     c_bands:  4 eigenvalues not converged
     c_bands:  4 eigenvalues not converged
     c_bands:  3 eigenvalues not converged
     c_bands:  1 eigenvalues not converged
     c_bands:  5 eigenvalues not converged
     c_bands:  5 eigenvalues not converged
     c_bands:  1 eigenvalues not converged
     c_bands:  2 eigenvalues not converged
     c_bands:  4 eigenvalues not converged
     ethr =  5.44E-08,  avg # of iterations = 23.6

     negative rho (up, down):  3.736E-01 2.843E-01

     total cpu time spent up to now is     1835.5 secs

     total energy              =    -587.29426337 Ry
     estimated scf accuracy    <       0.00268371 Ry

     total magnetization       =     1.87 Bohr mag/cell
     absolute magnetization    =     5.83 Bohr mag/cell

     End of self-consistent calculation

     convergence NOT achieved after  80 iterations: stopping

     Writing config to output data dir ./out/aiida.save/
 
     init_run     :     18.35s CPU     10.30s WALL (       1 calls)
     electrons    :   1913.61s CPU   1824.80s WALL (       1 calls)

     Called by init_run:
     wfcinit      :      6.08s CPU      7.75s WALL (       1 calls)
                                        7.75s GPU  (       1 calls)
     wfcinit:atom :      0.08s CPU      0.17s WALL (     252 calls)
                                        0.17s GPU  (     252 calls)
     wfcinit:wfcr :      3.27s CPU      4.21s WALL (     252 calls)
                                        4.21s GPU  (     252 calls)
     potinit      :      2.68s CPU      0.24s WALL (       1 calls)
     hinit0       :      7.02s CPU      1.40s WALL (       1 calls)

     Called by electrons:
     c_bands      :   1649.55s CPU   1679.94s WALL (      80 calls)
     sum_band     :    121.44s CPU    131.43s WALL (      80 calls)
     v_of_rho     :     38.81s CPU      3.51s WALL (      81 calls)
     v_h          :      5.78s CPU      0.52s WALL (      81 calls)
     v_xc         :     33.02s CPU      2.99s WALL (      81 calls)
     newd         :     36.92s CPU      3.62s WALL (      81 calls)
                                        3.61s GPU  (      81 calls)
     mix_rho      :     51.63s CPU      5.00s WALL (      80 calls)

     Called by c_bands:
     init_us_2    :     50.35s CPU     57.29s WALL (   40572 calls)
     init_us_2:gp :     49.65s CPU     56.63s WALL (   40572 calls)
     cegterg      :   1489.55s CPU   1527.81s WALL (   20979 calls)

     Called by sum_band:
     sum_band:wei :      0.85s CPU      0.85s WALL (      80 calls)
                                        0.85s GPU  (      80 calls)
     sum_band:loo :    112.74s CPU    122.63s WALL (      80 calls)
                                      122.63s GPU  (      80 calls)
     sum_band:buf :     35.20s CPU     36.56s WALL (   20160 calls)
                                       36.44s GPU  (   20160 calls)
     sum_band:ini :     23.17s CPU     26.22s WALL (   20160 calls)
                                       26.11s GPU  (   20160 calls)
     sum_band:cal :      0.54s CPU      7.43s WALL (   20160 calls)
                                        3.90s GPU  (   20160 calls)
     sum_band:bec :      1.87s CPU      2.17s WALL (   20160 calls)
                                        2.04s GPU  (   20160 calls)
     addusdens    :      4.40s CPU      4.49s WALL (      80 calls)
                                        4.49s GPU  (      80 calls)
     addusd:skk   :      0.01s CPU      0.01s WALL (      80 calls)
                                        0.01s GPU  (      80 calls)

     Called by *egterg:
     cdiaghg      :    547.31s CPU    593.98s WALL (  241471 calls)
                                      592.39s GPU  (  241471 calls)
     cegterg:over :     50.83s CPU     51.39s WALL (  220492 calls)
     cegterg:upda :     67.65s CPU     71.15s WALL (  220492 calls)
     cegterg:last :     25.47s CPU     27.61s WALL (   99626 calls)
     h_psi        :    675.80s CPU    664.74s WALL (  241723 calls)
                                      662.84s GPU  (  241723 calls)
     s_psi        :     19.22s CPU     45.46s WALL (  241723 calls)
                                       41.81s GPU  (  241723 calls)
     g_psi        :      1.51s CPU      7.07s WALL (  220492 calls)
                                        5.64s GPU  (  220492 calls)

     Called by h_psi:
     h_psi:calbec :      8.09s CPU     42.51s WALL (  241723 calls)
                                       41.02s GPU  (  241723 calls)
     vloc_psi     :    561.38s CPU    553.87s WALL (  241723 calls)
                                      552.34s GPU  (  241723 calls)
     add_vuspsi   :     26.40s CPU     51.42s WALL (  241723 calls)
                                       49.95s GPU  (  241723 calls)

     General routines
     calbec       :      6.37s CPU      6.52s WALL (  261883 calls)
     fft          :      2.54s CPU      0.59s WALL (    2023 calls)
                                        0.47s GPU  (    1861 calls)
     ffts         :      0.08s CPU      0.05s WALL (     322 calls)
                                        0.01s GPU  (     160 calls)
     fftw         :     13.20s CPU    394.15s WALL (  681102 calls)
                                      390.04s GPU  (  681102 calls)
     interpolate  :      5.52s CPU      0.49s WALL (     162 calls)
     davcio       :      1.03s CPU      1.12s WALL (     270 calls)
 
     Parallel routines
 
     PWSCF        :  32m14.70s CPU  30m36.96s WALL

 
   This run was terminated on:  18:13:48  23Oct2023            

=------------------------------------------------------------------------------=
   JOB DONE.
=------------------------------------------------------------------------------=
