
     Program PWSCF v.7.2 starts on 30Nov2023 at  4:20:21 
        Git branch: develop
        Last git commit: 9055681be6fc8200e6fffe76ed5fda34c2696339
        Last git commit date: Wed Nov 8 16:29:39 2023 +0000
        Last git commit subject: Merge branch 'calbec_fix' into 'develop'

     This program is part of the open-source Quantum ESPRESSO suite
     for quantum simulation of materials; please cite
         "P. Giannozzi et al., J. Phys.:Condens. Matter 21 395502 (2009);
         "P. Giannozzi et al., J. Phys.:Condens. Matter 29 465901 (2017);
         "P. Giannozzi et al., J. Chem. Phys. 152 154105 (2020);
          URL http://www.quantum-espresso.org", 
     in publications or presentations arising from this work. More details at
     http://www.quantum-espresso.org/quote

     Parallel version (MPI), running on    56 processors

     MPI processes distributed on     1 nodes
     488098 MiB available memory on the printing compute node when the environment starts

     Reading input from aiida.in

     Current dimensions of program PWSCF are:
     Max number of different atomic species (ntypx) = 10
     Max number of k-points (npk) =  40000
     Max angular momentum in pseudopotentials (lmaxx) =  4
     file Al.pbesol-n-kjpaw_psl.1.0.0.UPF: wavefunction(s)  3S 3P renormalized
     Message from routine setup:
     using ibrav=0 with symmetry is DISCOURAGED, use correct ibrav instead

     K-points division:     npool     =       7
     R & G space division:  proc/nbgrp/npool/nimage =       8
     Subspace diagonalization in iterative solution of the eigenvalue problem:
     a serial algorithm will be used


     Parallelization info
     --------------------
     sticks:   dense  smooth     PW     G-vecs:    dense   smooth      PW
     Min         203     100     31                 5392     1884     329
     Max         204     101     32                 5395     1887     331
     Sum        1627     805    253                43143    15089    2637

     Using Slab Decomposition



     bravais-lattice index     =            0
     lattice parameter (alat)  =       8.5653  a.u.
     unit-cell volume          =     444.3352 (a.u.)^3
     number of atoms/cell      =            4
     number of atomic types    =            4
     number of electrons       =        42.00
     number of Kohn-Sham states=           29
     kinetic-energy cutoff     =      40.0000  Ry
     charge density cutoff     =     320.0000  Ry
     scf convergence threshold =      8.0E-10
     mixing beta               =       0.4000
     number of iterations used =            8  plain     mixing
     Exchange-correlation= SLA  PW   PSX  PSC
                           (   1   4  10   8   0   0   0)

     celldm(1)=   8.565287  celldm(2)=   0.000000  celldm(3)=   0.000000
     celldm(4)=   0.000000  celldm(5)=   0.000000  celldm(6)=   0.000000

     crystal axes: (cart. coord. in units of alat)
               a(1) = (   0.000000   0.707107   0.707107 )  
               a(2) = (   0.707107   0.000000   0.707107 )  
               a(3) = (   0.707107   0.707107   0.000000 )  

     reciprocal axes: (cart. coord. in units 2 pi/alat)
               b(1) = ( -0.707107  0.707107  0.707107 )  
               b(2) = (  0.707107 -0.707107  0.707107 )  
               b(3) = (  0.707107  0.707107 -0.707107 )  


     PseudoPot. # 1 for Al read from file:
     ./pseudo/Al.pbesol-n-kjpaw_psl.1.0.0.UPF
     MD5 check sum: 3401bcfaaf5f9b08e46a00870a1ef39d
     Pseudo is Projector augmented-wave + core cor, Zval =  3.0
     Generated using "atomic" code by A. Dal Corso  v.6.0 svn rev. 13079
     Shape of augmentation charge: PSQ
     Using radial grid of 1135 points,  6 beta functions with: 
                l(1) =   0
                l(2) =   0
                l(3) =   1
                l(4) =   1
                l(5) =   2
                l(6) =   2
     Q(r) pseudized with 0 coefficients 


     PseudoPot. # 2 for Cr read from file:
     ./pseudo/cr_pbesol_v1.5.uspp.F.UPF
     MD5 check sum: a621641e0be27168676a837af8893d0f
     Pseudo is Ultrasoft + core correction, Zval = 14.0
     Generated by new atomic code, or converted to UPF format
     Using radial grid of  857 points,  6 beta functions with: 
                l(1) =   0
                l(2) =   0
                l(3) =   1
                l(4) =   1
                l(5) =   2
                l(6) =   2
     Q(r) pseudized with  8 coefficients,  rinner =    0.950   0.950   0.950
                                                       0.950   0.950

     PseudoPot. # 3 for V  read from file:
     ./pseudo/v_pbesol_v1.4.uspp.F.UPF
     MD5 check sum: 72fa7d0034c41d8adc50bbc8c632b9f9
     Pseudo is Ultrasoft + core correction, Zval = 13.0
     Generated by new atomic code, or converted to UPF format
     Using radial grid of  853 points,  6 beta functions with: 
                l(1) =   0
                l(2) =   0
                l(3) =   1
                l(4) =   1
                l(5) =   2
                l(6) =   2
     Q(r) pseudized with  8 coefficients,  rinner =    1.100   1.100   1.100
                                                       1.100   1.100

     PseudoPot. # 4 for Zr read from file:
     ./pseudo/zr_pbesol_v1.uspp.F.UPF
     MD5 check sum: f29f2a20533738a515abe666fee35838
     Pseudo is Ultrasoft + core correction, Zval = 12.0
     Generated by new atomic code, or converted to UPF format
     Using radial grid of  887 points,  6 beta functions with: 
                l(1) =   0
                l(2) =   0
                l(3) =   1
                l(4) =   1
                l(5) =   2
                l(6) =   2
     Q(r) pseudized with  6 coefficients,  rinner =    1.200   1.200   1.200
                                                       1.200   1.200

     atomic species   valence    mass     pseudopotential
     Al                3.00    26.98154     Al( 1.00)
     Cr               14.00    51.99610     Cr( 1.00)
     V                13.00    50.94150     V ( 1.00)
     Zr               12.00    91.22400     Zr( 1.00)

     Starting magnetic structure 
     atomic species   magnetization
     Al              0.100
     Cr              0.357
     V               0.385
     Zr              0.417

     24 Sym. Ops. (no inversion) found


                                    s                        frac. trans.

      isym =  1     identity                                     

 cryst.   s( 1) = (     1          0          0      )
                  (     0          1          0      )
                  (     0          0          1      )

 cart.    s( 1) = (  1.0000000 -0.0000000  0.0000000 )
                  ( -0.0000000  1.0000000  0.0000000 )
                  ( -0.0000000  0.0000000  1.0000000 )


      isym =  2     180 deg rotation - cart. axis [0,0,1]        

 cryst.   s( 2) = (     0          1         -1      )
                  (     1          0         -1      )
                  (     0          0         -1      )

 cart.    s( 2) = ( -1.0000000  0.0000000  0.0000000 )
                  (  0.0000000 -1.0000000  0.0000000 )
                  (  0.0000000 -0.0000000  1.0000000 )


      isym =  3     180 deg rotation - cart. axis [0,1,0]        

 cryst.   s( 3) = (     0         -1          1      )
                  (     0         -1          0      )
                  (     1         -1          0      )

 cart.    s( 3) = ( -1.0000000 -0.0000000 -0.0000000 )
                  (  0.0000000  1.0000000 -0.0000000 )
                  (  0.0000000  0.0000000 -1.0000000 )


      isym =  4     180 deg rotation - cart. axis [1,0,0]        

 cryst.   s( 4) = (    -1          0          0      )
                  (    -1          0          1      )
                  (    -1          1          0      )

 cart.    s( 4) = (  1.0000000  0.0000000 -0.0000000 )
                  ( -0.0000000 -1.0000000 -0.0000000 )
                  ( -0.0000000 -0.0000000 -1.0000000 )


      isym =  5     120 deg rotation - cart. axis [-1,-1,-1]     

 cryst.   s( 5) = (     0          0          1      )
                  (     1          0          0      )
                  (     0          1          0      )

 cart.    s( 5) = (  0.0000000  1.0000000 -0.0000000 )
                  (  0.0000000 -0.0000000  1.0000000 )
                  (  1.0000000 -0.0000000  0.0000000 )


      isym =  6     120 deg rotation - cart. axis [-1,1,1]       

 cryst.   s( 6) = (     1         -1          0      )
                  (     0         -1          1      )
                  (     0         -1          0      )

 cart.    s( 6) = ( -0.0000000 -1.0000000 -0.0000000 )
                  ( -0.0000000  0.0000000  1.0000000 )
                  ( -1.0000000  0.0000000  0.0000000 )


      isym =  7     120 deg rotation - cart. axis [1,1,-1]       

 cryst.   s( 7) = (    -1          1          0      )
                  (    -1          0          0      )
                  (    -1          0          1      )

 cart.    s( 7) = ( -0.0000000  1.0000000  0.0000000 )
                  ( -0.0000000 -0.0000000 -1.0000000 )
                  ( -1.0000000 -0.0000000 -0.0000000 )


      isym =  8     120 deg rotation - cart. axis [1,-1,1]       

 cryst.   s( 8) = (     0          0         -1      )
                  (     0          1         -1      )
                  (     1          0         -1      )

 cart.    s( 8) = (  0.0000000 -1.0000000  0.0000000 )
                  (  0.0000000  0.0000000 -1.0000000 )
                  (  1.0000000  0.0000000 -0.0000000 )


      isym =  9     120 deg rotation - cart. axis [1,1,1]        

 cryst.   s( 9) = (     0          1          0      )
                  (     0          0          1      )
                  (     1          0          0      )

 cart.    s( 9) = ( -0.0000000  0.0000000  1.0000000 )
                  (  1.0000000  0.0000000 -0.0000000 )
                  (  0.0000000  1.0000000 -0.0000000 )


      isym = 10     120 deg rotation - cart. axis [-1,1,-1]      

 cryst.   s(10) = (    -1          0          1      )
                  (    -1          1          0      )
                  (    -1          0          0      )

 cart.    s(10) = (  0.0000000 -0.0000000  1.0000000 )
                  ( -1.0000000 -0.0000000 -0.0000000 )
                  ( -0.0000000 -1.0000000 -0.0000000 )


      isym = 11     120 deg rotation - cart. axis [1,-1,-1]      

 cryst.   s(11) = (     1          0         -1      )
                  (     0          0         -1      )
                  (     0          1         -1      )

 cart.    s(11) = (  0.0000000  0.0000000 -1.0000000 )
                  ( -1.0000000  0.0000000  0.0000000 )
                  ( -0.0000000  1.0000000  0.0000000 )


      isym = 12     120 deg rotation - cart. axis [-1,-1,1]      

 cryst.   s(12) = (     0         -1          0      )
                  (     1         -1          0      )
                  (     0         -1          1      )

 cart.    s(12) = ( -0.0000000 -0.0000000 -1.0000000 )
                  (  1.0000000 -0.0000000  0.0000000 )
                  (  0.0000000 -1.0000000  0.0000000 )


      isym = 13     inv. 180 deg rotation - cart. axis [1,1,0]   

 cryst.   s(13) = (     1          0         -1      )
                  (     0          1         -1      )
                  (     0          0         -1      )

 cart.    s(13) = (  0.0000000 -1.0000000  0.0000000 )
                  ( -1.0000000  0.0000000  0.0000000 )
                  ( -0.0000000  0.0000000  1.0000000 )


      isym = 14     inv. 180 deg rotation - cart. axis [1,-1,0]  

 cryst.   s(14) = (     0          1          0      )
                  (     1          0          0      )
                  (     0          0          1      )

 cart.    s(14) = ( -0.0000000  1.0000000  0.0000000 )
                  (  1.0000000 -0.0000000  0.0000000 )
                  (  0.0000000 -0.0000000  1.0000000 )


      isym = 15     inv.  90 deg rotation - cart. axis [0,0,-1]  

 cryst.   s(15) = (     0         -1          0      )
                  (     0         -1          1      )
                  (     1         -1          0      )

 cart.    s(15) = ( -0.0000000 -1.0000000 -0.0000000 )
                  (  1.0000000  0.0000000 -0.0000000 )
                  (  0.0000000  0.0000000 -1.0000000 )


      isym = 16     inv.  90 deg rotation - cart. axis [0,0,1]   

 cryst.   s(16) = (    -1          0          1      )
                  (    -1          0          0      )
                  (    -1          1          0      )

 cart.    s(16) = (  0.0000000  1.0000000 -0.0000000 )
                  ( -1.0000000 -0.0000000 -0.0000000 )
                  ( -0.0000000 -0.0000000 -1.0000000 )


      isym = 17     inv. 180 deg rotation - cart. axis [1,0,1]   

 cryst.   s(17) = (     1         -1          0      )
                  (     0         -1          0      )
                  (     0         -1          1      )

 cart.    s(17) = ( -0.0000000 -0.0000000 -1.0000000 )
                  ( -0.0000000  1.0000000  0.0000000 )
                  ( -1.0000000  0.0000000  0.0000000 )


      isym = 18     inv. 180 deg rotation - cart. axis [-1,0,1]  

 cryst.   s(18) = (     0          0          1      )
                  (     0          1          0      )
                  (     1          0          0      )

 cart.    s(18) = (  0.0000000 -0.0000000  1.0000000 )
                  (  0.0000000  1.0000000 -0.0000000 )
                  (  1.0000000  0.0000000 -0.0000000 )


      isym = 19     inv.  90 deg rotation - cart. axis [0,1,0]   

 cryst.   s(19) = (     0          0         -1      )
                  (     1          0         -1      )
                  (     0          1         -1      )

 cart.    s(19) = (  0.0000000  0.0000000 -1.0000000 )
                  (  0.0000000 -1.0000000  0.0000000 )
                  (  1.0000000 -0.0000000  0.0000000 )


      isym = 20     inv.  90 deg rotation - cart. axis [0,-1,0]  

 cryst.   s(20) = (    -1          1          0      )
                  (    -1          0          1      )
                  (    -1          0          0      )

 cart.    s(20) = ( -0.0000000  0.0000000  1.0000000 )
                  ( -0.0000000 -1.0000000 -0.0000000 )
                  ( -1.0000000 -0.0000000 -0.0000000 )


      isym = 21     inv. 180 deg rotation - cart. axis [0,1,1]   

 cryst.   s(21) = (    -1          0          0      )
                  (    -1          1          0      )
                  (    -1          0          1      )

 cart.    s(21) = (  1.0000000 -0.0000000  0.0000000 )
                  ( -0.0000000 -0.0000000 -1.0000000 )
                  ( -0.0000000 -1.0000000 -0.0000000 )


      isym = 22     inv. 180 deg rotation - cart. axis [0,1,-1]  

 cryst.   s(22) = (     1          0          0      )
                  (     0          0          1      )
                  (     0          1          0      )

 cart.    s(22) = (  1.0000000  0.0000000 -0.0000000 )
                  ( -0.0000000  0.0000000  1.0000000 )
                  ( -0.0000000  1.0000000  0.0000000 )


      isym = 23     inv.  90 deg rotation - cart. axis [-1,0,0]  

 cryst.   s(23) = (     0          1         -1      )
                  (     0          0         -1      )
                  (     1          0         -1      )

 cart.    s(23) = ( -1.0000000  0.0000000  0.0000000 )
                  (  0.0000000  0.0000000 -1.0000000 )
                  (  0.0000000  1.0000000 -0.0000000 )


      isym = 24     inv.  90 deg rotation - cart. axis [1,0,0]   

 cryst.   s(24) = (     0         -1          1      )
                  (     1         -1          0      )
                  (     0         -1          0      )

 cart.    s(24) = ( -1.0000000 -0.0000000 -0.0000000 )
                  (  0.0000000 -0.0000000  1.0000000 )
                  (  0.0000000 -1.0000000  0.0000000 )


   Cartesian axes

     site n.     atom                  positions (alat units)
         1        Zr     tau(   1) = (   0.3535534   0.3535534   0.3535534  )
         2        Al     tau(   2) = (   0.3535534   0.3535534   1.0606602  )
         3        V      tau(   3) = (   0.7071068   0.0000000   0.0000000  )
         4        Cr     tau(   4) = (   0.0000000   0.0000000   0.0000000  )

   Crystallographic axes

     site n.     atom                  positions (cryst. coord.)
         1        Zr     tau(   1) = (  0.2500000  0.2500000  0.2500000  )
         2        Al     tau(   2) = (  0.7500000  0.7500000 -0.2500000  )
         3        V      tau(   3) = ( -0.5000000  0.5000000  0.5000000  )
         4        Cr     tau(   4) = (  0.0000000  0.0000000  0.0000000  )

     number of k points=    72  Marzari-Vanderbilt smearing, width (Ry)=  0.0200
                       cart. coord. in units 2pi/alat
        k(    1) = (   0.0000000   0.0000000   0.0000000), wk =   0.0005787
        k(    2) = (   0.0589256   0.0589256  -0.0589256), wk =   0.0046296
        k(    3) = (   0.1178511   0.1178511  -0.1178511), wk =   0.0046296
        k(    4) = (   0.1767767   0.1767767  -0.1767767), wk =   0.0046296
        k(    5) = (   0.2357023   0.2357023  -0.2357023), wk =   0.0046296
        k(    6) = (   0.2946278   0.2946278  -0.2946278), wk =   0.0046296
        k(    7) = (  -0.3535534  -0.3535534   0.3535534), wk =   0.0023148
        k(    8) = (   0.1178511   0.0000000  -0.0000000), wk =   0.0034722
        k(    9) = (   0.1767767   0.0589256  -0.0589256), wk =   0.0138889
        k(   10) = (   0.2357023   0.1178511  -0.1178511), wk =   0.0138889
        k(   11) = (   0.2946278   0.1767767  -0.1767767), wk =   0.0138889
        k(   12) = (   0.3535534   0.2357023  -0.2357023), wk =   0.0138889
        k(   13) = (  -0.2946278  -0.4124790   0.4124790), wk =   0.0138889
        k(   14) = (  -0.2357023  -0.3535534   0.3535534), wk =   0.0138889
        k(   15) = (  -0.1767767  -0.2946278   0.2946278), wk =   0.0138889
        k(   16) = (  -0.1178511  -0.2357023   0.2357023), wk =   0.0138889
        k(   17) = (  -0.0589256  -0.1767767   0.1767767), wk =   0.0138889
        k(   18) = (  -0.0000000  -0.1178511   0.1178511), wk =   0.0069444
        k(   19) = (   0.2357023   0.0000000  -0.0000000), wk =   0.0034722
        k(   20) = (   0.2946278   0.0589256  -0.0589256), wk =   0.0138889
        k(   21) = (   0.3535534   0.1178511  -0.1178511), wk =   0.0138889
        k(   22) = (   0.4124790   0.1767767  -0.1767767), wk =   0.0138889
        k(   23) = (  -0.2357023  -0.4714045   0.4714045), wk =   0.0138889
        k(   24) = (  -0.1767767  -0.4124790   0.4124790), wk =   0.0138889
        k(   25) = (  -0.1178511  -0.3535534   0.3535534), wk =   0.0138889
        k(   26) = (  -0.0589256  -0.2946278   0.2946278), wk =   0.0138889
        k(   27) = (   0.0000000  -0.2357023   0.2357023), wk =   0.0069444
        k(   28) = (   0.3535534   0.0000000   0.0000000), wk =   0.0034722
        k(   29) = (   0.4124790   0.0589256  -0.0589256), wk =   0.0138889
        k(   30) = (   0.4714045   0.1178511  -0.1178511), wk =   0.0138889
        k(   31) = (  -0.1767767  -0.5303301   0.5303301), wk =   0.0138889
        k(   32) = (  -0.1178511  -0.4714045   0.4714045), wk =   0.0138889
        k(   33) = (  -0.0589256  -0.4124790   0.4124790), wk =   0.0138889
        k(   34) = (   0.0000000  -0.3535534   0.3535534), wk =   0.0069444
        k(   35) = (   0.4714045   0.0000000  -0.0000000), wk =   0.0034722
        k(   36) = (   0.5303301   0.0589256  -0.0589256), wk =   0.0138889
        k(   37) = (  -0.1178511  -0.5892557   0.5892557), wk =   0.0138889
        k(   38) = (  -0.0589256  -0.5303301   0.5303301), wk =   0.0138889
        k(   39) = (  -0.0000000  -0.4714045   0.4714045), wk =   0.0069444
        k(   40) = (   0.5892557   0.0000000  -0.0000000), wk =   0.0034722
        k(   41) = (  -0.0589256  -0.6481812   0.6481812), wk =   0.0138889
        k(   42) = (   0.0000000  -0.5892557   0.5892557), wk =   0.0069444
        k(   43) = (  -0.7071068   0.0000000   0.0000000), wk =   0.0017361
        k(   44) = (   0.2357023   0.1178511   0.0000000), wk =   0.0138889
        k(   45) = (   0.2946278   0.1767767  -0.0589256), wk =   0.0277778
        k(   46) = (   0.3535534   0.2357023  -0.1178511), wk =   0.0277778
        k(   47) = (  -0.2946278  -0.4124790   0.5303301), wk =   0.0277778
        k(   48) = (  -0.2357023  -0.3535534   0.4714045), wk =   0.0138889
        k(   49) = (   0.3535534   0.1178511   0.0000000), wk =   0.0138889
        k(   50) = (   0.4124790   0.1767767  -0.0589256), wk =   0.0277778
        k(   51) = (  -0.2357023  -0.4714045   0.5892557), wk =   0.0277778
        k(   52) = (  -0.1767767  -0.4124790   0.5303301), wk =   0.0277778
        k(   53) = (  -0.1178511  -0.3535534   0.4714045), wk =   0.0277778
        k(   54) = (  -0.0589256  -0.2946278   0.4124790), wk =   0.0277778
        k(   55) = (   0.0000000  -0.2357023   0.3535534), wk =   0.0138889
        k(   56) = (   0.4714045   0.1178511  -0.0000000), wk =   0.0138889
        k(   57) = (  -0.1767767  -0.5303301   0.6481812), wk =   0.0277778
        k(   58) = (  -0.1178511  -0.4714045   0.5892557), wk =   0.0277778
        k(   59) = (  -0.0589256  -0.4124790   0.5303301), wk =   0.0277778
        k(   60) = (  -0.0000000  -0.3535534   0.4714045), wk =   0.0138889
        k(   61) = (  -0.1178511  -0.5892557   0.7071068), wk =   0.0138889
        k(   62) = (  -0.0589256  -0.5303301   0.6481812), wk =   0.0277778
        k(   63) = (  -0.0000000  -0.4714045   0.5892557), wk =   0.0138889
        k(   64) = (  -0.7071068   0.1178511  -0.0000000), wk =   0.0069444
        k(   65) = (  -0.2357023  -0.4714045   0.7071068), wk =   0.0138889
        k(   66) = (  -0.1767767  -0.4124790   0.6481812), wk =   0.0277778
        k(   67) = (  -0.1178511  -0.3535534   0.5892557), wk =   0.0138889
        k(   68) = (  -0.1178511  -0.4714045   0.7071068), wk =   0.0138889
        k(   69) = (  -0.0589256  -0.4124790   0.6481812), wk =   0.0277778
        k(   70) = (   0.0000000  -0.3535534   0.5892557), wk =   0.0138889
        k(   71) = (  -0.7071068   0.2357023   0.0000000), wk =   0.0069444
        k(   72) = (  -0.7071068   0.3535534   0.0000000), wk =   0.0034722

                       cryst. coord.
        k(    1) = (   0.0000000   0.0000000   0.0000000), wk =   0.0005787
        k(    2) = (   0.0000000   0.0000000   0.0833333), wk =   0.0046296
        k(    3) = (   0.0000000   0.0000000   0.1666667), wk =   0.0046296
        k(    4) = (   0.0000000   0.0000000   0.2500000), wk =   0.0046296
        k(    5) = (   0.0000000   0.0000000   0.3333333), wk =   0.0046296
        k(    6) = (  -0.0000000  -0.0000000   0.4166667), wk =   0.0046296
        k(    7) = (  -0.0000000  -0.0000000  -0.5000000), wk =   0.0023148
        k(    8) = (  -0.0000000   0.0833333   0.0833333), wk =   0.0034722
        k(    9) = (   0.0000000   0.0833333   0.1666667), wk =   0.0138889
        k(   10) = (  -0.0000000   0.0833333   0.2500000), wk =   0.0138889
        k(   11) = (   0.0000000   0.0833333   0.3333333), wk =   0.0138889
        k(   12) = (  -0.0000000   0.0833333   0.4166667), wk =   0.0138889
        k(   13) = (  -0.0000000   0.0833333  -0.5000000), wk =   0.0138889
        k(   14) = (   0.0000000   0.0833333  -0.4166667), wk =   0.0138889
        k(   15) = (  -0.0000000   0.0833333  -0.3333333), wk =   0.0138889
        k(   16) = (  -0.0000000   0.0833333  -0.2500000), wk =   0.0138889
        k(   17) = (   0.0000000   0.0833333  -0.1666667), wk =   0.0138889
        k(   18) = (   0.0000000   0.0833333  -0.0833333), wk =   0.0069444
        k(   19) = (  -0.0000000   0.1666667   0.1666667), wk =   0.0034722
        k(   20) = (  -0.0000000   0.1666667   0.2500000), wk =   0.0138889
        k(   21) = (   0.0000000   0.1666667   0.3333333), wk =   0.0138889
        k(   22) = (   0.0000000   0.1666667   0.4166667), wk =   0.0138889
        k(   23) = (  -0.0000000   0.1666667  -0.5000000), wk =   0.0138889
        k(   24) = (  -0.0000000   0.1666667  -0.4166667), wk =   0.0138889
        k(   25) = (  -0.0000000   0.1666667  -0.3333333), wk =   0.0138889
        k(   26) = (   0.0000000   0.1666667  -0.2500000), wk =   0.0138889
        k(   27) = (   0.0000000   0.1666667  -0.1666667), wk =   0.0069444
        k(   28) = (   0.0000000   0.2500000   0.2500000), wk =   0.0034722
        k(   29) = (  -0.0000000   0.2500000   0.3333333), wk =   0.0138889
        k(   30) = (  -0.0000000   0.2500000   0.4166667), wk =   0.0138889
        k(   31) = (   0.0000000   0.2500000  -0.5000000), wk =   0.0138889
        k(   32) = (  -0.0000000   0.2500000  -0.4166667), wk =   0.0138889
        k(   33) = (  -0.0000000   0.2500000  -0.3333333), wk =   0.0138889
        k(   34) = (  -0.0000000   0.2500000  -0.2500000), wk =   0.0069444
        k(   35) = (  -0.0000000   0.3333333   0.3333333), wk =   0.0034722
        k(   36) = (  -0.0000000   0.3333333   0.4166667), wk =   0.0138889
        k(   37) = (   0.0000000   0.3333333  -0.5000000), wk =   0.0138889
        k(   38) = (  -0.0000000   0.3333333  -0.4166667), wk =   0.0138889
        k(   39) = (   0.0000000   0.3333333  -0.3333333), wk =   0.0069444
        k(   40) = (   0.0000000   0.4166667   0.4166667), wk =   0.0034722
        k(   41) = (   0.0000000   0.4166667  -0.5000000), wk =   0.0138889
        k(   42) = (   0.0000000   0.4166667  -0.4166667), wk =   0.0069444
        k(   43) = (   0.0000000  -0.5000000  -0.5000000), wk =   0.0017361
        k(   44) = (   0.0833333   0.1666667   0.2500000), wk =   0.0138889
        k(   45) = (   0.0833333   0.1666667   0.3333333), wk =   0.0277778
        k(   46) = (   0.0833333   0.1666667   0.4166667), wk =   0.0277778
        k(   47) = (   0.0833333   0.1666667  -0.5000000), wk =   0.0277778
        k(   48) = (   0.0833333   0.1666667  -0.4166667), wk =   0.0138889
        k(   49) = (   0.0833333   0.2500000   0.3333333), wk =   0.0138889
        k(   50) = (   0.0833333   0.2500000   0.4166667), wk =   0.0277778
        k(   51) = (   0.0833333   0.2500000  -0.5000000), wk =   0.0277778
        k(   52) = (   0.0833333   0.2500000  -0.4166667), wk =   0.0277778
        k(   53) = (   0.0833333   0.2500000  -0.3333333), wk =   0.0277778
        k(   54) = (   0.0833333   0.2500000  -0.2500000), wk =   0.0277778
        k(   55) = (   0.0833333   0.2500000  -0.1666667), wk =   0.0138889
        k(   56) = (   0.0833333   0.3333333   0.4166667), wk =   0.0138889
        k(   57) = (   0.0833333   0.3333333  -0.5000000), wk =   0.0277778
        k(   58) = (   0.0833333   0.3333333  -0.4166667), wk =   0.0277778
        k(   59) = (   0.0833333   0.3333333  -0.3333333), wk =   0.0277778
        k(   60) = (   0.0833333   0.3333333  -0.2500000), wk =   0.0138889
        k(   61) = (   0.0833333   0.4166667  -0.5000000), wk =   0.0138889
        k(   62) = (   0.0833333   0.4166667  -0.4166667), wk =   0.0277778
        k(   63) = (   0.0833333   0.4166667  -0.3333333), wk =   0.0138889
        k(   64) = (   0.0833333  -0.5000000  -0.4166667), wk =   0.0069444
        k(   65) = (   0.1666667   0.3333333  -0.5000000), wk =   0.0138889
        k(   66) = (   0.1666667   0.3333333  -0.4166667), wk =   0.0277778
        k(   67) = (   0.1666667   0.3333333  -0.3333333), wk =   0.0138889
        k(   68) = (   0.1666667   0.4166667  -0.4166667), wk =   0.0138889
        k(   69) = (   0.1666667   0.4166667  -0.3333333), wk =   0.0277778
        k(   70) = (   0.1666667   0.4166667  -0.2500000), wk =   0.0138889
        k(   71) = (   0.1666667  -0.5000000  -0.3333333), wk =   0.0069444
        k(   72) = (   0.2500000  -0.5000000  -0.2500000), wk =   0.0034722

     Dense  grid:    43143 G-vectors     FFT dimensions: (  50,  50,  50)

     Smooth grid:    15089 G-vectors     FFT dimensions: (  36,  36,  36)

     Dynamical RAM for                 wfc:       0.10 MB

     Dynamical RAM for     wfc (w. buffer):       2.31 MB

     Dynamical RAM for           str. fact:       0.33 MB

     Dynamical RAM for           local pot:       0.00 MB

     Dynamical RAM for          nlocal pot:       0.26 MB

     Dynamical RAM for                qrad:       5.74 MB

     Dynamical RAM for          rho,v,vnew:       1.30 MB

     Dynamical RAM for               rhoin:       0.43 MB

     Dynamical RAM for            rho*nmix:       2.63 MB

     Dynamical RAM for           G-vectors:       0.32 MB

     Dynamical RAM for          h,s,v(r/c):       0.15 MB

     Dynamical RAM for          <psi|beta>:       0.03 MB

     Dynamical RAM for                 phi:       0.42 MB

     Dynamical RAM for                hphi:       0.42 MB

     Dynamical RAM for                sphi:       0.42 MB

     Dynamical RAM for                hpsi:       0.10 MB

     Dynamical RAM for                spsi:       0.10 MB

     Dynamical RAM for                kpsi:       0.10 MB

     Dynamical RAM for               hkpsi:       0.10 MB

     Dynamical RAM for               skpsi:       0.10 MB

     Dynamical RAM for      wfcinit/wfcrot:       0.30 MB

     Dynamical RAM for           addusdens:       2.35 MB

     Dynamical RAM for          addusforce:       2.29 MB

     Dynamical RAM for         addusstress:       2.45 MB

     Estimated static dynamical RAM per process >      11.90 MB

     Estimated max dynamical RAM per process >      16.99 MB

     Estimated total dynamical RAM >     824.75 MB

     Check: negative core charge=   -0.000004
     Generating pointlists ...
     new r_m :   0.2526 (alat units)  2.1636 (a.u.) for type    1
     new r_m :   0.2526 (alat units)  2.1636 (a.u.) for type    2
     new r_m :   0.2526 (alat units)  2.1636 (a.u.) for type    3
     new r_m :   0.2526 (alat units)  2.1636 (a.u.) for type    4

     The initial density is read from file :
     ./out/aiida.save/charge-density


     negative rho (up, down):  3.124E-02 3.068E-02
     Starting wfcs are   37 randomized atomic wfcs
     Checking if some PAW data can be deallocated... 
       PAW data deallocated on   42 nodes for type:  1

     total cpu time spent up to now is        2.0 secs

     per-process dynamical memory:    23.4 Mb

     Self-consistent Calculation

     iteration #  1     ecut=    40.00 Ry     beta= 0.40
     ParO style diagonalization

---- Real-time Memory Report at c_bands before calling an iterative solver
            61 MiB given to the printing process from OS
            22 MiB allocation reported by mallinfo(arena+hblkhd)
        486626 MiB available memory on the node where the printing process lives
------------------
     ethr =  1.00E-05,  avg # of iterations = 12.3
     Minimization algorithm failed to find Fermi energy: reverting to bisection
     Possible cause: smearing is larger than the electronic band-gap.

     negative rho (up, down):  3.134E-02 3.091E-02

     total cpu time spent up to now is        4.2 secs

     total energy              =    -457.93609495 Ry
     estimated scf accuracy    <       0.20111775 Ry

     total magnetization       =    -0.11 Bohr mag/cell
     absolute magnetization    =     5.82 Bohr mag/cell

     iteration #  2     ecut=    40.00 Ry     beta= 0.40
     RMM-DIIS diagonalization

---- Real-time Memory Report at c_bands before calling an iterative solver
            67 MiB given to the printing process from OS
            27 MiB allocation reported by mallinfo(arena+hblkhd)
        486385 MiB available memory on the node where the printing process lives
------------------
     ethr =  4.79E-04,  avg # of iterations =  3.2

     negative rho (up, down):  3.135E-02 3.089E-02

     total cpu time spent up to now is        4.7 secs

     total energy              =    -457.81437126 Ry
     estimated scf accuracy    <       3.26042279 Ry

     total magnetization       =     0.00 Bohr mag/cell
     absolute magnetization    =     3.42 Bohr mag/cell

     iteration #  3     ecut=    40.00 Ry     beta= 0.40
     RMM-DIIS diagonalization

---- Real-time Memory Report at c_bands before calling an iterative solver
            67 MiB given to the printing process from OS
            28 MiB allocation reported by mallinfo(arena+hblkhd)
        486383 MiB available memory on the node where the printing process lives
------------------
     ethr =  4.79E-04,  avg # of iterations =  2.7
     Minimization algorithm failed to find Fermi energy: reverting to bisection
     Possible cause: smearing is larger than the electronic band-gap.

     negative rho (up, down):  3.130E-02 3.090E-02

     total cpu time spent up to now is        5.2 secs

     total energy              =    -458.00359991 Ry
     estimated scf accuracy    <       0.42882582 Ry

     total magnetization       =     0.07 Bohr mag/cell
     absolute magnetization    =     5.06 Bohr mag/cell

     iteration #  4     ecut=    40.00 Ry     beta= 0.40
     RMM-DIIS diagonalization

---- Real-time Memory Report at c_bands before calling an iterative solver
            67 MiB given to the printing process from OS
            28 MiB allocation reported by mallinfo(arena+hblkhd)
        486385 MiB available memory on the node where the printing process lives
------------------
     ethr =  4.79E-04,  avg # of iterations =  2.5
     Minimization algorithm failed to find Fermi energy: reverting to bisection
     Possible cause: smearing is larger than the electronic band-gap.

     negative rho (up, down):  3.130E-02 3.091E-02

     total cpu time spent up to now is        5.6 secs

     total energy              =    -458.03107005 Ry
     estimated scf accuracy    <       0.01390970 Ry

     total magnetization       =     0.17 Bohr mag/cell
     absolute magnetization    =     5.51 Bohr mag/cell

     iteration #  5     ecut=    40.00 Ry     beta= 0.40
     RMM-DIIS diagonalization

---- Real-time Memory Report at c_bands before calling an iterative solver
            68 MiB given to the printing process from OS
            28 MiB allocation reported by mallinfo(arena+hblkhd)
        486368 MiB available memory on the node where the printing process lives
------------------
     ethr =  3.31E-05,  avg # of iterations =  2.8
     Minimization algorithm failed to find Fermi energy: reverting to bisection
     Possible cause: smearing is larger than the electronic band-gap.

     negative rho (up, down):  3.129E-02 3.092E-02

     total cpu time spent up to now is        6.1 secs

     total energy              =    -458.03275368 Ry
     estimated scf accuracy    <       0.00906562 Ry

     total magnetization       =     0.17 Bohr mag/cell
     absolute magnetization    =     5.54 Bohr mag/cell

     iteration #  6     ecut=    40.00 Ry     beta= 0.40
     ParO style diagonalization

---- Real-time Memory Report at c_bands before calling an iterative solver
            68 MiB given to the printing process from OS
            28 MiB allocation reported by mallinfo(arena+hblkhd)
        486367 MiB available memory on the node where the printing process lives
------------------
     ethr =  2.16E-05,  avg # of iterations =  5.8
     Minimization algorithm failed to find Fermi energy: reverting to bisection
     Possible cause: smearing is larger than the electronic band-gap.

     negative rho (up, down):  3.116E-02 3.159E-02

     total cpu time spent up to now is        7.3 secs

     total energy              =    -458.03971343 Ry
     estimated scf accuracy    <       0.00567588 Ry

     total magnetization       =     0.17 Bohr mag/cell
     absolute magnetization    =     5.57 Bohr mag/cell

     iteration #  7     ecut=    40.00 Ry     beta= 0.40
     RMM-DIIS diagonalization

---- Real-time Memory Report at c_bands before calling an iterative solver
            68 MiB given to the printing process from OS
            28 MiB allocation reported by mallinfo(arena+hblkhd)
        486363 MiB available memory on the node where the printing process lives
------------------
     ethr =  1.35E-05,  avg # of iterations =  3.5
     Minimization algorithm failed to find Fermi energy: reverting to bisection
     Possible cause: smearing is larger than the electronic band-gap.

     negative rho (up, down):  3.120E-02 3.185E-02

     total cpu time spent up to now is        7.9 secs

     total energy              =    -458.04117740 Ry
     estimated scf accuracy    <       0.05329783 Ry

     total magnetization       =     0.08 Bohr mag/cell
     absolute magnetization    =     5.61 Bohr mag/cell

     iteration #  8     ecut=    40.00 Ry     beta= 0.40
     RMM-DIIS diagonalization

---- Real-time Memory Report at c_bands before calling an iterative solver
            69 MiB given to the printing process from OS
            28 MiB allocation reported by mallinfo(arena+hblkhd)
        486361 MiB available memory on the node where the printing process lives
------------------
     ethr =  1.35E-05,  avg # of iterations =  2.6
     Minimization algorithm failed to find Fermi energy: reverting to bisection
     Possible cause: smearing is larger than the electronic band-gap.

     negative rho (up, down):  3.131E-02 3.202E-02

     total cpu time spent up to now is        8.4 secs

     total energy              =    -458.03980418 Ry
     estimated scf accuracy    <       0.03608433 Ry

     total magnetization       =     0.08 Bohr mag/cell
     absolute magnetization    =     5.74 Bohr mag/cell

     iteration #  9     ecut=    40.00 Ry     beta= 0.40
     RMM-DIIS diagonalization

---- Real-time Memory Report at c_bands before calling an iterative solver
            69 MiB given to the printing process from OS
            28 MiB allocation reported by mallinfo(arena+hblkhd)
        486360 MiB available memory on the node where the printing process lives
------------------
     ethr =  1.35E-05,  avg # of iterations =  2.5
     Minimization algorithm failed to find Fermi energy: reverting to bisection
     Possible cause: smearing is larger than the electronic band-gap.

     negative rho (up, down):  3.152E-02 3.230E-02

     total cpu time spent up to now is        8.8 secs

     total energy              =    -458.03687231 Ry
     estimated scf accuracy    <       0.02475677 Ry

     total magnetization       =     0.10 Bohr mag/cell
     absolute magnetization    =     5.83 Bohr mag/cell

     iteration # 10     ecut=    40.00 Ry     beta= 0.40
     RMM-DIIS diagonalization

---- Real-time Memory Report at c_bands before calling an iterative solver
            69 MiB given to the printing process from OS
            28 MiB allocation reported by mallinfo(arena+hblkhd)
        486357 MiB available memory on the node where the printing process lives
------------------
     ethr =  1.35E-05,  avg # of iterations =  2.6
     Minimization algorithm failed to find Fermi energy: reverting to bisection
     Possible cause: smearing is larger than the electronic band-gap.

     negative rho (up, down):  3.153E-02 3.234E-02

     total cpu time spent up to now is        9.3 secs

     total energy              =    -458.03771778 Ry
     estimated scf accuracy    <       0.00712230 Ry

     total magnetization       =     0.13 Bohr mag/cell
     absolute magnetization    =     6.00 Bohr mag/cell

     iteration # 11     ecut=    40.00 Ry     beta= 0.40
     ParO style diagonalization

---- Real-time Memory Report at c_bands before calling an iterative solver
            69 MiB given to the printing process from OS
            28 MiB allocation reported by mallinfo(arena+hblkhd)
        486356 MiB available memory on the node where the printing process lives
------------------
     ethr =  1.35E-05,  avg # of iterations =  5.4
     Minimization algorithm failed to find Fermi energy: reverting to bisection
     Possible cause: smearing is larger than the electronic band-gap.

     negative rho (up, down):  3.166E-02 3.255E-02

     total cpu time spent up to now is       10.3 secs

     total energy              =    -458.03700665 Ry
     estimated scf accuracy    <       0.00453414 Ry

     total magnetization       =     0.13 Bohr mag/cell
     absolute magnetization    =     6.03 Bohr mag/cell

     iteration # 12     ecut=    40.00 Ry     beta= 0.40
     RMM-DIIS diagonalization

---- Real-time Memory Report at c_bands before calling an iterative solver
            69 MiB given to the printing process from OS
            28 MiB allocation reported by mallinfo(arena+hblkhd)
        486356 MiB available memory on the node where the printing process lives
------------------
     ethr =  1.08E-05,  avg # of iterations =  2.5
     Minimization algorithm failed to find Fermi energy: reverting to bisection
     Possible cause: smearing is larger than the electronic band-gap.

     negative rho (up, down):  3.177E-02 3.265E-02

     total cpu time spent up to now is       10.8 secs

     total energy              =    -458.03739577 Ry
     estimated scf accuracy    <       0.00078474 Ry

     total magnetization       =     0.13 Bohr mag/cell
     absolute magnetization    =     6.15 Bohr mag/cell

     iteration # 13     ecut=    40.00 Ry     beta= 0.40
     RMM-DIIS diagonalization

---- Real-time Memory Report at c_bands before calling an iterative solver
            69 MiB given to the printing process from OS
            28 MiB allocation reported by mallinfo(arena+hblkhd)
        486355 MiB available memory on the node where the printing process lives
------------------
     ethr =  1.87E-06,  avg # of iterations =  3.5
     Minimization algorithm failed to find Fermi energy: reverting to bisection
     Possible cause: smearing is larger than the electronic band-gap.

     negative rho (up, down):  3.175E-02 3.260E-02

     total cpu time spent up to now is       11.4 secs

     total energy              =    -458.03745547 Ry
     estimated scf accuracy    <       0.00400819 Ry

     total magnetization       =     0.13 Bohr mag/cell
     absolute magnetization    =     6.25 Bohr mag/cell

     iteration # 14     ecut=    40.00 Ry     beta= 0.40
     RMM-DIIS diagonalization

---- Real-time Memory Report at c_bands before calling an iterative solver
            69 MiB given to the printing process from OS
            28 MiB allocation reported by mallinfo(arena+hblkhd)
        486355 MiB available memory on the node where the printing process lives
------------------
     ethr =  1.87E-06,  avg # of iterations =  2.6
     Minimization algorithm failed to find Fermi energy: reverting to bisection
     Possible cause: smearing is larger than the electronic band-gap.

     negative rho (up, down):  3.175E-02 3.260E-02

     total cpu time spent up to now is       11.8 secs

     total energy              =    -458.03765743 Ry
     estimated scf accuracy    <       0.00105845 Ry

     total magnetization       =     0.13 Bohr mag/cell
     absolute magnetization    =     6.21 Bohr mag/cell

     iteration # 15     ecut=    40.00 Ry     beta= 0.40
     RMM-DIIS diagonalization

---- Real-time Memory Report at c_bands before calling an iterative solver
            70 MiB given to the printing process from OS
            28 MiB allocation reported by mallinfo(arena+hblkhd)
        486345 MiB available memory on the node where the printing process lives
------------------
     ethr =  1.87E-06,  avg # of iterations =  2.5
     Minimization algorithm failed to find Fermi energy: reverting to bisection
     Possible cause: smearing is larger than the electronic band-gap.

     negative rho (up, down):  3.175E-02 3.264E-02

     total cpu time spent up to now is       12.3 secs

     total energy              =    -458.03795566 Ry
     estimated scf accuracy    <       0.00150601 Ry

     total magnetization       =     0.13 Bohr mag/cell
     absolute magnetization    =     6.22 Bohr mag/cell

     iteration # 16     ecut=    40.00 Ry     beta= 0.40
     ParO style diagonalization

---- Real-time Memory Report at c_bands before calling an iterative solver
            70 MiB given to the printing process from OS
            28 MiB allocation reported by mallinfo(arena+hblkhd)
        486344 MiB available memory on the node where the printing process lives
------------------
     ethr =  1.87E-06,  avg # of iterations =  6.5
     Minimization algorithm failed to find Fermi energy: reverting to bisection
     Possible cause: smearing is larger than the electronic band-gap.

     negative rho (up, down):  3.173E-02 3.265E-02

     total cpu time spent up to now is       13.6 secs

     total energy              =    -458.03801678 Ry
     estimated scf accuracy    <       0.00525751 Ry

     total magnetization       =     0.13 Bohr mag/cell
     absolute magnetization    =     6.25 Bohr mag/cell

     iteration # 17     ecut=    40.00 Ry     beta= 0.40
     RMM-DIIS diagonalization

---- Real-time Memory Report at c_bands before calling an iterative solver
            70 MiB given to the printing process from OS
            28 MiB allocation reported by mallinfo(arena+hblkhd)
        486344 MiB available memory on the node where the printing process lives
------------------
     ethr =  1.87E-06,  avg # of iterations =  2.5
     Minimization algorithm failed to find Fermi energy: reverting to bisection
     Possible cause: smearing is larger than the electronic band-gap.

     negative rho (up, down):  3.173E-02 3.261E-02

     total cpu time spent up to now is       14.0 secs

     total energy              =    -458.03801758 Ry
     estimated scf accuracy    <       0.00477689 Ry

     total magnetization       =     0.13 Bohr mag/cell
     absolute magnetization    =     6.24 Bohr mag/cell

     iteration # 18     ecut=    40.00 Ry     beta= 0.40
     RMM-DIIS diagonalization

---- Real-time Memory Report at c_bands before calling an iterative solver
            70 MiB given to the printing process from OS
            28 MiB allocation reported by mallinfo(arena+hblkhd)
        486343 MiB available memory on the node where the printing process lives
------------------
     ethr =  1.87E-06,  avg # of iterations =  2.5
     Minimization algorithm failed to find Fermi energy: reverting to bisection
     Possible cause: smearing is larger than the electronic band-gap.

     negative rho (up, down):  3.175E-02 3.263E-02

     total cpu time spent up to now is       14.5 secs

     total energy              =    -458.03792968 Ry
     estimated scf accuracy    <       0.00477986 Ry

     total magnetization       =     0.13 Bohr mag/cell
     absolute magnetization    =     6.24 Bohr mag/cell

     iteration # 19     ecut=    40.00 Ry     beta= 0.40
     RMM-DIIS diagonalization

---- Real-time Memory Report at c_bands before calling an iterative solver
            70 MiB given to the printing process from OS
            28 MiB allocation reported by mallinfo(arena+hblkhd)
        486343 MiB available memory on the node where the printing process lives
------------------
     ethr =  1.87E-06,  avg # of iterations =  2.5
     Minimization algorithm failed to find Fermi energy: reverting to bisection
     Possible cause: smearing is larger than the electronic band-gap.

     negative rho (up, down):  3.176E-02 3.261E-02

     total cpu time spent up to now is       14.9 secs

     total energy              =    -458.03723114 Ry
     estimated scf accuracy    <       0.00406876 Ry

     total magnetization       =     0.13 Bohr mag/cell
     absolute magnetization    =     6.24 Bohr mag/cell

     iteration # 20     ecut=    40.00 Ry     beta= 0.40
     RMM-DIIS diagonalization

---- Real-time Memory Report at c_bands before calling an iterative solver
            70 MiB given to the printing process from OS
            28 MiB allocation reported by mallinfo(arena+hblkhd)
        486342 MiB available memory on the node where the printing process lives
------------------
     ethr =  1.87E-06,  avg # of iterations =  2.8
     Minimization algorithm failed to find Fermi energy: reverting to bisection
     Possible cause: smearing is larger than the electronic band-gap.

     negative rho (up, down):  3.175E-02 3.266E-02

     total cpu time spent up to now is       15.4 secs

     total energy              =    -458.03743803 Ry
     estimated scf accuracy    <       0.00044878 Ry

     total magnetization       =     0.14 Bohr mag/cell
     absolute magnetization    =     6.21 Bohr mag/cell

     iteration # 21     ecut=    40.00 Ry     beta= 0.40
     ParO style diagonalization

---- Real-time Memory Report at c_bands before calling an iterative solver
            70 MiB given to the printing process from OS
            28 MiB allocation reported by mallinfo(arena+hblkhd)
        486342 MiB available memory on the node where the printing process lives
------------------
     ethr =  1.07E-06,  avg # of iterations =  6.5
     Minimization algorithm failed to find Fermi energy: reverting to bisection
     Possible cause: smearing is larger than the electronic band-gap.

     negative rho (up, down):  3.175E-02 3.265E-02

     total cpu time spent up to now is       16.7 secs

     total energy              =    -458.03748829 Ry
     estimated scf accuracy    <       0.00004845 Ry

     total magnetization       =     0.14 Bohr mag/cell
     absolute magnetization    =     6.21 Bohr mag/cell

     iteration # 22     ecut=    40.00 Ry     beta= 0.40
     RMM-DIIS diagonalization

---- Real-time Memory Report at c_bands before calling an iterative solver
            70 MiB given to the printing process from OS
            28 MiB allocation reported by mallinfo(arena+hblkhd)
        486342 MiB available memory on the node where the printing process lives
------------------
     ethr =  1.15E-07,  avg # of iterations =  2.5
     Minimization algorithm failed to find Fermi energy: reverting to bisection
     Possible cause: smearing is larger than the electronic band-gap.

     negative rho (up, down):  3.174E-02 3.265E-02

     total cpu time spent up to now is       17.1 secs

     total energy              =    -458.03748184 Ry
     estimated scf accuracy    <       0.00002885 Ry

     total magnetization       =     0.14 Bohr mag/cell
     absolute magnetization    =     6.21 Bohr mag/cell

     iteration # 23     ecut=    40.00 Ry     beta= 0.40
     RMM-DIIS diagonalization

---- Real-time Memory Report at c_bands before calling an iterative solver
            70 MiB given to the printing process from OS
            28 MiB allocation reported by mallinfo(arena+hblkhd)
        486341 MiB available memory on the node where the printing process lives
------------------
     ethr =  6.87E-08,  avg # of iterations =  2.6
     Minimization algorithm failed to find Fermi energy: reverting to bisection
     Possible cause: smearing is larger than the electronic band-gap.

     negative rho (up, down):  3.174E-02 3.264E-02

     total cpu time spent up to now is       17.6 secs

     total energy              =    -458.03748506 Ry
     estimated scf accuracy    <       0.00000013 Ry

     total magnetization       =     0.14 Bohr mag/cell
     absolute magnetization    =     6.20 Bohr mag/cell

     iteration # 24     ecut=    40.00 Ry     beta= 0.40
     RMM-DIIS diagonalization

---- Real-time Memory Report at c_bands before calling an iterative solver
            70 MiB given to the printing process from OS
            28 MiB allocation reported by mallinfo(arena+hblkhd)
        486341 MiB available memory on the node where the printing process lives
------------------
     ethr =  3.17E-10,  avg # of iterations =  3.7
     Minimization algorithm failed to find Fermi energy: reverting to bisection
     Possible cause: smearing is larger than the electronic band-gap.

     negative rho (up, down):  3.174E-02 3.265E-02

     total cpu time spent up to now is       18.2 secs

     total energy              =    -458.03748546 Ry
     estimated scf accuracy    <       0.00000242 Ry

     total magnetization       =     0.14 Bohr mag/cell
     absolute magnetization    =     6.20 Bohr mag/cell

     iteration # 25     ecut=    40.00 Ry     beta= 0.40
     RMM-DIIS diagonalization

---- Real-time Memory Report at c_bands before calling an iterative solver
            70 MiB given to the printing process from OS
            28 MiB allocation reported by mallinfo(arena+hblkhd)
        486339 MiB available memory on the node where the printing process lives
------------------
     ethr =  3.17E-10,  avg # of iterations =  3.2
     Minimization algorithm failed to find Fermi energy: reverting to bisection
     Possible cause: smearing is larger than the electronic band-gap.

     negative rho (up, down):  3.175E-02 3.265E-02

     total cpu time spent up to now is       18.8 secs

     total energy              =    -458.03748553 Ry
     estimated scf accuracy    <       0.00000050 Ry

     total magnetization       =     0.14 Bohr mag/cell
     absolute magnetization    =     6.20 Bohr mag/cell

     iteration # 26     ecut=    40.00 Ry     beta= 0.40
     ParO style diagonalization

---- Real-time Memory Report at c_bands before calling an iterative solver
            70 MiB given to the printing process from OS
            28 MiB allocation reported by mallinfo(arena+hblkhd)
        486338 MiB available memory on the node where the printing process lives
------------------
     ethr =  3.17E-10,  avg # of iterations =  9.3
     Minimization algorithm failed to find Fermi energy: reverting to bisection
     Possible cause: smearing is larger than the electronic band-gap.

     negative rho (up, down):  3.175E-02 3.265E-02

     total cpu time spent up to now is       20.4 secs

     total energy              =    -458.03748561 Ry
     estimated scf accuracy    <       0.00000003 Ry

     total magnetization       =     0.14 Bohr mag/cell
     absolute magnetization    =     6.20 Bohr mag/cell

     iteration # 27     ecut=    40.00 Ry     beta= 0.40
     RMM-DIIS diagonalization

---- Real-time Memory Report at c_bands before calling an iterative solver
            70 MiB given to the printing process from OS
            28 MiB allocation reported by mallinfo(arena+hblkhd)
        486337 MiB available memory on the node where the printing process lives
------------------
     ethr =  6.18E-11,  avg # of iterations =  2.6
     Minimization algorithm failed to find Fermi energy: reverting to bisection
     Possible cause: smearing is larger than the electronic band-gap.

     negative rho (up, down):  3.175E-02 3.265E-02

     total cpu time spent up to now is       20.9 secs

     total energy              =    -458.03748562 Ry
     estimated scf accuracy    <          1.6E-09 Ry

     total magnetization       =     0.14 Bohr mag/cell
     absolute magnetization    =     6.21 Bohr mag/cell

     iteration # 28     ecut=    40.00 Ry     beta= 0.40
     RMM-DIIS diagonalization

---- Real-time Memory Report at c_bands before calling an iterative solver
            70 MiB given to the printing process from OS
            28 MiB allocation reported by mallinfo(arena+hblkhd)
        486337 MiB available memory on the node where the printing process lives
------------------
     ethr =  3.76E-12,  avg # of iterations =  3.0
     Minimization algorithm failed to find Fermi energy: reverting to bisection
     Possible cause: smearing is larger than the electronic band-gap.

     negative rho (up, down):  3.174E-02 3.265E-02

     Magnetic moment per site  (integrated on atomic sphere of radius R)
     atom   1 (R=0.253)  charge=  9.5676  magn= -0.2085
     atom   2 (R=0.253)  charge=  1.6432  magn= -0.0252
     atom   3 (R=0.253)  charge= 11.5433  magn= -2.1761
     atom   4 (R=0.253)  charge= 12.6673  magn=  2.7937

     total cpu time spent up to now is       21.4 secs

     End of self-consistent calculation

 ------ SPIN UP ------------


          k = 0.0000 0.0000 0.0000 (  1917 PWs)   bands (ev):

   -58.9987 -48.9583 -34.5745 -30.4529 -30.4529 -30.4529 -22.9560 -22.9560
   -22.9560 -12.7134 -12.7134 -12.7134   5.6517  10.9037  10.9037  11.1820
    11.1820  11.1820  12.8959  12.8959  12.8959  14.6715  14.6715  14.6715
    14.7940  14.7940  17.3084  17.3084  18.4762

     occupation numbers 
     1.0000   1.0000   1.0000   1.0000   1.0000   1.0000   1.0000   1.0000
     1.0000   1.0000   1.0000   1.0000   1.0000   1.0000   1.0000   1.0000
     1.0000   1.0000   1.0158   1.0158   1.0158   0.0000   0.0000   0.0000
     0.0000   0.0000   0.0000   0.0000   0.0000

          k = 0.0589 0.0589-0.0589 (  1892 PWs)   bands (ev):

   -58.9986 -48.9582 -34.5747 -30.4529 -30.4529 -30.4527 -22.9561 -22.9561
   -22.9559 -12.7152 -12.7133 -12.7133   5.7397  10.8388  10.8388  11.1267
    11.2871  11.2871  12.7743  12.8534  12.8534  14.5361  14.6273  14.6273
    14.8646  14.8646  17.2590  17.2590  18.1393

     occupation numbers 
     1.0000   1.0000   1.0000   1.0000   1.0000   1.0000   1.0000   1.0000
     1.0000   1.0000   1.0000   1.0000   1.0000   1.0000   1.0000   1.0000
     1.0000   1.0000   1.0833   1.0571   1.0571   0.0000   0.0000   0.0000
     0.0000   0.0000   0.0000   0.0000   0.0000

          k = 0.1179 0.1179-0.1179 (  1901 PWs)   bands (ev):

   -58.9986 -48.9582 -34.5753 -30.4530 -30.4530 -30.4522 -22.9563 -22.9563
   -22.9558 -12.7200 -12.7129 -12.7129   5.9971  10.7583  10.7583  10.9637
    11.4723  11.4723  12.3994  12.7548  12.7548  14.3324  14.5298  14.5298
    15.0254  15.0254  17.1696  17.1696  18.0927

     occupation numbers 
     1.0000   1.0000   1.0000   1.0000   1.0000   1.0000   1.0000   1.0000
     1.0000   1.0000   1.0000   1.0000   1.0000   1.0000   1.0000   1.0000
     1.0000   1.0000   1.0036   1.0822   1.0822   0.0000   0.0000   0.0000
     0.0000   0.0000   0.0000   0.0000   0.0000

          k = 0.1768 0.1768-0.1768 (  1898 PWs)   bands (ev):

   -58.9986 -48.9581 -34.5761 -30.4531 -30.4531 -30.4515 -22.9567 -22.9567
   -22.9557 -12.7264 -12.7124 -12.7124   6.4044  10.6391  10.7204  10.7204
    11.6340  11.6340  11.9516  12.6639  12.6639  14.2364  14.3872  14.3872
    15.2482  15.2482  17.1055  17.1055  18.0654

     occupation numbers 
     1.0000   1.0000   1.0000   1.0000   1.0000   1.0000   1.0000   1.0000
     1.0000   1.0000   1.0000   1.0000   1.0000   1.0000   1.0000   1.0000
     1.0000   1.0000   1.0000   1.0580   1.0580   0.0000   0.0000   0.0000
     0.0000   0.0000   0.0000   0.0000   0.0000

          k = 0.2357 0.2357-0.2357 (  1898 PWs)   bands (ev):

   -58.9986 -48.9581 -34.5769 -30.4531 -30.4531 -30.4508 -22.9571 -22.9571
   -22.9556 -12.7327 -12.7119 -12.7119   6.9279  10.0666  10.7222  10.7222
    11.7177  11.7177  11.7350  12.6359  12.6359  14.1925  14.2235  14.2235
    15.5078  15.5078  17.0786  17.0786  17.5631

     occupation numbers 
     1.0000   1.0000   1.0000   1.0000   1.0000   1.0000   1.0000   1.0000
     1.0000   1.0000   1.0000   1.0000   1.0000   1.0000   1.0000   1.0000
     1.0000   1.0000   1.0000   1.0484   1.0484   0.0000   0.0000   0.0000
     0.0000   0.0000   0.0000   0.0000   0.0000

          k = 0.2946 0.2946-0.2946 (  1898 PWs)   bands (ev):

   -58.9986 -48.9580 -34.5776 -30.4532 -30.4532 -30.4502 -22.9574 -22.9574
   -22.9555 -12.7373 -12.7116 -12.7116   7.5018   9.3914  10.7421  10.7421
    11.7282  11.7288  11.7288  12.6626  12.6626  14.0887  14.0887  14.1392
    15.7424  15.7424  16.9276  17.0764  17.0764

     occupation numbers 
     1.0000   1.0000   1.0000   1.0000   1.0000   1.0000   1.0000   1.0000
     1.0000   1.0000   1.0000   1.0000   1.0000   1.0000   1.0000   1.0000
     1.0000   1.0000   1.0000   1.0576   1.0576   0.0000   0.0000   0.0000
     0.0000   0.0000   0.0000   0.0000   0.0000

          k =-0.3536-0.3536 0.3536 (  1892 PWs)   bands (ev):

   -58.9986 -48.9580 -34.5778 -30.4532 -30.4532 -30.4501 -22.9575 -22.9575
   -22.9554 -12.7390 -12.7115 -12.7115   7.8569   8.9929  10.7532  10.7532
    11.7228  11.7228  11.7549  12.6824  12.6824  14.0357  14.0357  14.1051
    15.8433  15.8433  16.6966  17.0799  17.0799

     occupation numbers 
     1.0000   1.0000   1.0000   1.0000   1.0000   1.0000   1.0000   1.0000
     1.0000   1.0000   1.0000   1.0000   1.0000   1.0000   1.0000   1.0000
     1.0000   1.0000   1.0000   1.0643   1.0643   0.0000   0.0000   0.0000
     0.0000   0.0000   0.0000   0.0000   0.0000

          k = 0.1179 0.0000-0.0000 (  1893 PWs)   bands (ev):

   -58.9986 -48.9582 -34.5748 -30.4530 -30.4530 -30.4526 -22.9562 -22.9562
   -22.9558 -12.7157 -12.7133 -12.7133   5.7687  10.6890  10.9577  11.2143
    11.2143  11.3131  12.6361  12.9035  12.9035  14.5565  14.5940  14.5940
    14.7938  14.9249  17.2112  17.2538  18.0862

     occupation numbers 
     1.0000   1.0000   1.0000   1.0000   1.0000   1.0000   1.0000   1.0000
     1.0000   1.0000   1.0000   1.0000   1.0000   1.0000   1.0000   1.0000
     1.0000   1.0000   1.0484   1.0061   1.0061   0.0000   0.0000   0.0000
     0.0000   0.0000   0.0000   0.0000   0.0000

          k = 0.1768 0.0589-0.0589 (  1900 PWs)   bands (ev):

   -58.9986 -48.9582 -34.5752 -30.4530 -30.4530 -30.4522 -22.9564 -22.9564
   -22.9556 -12.7194 -12.7131 -12.7130   5.9687  10.5272  10.9400  11.1496
    11.3454  11.4764  12.3520  12.8121  12.8724  14.3742  14.4942  14.5598
    14.8644  15.0546  17.0954  17.1844  18.0709

     occupation numbers 
     1.0000   1.0000   1.0000   1.0000   1.0000   1.0000   1.0000   1.0000
     1.0000   1.0000   1.0000   1.0000   1.0000   1.0000   1.0000   1.0000
     1.0000   1.0000   1.0017   1.0779   1.0413   0.0000   0.0000   0.0000
     0.0000   0.0000   0.0000   0.0000   0.0000

          k = 0.2357 0.1179-0.1179 (  1916 PWs)   bands (ev):

   -58.9986 -48.9581 -34.5760 -30.4531 -30.4531 -30.4515 -22.9569 -22.9568
   -22.9553 -12.7249 -12.7129 -12.7125   6.3238  10.3785  10.8954  10.9885
    11.5246  11.6528  11.9794  12.6200  12.8022  14.2455  14.3544  14.5036
    15.0554  15.2311  16.9873  17.1242  18.1352

     occupation numbers 
     1.0000   1.0000   1.0000   1.0000   1.0000   1.0000   1.0000   1.0000
     1.0000   1.0000   1.0000   1.0000   1.0000   1.0000   1.0000   1.0000
     1.0000   1.0000   1.0000   1.0431   1.0804   0.0000   0.0000   0.0000
     0.0000   0.0000   0.0000   0.0000   0.0000

          k = 0.2946 0.1768-0.1768 (  1897 PWs)   bands (ev):

   -58.9986 -48.9581 -34.5768 -30.4532 -30.4532 -30.4508 -22.9574 -22.9572
   -22.9550 -12.7308 -12.7129 -12.7121   6.8039  10.1234  10.7611  10.8715
    11.6452  11.6894  11.8015  12.5107  12.7502  14.1763  14.2026  14.4179
    15.3342  15.4283  16.9220  17.0798  17.8173

     occupation numbers 
     1.0000   1.0000   1.0000   1.0000   1.0000   1.0000   1.0000   1.0000
     1.0000   1.0000   1.0000   1.0000   1.0000   1.0000   1.0000   1.0000
     1.0000   1.0000   1.0000   1.0152   1.0816   0.0000   0.0000   0.0000
     0.0000   0.0000   0.0000   0.0000   0.0000

          k = 0.3536 0.2357-0.2357 (  1899 PWs)   bands (ev):

   -58.9986 -48.9580 -34.5775 -30.4533 -30.4532 -30.4502 -22.9579 -22.9575
   -22.9547 -12.7356 -12.7129 -12.7117   7.3559   9.6019  10.6646  10.8521
    11.6673  11.6966  11.8128  12.5277  12.7223  14.0902  14.1115  14.2982
    15.6286  15.6293  16.9169  16.9699  17.1640

     occupation numbers 
     1.0000   1.0000   1.0000   1.0000   1.0000   1.0000   1.0000   1.0000
     1.0000   1.0000   1.0000   1.0000   1.0000   1.0000   1.0000   1.0000
     1.0000   1.0000   1.0000   1.0184   1.0762   0.0000   0.0000   0.0000
     0.0000   0.0000   0.0000   0.0000   0.0000

          k =-0.2946-0.4125 0.4125 (  1896 PWs)   bands (ev):

   -58.9986 -48.9580 -34.5779 -30.4534 -30.4532 -30.4498 -22.9582 -22.9576
   -22.9546 -12.7379 -12.7129 -12.7114   7.8195   9.1055  10.6846  10.8120
    11.7003  11.7269  11.7853  12.6073  12.6750  14.0670  14.0791  14.1656
    15.7747  15.8001  16.6894  16.9919  16.9932

     occupation numbers 
     1.0000   1.0000   1.0000   1.0000   1.0000   1.0000   1.0000   1.0000
     1.0000   1.0000   1.0000   1.0000   1.0000   1.0000   1.0000   1.0000
     1.0000   1.0000   1.0000   1.0390   1.0618   0.0000   0.0000   0.0000
     0.0000   0.0000   0.0000   0.0000   0.0000

          k =-0.2357-0.3536 0.3536 (  1900 PWs)   bands (ev):

   -58.9986 -48.9580 -34.5778 -30.4534 -30.4532 -30.4499 -22.9582 -22.9575
   -22.9547 -12.7374 -12.7130 -12.7115   7.6986   9.2391  10.7405  10.7455
    11.6945  11.7457  11.7702  12.5918  12.6720  14.0233  14.1418  14.1958
    15.7467  15.7646  16.7322  16.9449  17.0867

     occupation numbers 
     1.0000   1.0000   1.0000   1.0000   1.0000   1.0000   1.0000   1.0000
     1.0000   1.0000   1.0000   1.0000   1.0000   1.0000   1.0000   1.0000
     1.0000   1.0000   1.0000   1.0342   1.0608   0.0000   0.0000   0.0000
     0.0000   0.0000   0.0000   0.0000   0.0000

          k =-0.1768-0.2946 0.2946 (  1897 PWs)   bands (ev):

   -58.9986 -48.9580 -34.5773 -30.4533 -30.4531 -30.4503 -22.9579 -22.9572
   -22.9548 -12.7340 -12.7131 -12.7117   7.1693   9.8182  10.6745  10.8249
    11.6672  11.7037  11.8043  12.5117  12.6990  14.0378  14.2801  14.2921
    15.5196  15.5982  16.8725  17.1145  17.3233

     occupation numbers 
     1.0000   1.0000   1.0000   1.0000   1.0000   1.0000   1.0000   1.0000
     1.0000   1.0000   1.0000   1.0000   1.0000   1.0000   1.0000   1.0000
     1.0000   1.0000   1.0000   1.0154   1.0696   0.0000   0.0000   0.0000
     0.0000   0.0000   0.0000   0.0000   0.0000

          k =-0.1179-0.2357 0.2357 (  1902 PWs)   bands (ev):

   -58.9986 -48.9581 -34.5765 -30.4533 -30.4531 -30.4510 -22.9575 -22.9568
   -22.9551 -12.7286 -12.7132 -12.7122   6.6327  10.3316  10.6308  10.9752
    11.6025  11.7648  11.7872  12.5062  12.7314  14.1276  14.3570  14.4307
    15.2343  15.3959  16.9553  17.1170  18.0644

     occupation numbers 
     1.0000   1.0000   1.0000   1.0000   1.0000   1.0000   1.0000   1.0000
     1.0000   1.0000   1.0000   1.0000   1.0000   1.0000   1.0000   1.0000
     1.0000   1.0000   1.0000   1.0145   1.0783   0.0000   0.0000   0.0000
     0.0000   0.0000   0.0000   0.0000   0.0000

          k =-0.0589-0.1768 0.1768 (  1910 PWs)   bands (ev):

   -58.9986 -48.9582 -34.5757 -30.4531 -30.4530 -30.4518 -22.9569 -22.9565
   -22.9554 -12.7227 -12.7132 -12.7127   6.1898  10.6163  10.6390  11.1294
    11.4421  11.6304  12.1478  12.5986  12.8125  14.2409  14.4263  14.5475
    15.0019  15.2009  17.0573  17.1457  18.1816

     occupation numbers 
     1.0000   1.0000   1.0000   1.0000   1.0000   1.0000   1.0000   1.0000
     1.0000   1.0000   1.0000   1.0000   1.0000   1.0000   1.0000   1.0000
     1.0000   1.0000   1.0000   1.0363   1.0778   0.0000   0.0000   0.0000
     0.0000   0.0000   0.0000   0.0000   0.0000

          k =-0.0000-0.1179 0.1179 (  1893 PWs)   bands (ev):

   -58.9986 -48.9582 -34.5750 -30.4530 -30.4529 -30.4524 -22.9564 -22.9562
   -22.9557 -12.7178 -12.7133 -12.7131   5.8838  10.7108  10.7892  11.2122
    11.2520  11.4525  12.5441  12.7352  12.8885  14.4056  14.5229  14.6100
    14.8706  15.0198  17.1720  17.2113  18.1070

     occupation numbers 
     1.0000   1.0000   1.0000   1.0000   1.0000   1.0000   1.0000   1.0000
     1.0000   1.0000   1.0000   1.0000   1.0000   1.0000   1.0000   1.0000
     1.0000   1.0000   1.0218   1.0791   1.0246   0.0000   0.0000   0.0000
     0.0000   0.0000   0.0000   0.0000   0.0000

          k = 0.2357 0.0000-0.0000 (  1908 PWs)   bands (ev):

   -58.9986 -48.9582 -34.5756 -30.4531 -30.4531 -30.4518 -22.9567 -22.9567
   -22.9552 -12.7220 -12.7128 -12.7128   6.1071  10.2879  11.1134  11.3032
    11.3032  11.4765  12.0935  12.9175  12.9175  14.3926  14.4364  14.4364
    14.7950  15.0695  16.9352  17.1065  18.0239

     occupation numbers 
     1.0000   1.0000   1.0000   1.0000   1.0000   1.0000   1.0000   1.0000
     1.0000   1.0000   1.0000   1.0000   1.0000   1.0000   1.0000   1.0000
     1.0000   1.0000   1.0000   0.9863   0.9863   0.0000   0.0000   0.0000
     0.0000   0.0000   0.0000   0.0000   0.0000

          k = 0.2946 0.0589-0.0589 (  1908 PWs)   bands (ev):

   -58.9986 -48.9581 -34.5762 -30.4532 -30.4532 -30.4512 -22.9572 -22.9571
   -22.9548 -12.7264 -12.7128 -12.7125   6.3996  10.0910  11.1284  11.2442
    11.4479  11.5909  11.8313  12.7898  12.8919  14.2722  14.3403  14.4572
    14.8819  15.1445  16.7678  17.0282  18.0706

     occupation numbers 
     1.0000   1.0000   1.0000   1.0000   1.0000   1.0000   1.0000   1.0000
     1.0000   1.0000   1.0000   1.0000   1.0000   1.0000   1.0000   1.0000
     1.0000   1.0000   1.0000   1.0824   1.0207   0.0000   0.0000   0.0000
     0.0000   0.0000   0.0000   0.0000   0.0000

          k = 0.3536 0.1179-0.1179 (  1908 PWs)   bands (ev):

   -58.9986 -48.9581 -34.5770 -30.4533 -30.4533 -30.4505 -22.9578 -22.9575
   -22.9543 -12.7309 -12.7136 -12.7120   6.8173   9.9183  10.9953  11.1015
    11.5809  11.5966  11.8101  12.5499  12.8343  14.2092  14.2243  14.4974
    15.1263  15.2508  16.6463  16.9621  17.9260

     occupation numbers 
     1.0000   1.0000   1.0000   1.0000   1.0000   1.0000   1.0000   1.0000
     1.0000   1.0000   1.0000   1.0000   1.0000   1.0000   1.0000   1.0000
     1.0000   1.0000   1.0000   1.0231   1.0689   0.0000   0.0000   0.0000
     0.0000   0.0000   0.0000   0.0000   0.0000

          k = 0.4125 0.1768-0.1768 (  1903 PWs)   bands (ev):

   -58.9986 -48.9580 -34.5776 -30.4535 -30.4533 -30.4498 -22.9585 -22.9577
   -22.9538 -12.7343 -12.7148 -12.7116   7.3096   9.6816  10.6721  11.0602
    11.5811  11.6820  11.8857  12.4227  12.7606  14.1481  14.1622  14.4645
    15.3835  15.4546  16.6089  16.8363  17.3084

     occupation numbers 
     1.0000   1.0000   1.0000   1.0000   1.0000   1.0000   1.0000   1.0000
     1.0000   1.0000   1.0000   1.0000   1.0000   1.0000   1.0000   1.0000
     1.0000   1.0000   1.0000   1.0050   1.0828   0.0000   0.0000   0.0000
     0.0000   0.0000   0.0000   0.0000   0.0000

          k =-0.2357-0.4714 0.4714 (  1905 PWs)   bands (ev):

   -58.9986 -48.9580 -34.5781 -30.4536 -30.4533 -30.4494 -22.9591 -22.9579
   -22.9534 -12.7359 -12.7162 -12.7114   7.7632   9.3446  10.5389  10.9789
    11.6101  11.7449  11.8978  12.4476  12.6530  14.1568  14.1594  14.3144
    15.5401  15.6859  16.6029  16.7427  16.9594

     occupation numbers 
     1.0000   1.0000   1.0000   1.0000   1.0000   1.0000   1.0000   1.0000
     1.0000   1.0000   1.0000   1.0000   1.0000   1.0000   1.0000   1.0000
     1.0000   1.0000   1.0000   1.0070   1.0543   0.0000   0.0000   0.0000
     0.0000   0.0000   0.0000   0.0000   0.0000

          k =-0.1768-0.4125 0.4125 (  1892 PWs)   bands (ev):

   -58.9986 -48.9580 -34.5781 -30.4537 -30.4533 -30.4493 -22.9593 -22.9578
   -22.9534 -12.7354 -12.7170 -12.7113   7.8578   9.2798  10.5760  10.8583
    11.6045  11.8211  11.8635  12.5181  12.5396  14.0825  14.2428  14.3051
    15.6320  15.6896  16.4482  16.8625  16.9955

     occupation numbers 
     1.0000   1.0000   1.0000   1.0000   1.0000   1.0000   1.0000   1.0000
     1.0000   1.0000   1.0000   1.0000   1.0000   1.0000   1.0000   1.0000
     1.0000   1.0000   1.0000   1.0166   1.0208   0.0000   0.0000   0.0000
     0.0000   0.0000   0.0000   0.0000   0.0000

          k =-0.1179-0.3536 0.3536 (  1906 PWs)   bands (ev):

   -58.9986 -48.9580 -34.5778 -30.4537 -30.4532 -30.4496 -22.9591 -22.9575
   -22.9536 -12.7333 -12.7170 -12.7115   7.4776   9.6514  10.7275  10.7307
    11.5849  11.7858  11.8967  12.3941  12.6147  13.9945  14.3649  14.4256
    15.5149  15.5800  16.4984  17.1014  17.1021

     occupation numbers 
     1.0000   1.0000   1.0000   1.0000   1.0000   1.0000   1.0000   1.0000
     1.0000   1.0000   1.0000   1.0000   1.0000   1.0000   1.0000   1.0000
     1.0000   1.0000   1.0000   1.0033   1.0413   0.0000   0.0000   0.0000
     0.0000   0.0000   0.0000   0.0000   0.0000

          k =-0.0589-0.2946 0.2946 (  1898 PWs)   bands (ev):

   -58.9986 -48.9580 -34.5772 -30.4536 -30.4531 -30.4503 -22.9585 -22.9571
   -22.9542 -12.7300 -12.7160 -12.7118   6.9797  10.0563  10.6344  11.0164
    11.6042  11.6633  11.9015  12.3555  12.6686  14.0174  14.4584  14.4748
    15.2737  15.4577  16.7001  17.1018  17.7278

     occupation numbers 
     1.0000   1.0000   1.0000   1.0000   1.0000   1.0000   1.0000   1.0000
     1.0000   1.0000   1.0000   1.0000   1.0000   1.0000   1.0000   1.0000
     1.0000   1.0000   1.0000   1.0018   1.0596   0.0000   0.0000   0.0000
     0.0000   0.0000   0.0000   0.0000   0.0000

          k = 0.0000-0.2357 0.2357 (  1907 PWs)   bands (ev):

   -58.9986 -48.9581 -34.5764 -30.4534 -30.4530 -30.4510 -22.9577 -22.9567
   -22.9548 -12.7263 -12.7145 -12.7122   6.5291  10.3569  10.5984  11.2509
    11.4901  11.7906  11.8091  12.4463  12.7489  14.1067  14.4271  14.5359
    15.0823  15.3419  16.8922  17.1059  18.3532

     occupation numbers 
     1.0000   1.0000   1.0000   1.0000   1.0000   1.0000   1.0000   1.0000
     1.0000   1.0000   1.0000   1.0000   1.0000   1.0000   1.0000   1.0000
     1.0000   1.0000   1.0000   1.0069   1.0815   0.0000   0.0000   0.0000
     0.0000   0.0000   0.0000   0.0000   0.0000

          k = 0.3536 0.0000 0.0000 (  1924 PWs)   bands (ev):

   -58.9986 -48.9581 -34.5767 -30.4533 -30.4533 -30.4507 -22.9575 -22.9575
   -22.9544 -12.7302 -12.7122 -12.7122   6.6221   9.8600  11.3494  11.3679
    11.4259  11.4259  11.7429  12.9150  12.9150  14.2917  14.3366  14.3366
    14.8031  15.0844  16.5271  16.8983  18.0231

     occupation numbers 
     1.0000   1.0000   1.0000   1.0000   1.0000   1.0000   1.0000   1.0000
     1.0000   1.0000   1.0000   1.0000   1.0000   1.0000   1.0000   1.0000
     1.0000   1.0000   1.0000   0.9900   0.9900   0.0000   0.0000   0.0000
     0.0000   0.0000   0.0000   0.0000   0.0000

          k = 0.4125 0.0589-0.0589 (  1903 PWs)   bands (ev):

   -58.9986 -48.9580 -34.5773 -30.4534 -30.4534 -30.4501 -22.9580 -22.9578
   -22.9538 -12.7341 -12.7126 -12.7119   6.9625   9.7011  11.0712  11.3641
    11.5100  11.5784  11.7511  12.7673  12.8779  14.2665  14.2938  14.4082
    14.9276  15.0598  16.3321  16.7993  17.9254

     occupation numbers 
     1.0000   1.0000   1.0000   1.0000   1.0000   1.0000   1.0000   1.0000
     1.0000   1.0000   1.0000   1.0000   1.0000   1.0000   1.0000   1.0000
     1.0000   1.0000   1.0000   1.0832   1.0360   0.0000   0.0000   0.0000
     0.0000   0.0000   0.0000   0.0000   0.0000

          k = 0.4714 0.1179-0.1179 (  1906 PWs)   bands (ev):

   -58.9986 -48.9580 -34.5779 -30.4536 -30.4535 -30.4494 -22.9588 -22.9581
   -22.9531 -12.7364 -12.7145 -12.7115   7.3683   9.6061  10.7267  11.3222
    11.5388  11.6976  11.8290  12.5291  12.7815  14.2515  14.2573  14.5022
    15.0631  15.2435  16.2253  16.6936  17.4395

     occupation numbers 
     1.0000   1.0000   1.0000   1.0000   1.0000   1.0000   1.0000   1.0000
     1.0000   1.0000   1.0000   1.0000   1.0000   1.0000   1.0000   1.0000
     1.0000   1.0000   1.0000   1.0187   1.0831   0.0000   0.0000   0.0000
     0.0000   0.0000   0.0000   0.0000   0.0000

          k =-0.1768-0.5303 0.5303 (  1891 PWs)   bands (ev):

   -58.9986 -48.9580 -34.5783 -30.4538 -30.4535 -30.4490 -22.9595 -22.9582
   -22.9526 -12.7361 -12.7176 -12.7113   7.7474   9.5346  10.4431  11.2189
    11.5128  11.7906  11.9600  12.3738  12.6257  14.2644  14.2917  14.4293
    15.1572  15.5307  16.3500  16.5310  17.0314

     occupation numbers 
     1.0000   1.0000   1.0000   1.0000   1.0000   1.0000   1.0000   1.0000
     1.0000   1.0000   1.0000   1.0000   1.0000   1.0000   1.0000   1.0000
     1.0000   1.0000   1.0000   1.0024   1.0450   0.0000   0.0000   0.0000
     0.0000   0.0000   0.0000   0.0000   0.0000

          k =-0.1179-0.4714 0.4714 (  1886 PWs)   bands (ev):

   -58.9986 -48.9579 -34.5785 -30.4539 -30.4534 -30.4488 -22.9599 -22.9581
   -22.9524 -12.7337 -12.7209 -12.7112   7.9284   9.5095  10.3456  11.0569
    11.4715  11.8912  12.0377  12.3554  12.4481  14.1862  14.3770  14.4271
    15.2955  15.5523  16.3288  16.8150  16.8583

     occupation numbers 
     1.0000   1.0000   1.0000   1.0000   1.0000   1.0000   1.0000   1.0000
     1.0000   1.0000   1.0000   1.0000   1.0000   1.0000   1.0000   1.0000
     1.0000   1.0000   1.0000   1.0018   1.0071   0.0000   0.0000   0.0000
     0.0000   0.0000   0.0000   0.0000   0.0000

          k =-0.0589-0.4125 0.4125 (  1896 PWs)   bands (ev):

   -58.9986 -48.9580 -34.5783 -30.4539 -30.4533 -30.4490 -22.9599 -22.9579
   -22.9526 -12.7307 -12.7226 -12.7112   7.7664   9.6435  10.4517  10.8765
    11.4637  11.9724  11.9906  12.2952  12.4569  14.0413  14.4601  14.5588
    15.4098  15.4900  16.1694  16.9591  17.0983

     occupation numbers 
     1.0000   1.0000   1.0000   1.0000   1.0000   1.0000   1.0000   1.0000
     1.0000   1.0000   1.0000   1.0000   1.0000   1.0000   1.0000   1.0000
     1.0000   1.0000   1.0000   1.0007   1.0079   0.0000   0.0000   0.0000
     0.0000   0.0000   0.0000   0.0000   0.0000

          k = 0.0000-0.3536 0.3536 (  1915 PWs)   bands (ev):

   -58.9986 -48.9580 -34.5778 -30.4538 -30.4532 -30.4495 -22.9594 -22.9575
   -22.9532 -12.7302 -12.7200 -12.7115   7.3907   9.8408  10.7237  10.7379
    11.5060  11.8274  12.0108  12.2497  12.5641  13.9903  14.4946  14.5595
    15.3765  15.4638  16.3595  17.1106  17.2674

     occupation numbers 
     1.0000   1.0000   1.0000   1.0000   1.0000   1.0000   1.0000   1.0000
     1.0000   1.0000   1.0000   1.0000   1.0000   1.0000   1.0000   1.0000
     1.0000   1.0000   1.0000   1.0003   1.0266   0.0000   0.0000   0.0000
     0.0000   0.0000   0.0000   0.0000   0.0000

          k = 0.4714 0.0000-0.0000 (  1900 PWs)   bands (ev):

   -58.9986 -48.9580 -34.5778 -30.4535 -30.4535 -30.4496 -22.9582 -22.9582
   -22.9534 -12.7382 -12.7116 -12.7116   7.2094   9.5587  10.9282  11.5482
    11.5482  11.6222  11.6774  12.8820  12.8820  14.2710  14.3789  14.3789
    14.8286  14.9205  16.0638  16.6753  17.8897

     occupation numbers 
     1.0000   1.0000   1.0000   1.0000   1.0000   1.0000   1.0000   1.0000
     1.0000   1.0000   1.0000   1.0000   1.0000   1.0000   1.0000   1.0000
     1.0000   1.0000   1.0000   1.0317   1.0317   0.0000   0.0000   0.0000
     0.0000   0.0000   0.0000   0.0000   0.0000

          k = 0.5303 0.0589-0.0589 (  1911 PWs)   bands (ev):

   -58.9986 -48.9580 -34.5783 -30.4536 -30.4536 -30.4491 -22.9587 -22.9585
   -22.9529 -12.7406 -12.7124 -12.7114   7.5035   9.5254  10.7052  11.5302
    11.5436  11.6879  11.7600  12.7514  12.8129  14.3189  14.4020  14.4485
    14.8152  15.0087  15.8820  16.5999  17.4955

     occupation numbers 
     1.0000   1.0000   1.0000   1.0000   1.0000   1.0000   1.0000   1.0000
     1.0000   1.0000   1.0000   1.0000   1.0000   1.0000   1.0000   1.0000
     1.0000   1.0000   1.0000   1.0818   1.0776   0.0000   0.0000   0.0000
     0.0000   0.0000   0.0000   0.0000   0.0000

          k =-0.1179-0.5893 0.5893 (  1886 PWs)   bands (ev):

   -58.9986 -48.9579 -34.5786 -30.4538 -30.4536 -30.4487 -22.9594 -22.9586
   -22.9523 -12.7401 -12.7152 -12.7112   7.7707   9.5995  10.4577  11.4100
    11.4565  11.8407  11.8717  12.5413  12.6341  14.3704  14.4466  14.4496
    14.8088  15.3416  15.8887  16.5215  17.0957

     occupation numbers 
     1.0000   1.0000   1.0000   1.0000   1.0000   1.0000   1.0000   1.0000
     1.0000   1.0000   1.0000   1.0000   1.0000   1.0000   1.0000   1.0000
     1.0000   1.0000   1.0000   1.0212   1.0478   0.0000   0.0000   0.0000
     0.0000   0.0000   0.0000   0.0000   0.0000

          k =-0.0589-0.5303 0.5303 (  1890 PWs)   bands (ev):

   -58.9986 -48.9579 -34.5788 -30.4540 -30.4535 -30.4485 -22.9600 -22.9585
   -22.9519 -12.7366 -12.7196 -12.7111   7.9345   9.7331  10.2272  11.2904
    11.3341  11.9769  12.0438  12.3481  12.4159  14.2859  14.5126  14.5196
    14.8867  15.4086  16.3936  16.4123  16.8889

     occupation numbers 
     1.0000   1.0000   1.0000   1.0000   1.0000   1.0000   1.0000   1.0000
[...]
    15.4624  15.5081  15.8727  16.2188  17.0027

     occupation numbers 
     1.0000   1.0000   1.0000   1.0000   1.0000   1.0000   1.0000   1.0000
     1.0000   1.0000   1.0000   1.0000   1.0000   1.0000   1.0000   1.0000
     1.0000   1.0006   1.0047   1.0712   0.8986   0.0000   0.0000   0.0000
     0.0000   0.0000   0.0000   0.0000   0.0000

          k =-0.1179-0.4714 0.5893 (  1891 PWs)   bands (ev):

   -56.1302 -51.0571 -34.7152 -27.6294 -27.6287 -27.6248 -25.0420 -25.0410
   -25.0347 -12.8994 -12.8837 -12.8751   7.8408   9.6466  10.3032  11.4200
    11.7101  12.3288  12.6442  12.7000  12.9295  14.1563  14.2398  14.4358
    15.4325  15.6538  16.1123  16.2062  16.7717

     occupation numbers 
     1.0000   1.0000   1.0000   1.0000   1.0000   1.0000   1.0000   1.0000
     1.0000   1.0000   1.0000   1.0000   1.0000   1.0000   1.0000   1.0000
     1.0000   1.0012   1.0512   1.0699   0.9675   0.0000   0.0000   0.0000
     0.0000   0.0000   0.0000   0.0000   0.0000

          k =-0.0589-0.4125 0.5303 (  1891 PWs)   bands (ev):

   -56.1302 -51.0571 -34.7152 -27.6295 -27.6285 -27.6247 -25.0422 -25.0410
   -25.0346 -12.8953 -12.8878 -12.8750   7.9034   9.6959  10.2005  11.2622
    11.6717  12.3595  12.6642  12.8169  12.9343  14.0231  14.2329  14.4035
    15.4502  15.7362  16.0316  16.5612  16.8246

     occupation numbers 
     1.0000   1.0000   1.0000   1.0000   1.0000   1.0000   1.0000   1.0000
     1.0000   1.0000   1.0000   1.0000   1.0000   1.0000   1.0000   1.0000
     1.0000   1.0020   1.0581   1.0764   0.9594   0.0000   0.0000   0.0000
     0.0000   0.0000   0.0000   0.0000   0.0000

          k =-0.0000-0.3536 0.4714 (  1889 PWs)   bands (ev):

   -56.1302 -51.0571 -34.7149 -27.6294 -27.6284 -27.6249 -25.0421 -25.0408
   -25.0351 -12.8938 -12.8875 -12.8751   7.7204   9.6967  10.3810  11.0922
    11.7396  12.3749  12.5731  12.7545  13.0944  13.8687  14.2372  14.4572
    15.5453  15.7823  16.0727  16.6064  16.8584

     occupation numbers 
     1.0000   1.0000   1.0000   1.0000   1.0000   1.0000   1.0000   1.0000
     1.0000   1.0000   1.0000   1.0000   1.0000   1.0000   1.0000   1.0000
     1.0000   1.0025   1.0290   1.0822   0.5723   0.0000   0.0000   0.0000
     0.0000   0.0000   0.0000   0.0000   0.0000

          k =-0.1179-0.5893 0.7071 (  1892 PWs)   bands (ev):

   -56.1302 -51.0571 -34.7152 -27.6292 -27.6289 -27.6250 -25.0413 -25.0411
   -25.0349 -12.9056 -12.8772 -12.8751   7.6638   9.6055  10.5799  11.5994
    12.0060  12.2112  12.4030  12.8039  12.8580  14.3018  14.3669  14.6664
    15.2287  15.3485  15.5809  16.1214  16.9907

     occupation numbers 
     1.0000   1.0000   1.0000   1.0000   1.0000   1.0000   1.0000   1.0000
     1.0000   1.0000   1.0000   1.0000   1.0000   1.0000   1.0000   1.0000
     1.0000   1.0001   1.0038   1.0801   1.0537   0.0000   0.0000   0.0000
     0.0000   0.0000   0.0000   0.0000   0.0000

          k =-0.0589-0.5303 0.6482 (  1890 PWs)   bands (ev):

   -56.1302 -51.0571 -34.7153 -27.6294 -27.6289 -27.6248 -25.0417 -25.0412
   -25.0344 -12.9038 -12.8803 -12.8751   7.8315   9.7474  10.3638  11.4130
    11.8706  12.3124  12.5464  12.7897  12.8098  14.2776  14.3744  14.5334
    15.3189  15.4695  15.7478  16.0800  16.7122

     occupation numbers 
     1.0000   1.0000   1.0000   1.0000   1.0000   1.0000   1.0000   1.0000
     1.0000   1.0000   1.0000   1.0000   1.0000   1.0000   1.0000   1.0000
     1.0000   1.0009   1.0224   1.0825   1.0786   0.0000   0.0000   0.0000
     0.0000   0.0000   0.0000   0.0000   0.0000

          k =-0.0000-0.4714 0.5893 (  1893 PWs)   bands (ev):

   -56.1302 -51.0571 -34.7153 -27.6295 -27.6288 -27.6247 -25.0421 -25.0411
   -25.0343 -12.8995 -12.8848 -12.8750   7.9166   9.9208  10.0777  11.3686
    11.6701  12.3885  12.6863  12.7685  12.8011  14.1868  14.3197  14.4261
    15.3441  15.6037  16.0246  16.3102  16.6177

     occupation numbers 
     1.0000   1.0000   1.0000   1.0000   1.0000   1.0000   1.0000   1.0000
     1.0000   1.0000   1.0000   1.0000   1.0000   1.0000   1.0000   1.0000
     1.0000   1.0031   1.0656   1.0832   1.0807   0.0000   0.0000   0.0000
     0.0000   0.0000   0.0000   0.0000   0.0000

          k =-0.7071 0.1179-0.0000 (  1894 PWs)   bands (ev):

   -56.1302 -51.0571 -34.7154 -27.6293 -27.6290 -27.6249 -25.0413 -25.0413
   -25.0345 -12.9074 -12.8772 -12.8750   7.8035   9.7302  10.4732  11.3833
    12.0821  12.2046  12.6305  12.6882  12.8334  14.3895  14.4554  14.6259
    15.1333  15.2778  15.5413  16.0750  16.7514

     occupation numbers 
     1.0000   1.0000   1.0000   1.0000   1.0000   1.0000   1.0000   1.0000
     1.0000   1.0000   1.0000   1.0000   1.0000   1.0000   1.0000   1.0000
     1.0000   1.0001   1.0465   1.0662   1.0694   0.0000   0.0000   0.0000
     0.0000   0.0000   0.0000   0.0000   0.0000

          k =-0.2357-0.4714 0.7071 (  1902 PWs)   bands (ev):

   -56.1302 -51.0572 -34.7147 -27.6292 -27.6285 -27.6252 -25.0415 -25.0407
   -25.0355 -12.8978 -12.8817 -12.8754   7.4473   9.6840  10.6503  11.2443
    11.8335  12.3515  12.5027  12.5749  13.0505  14.0086  14.2593  14.5500
    15.5272  15.6548  16.1406  16.4013  16.9804

     occupation numbers 
     1.0000   1.0000   1.0000   1.0000   1.0000   1.0000   1.0000   1.0000
     1.0000   1.0000   1.0000   1.0000   1.0000   1.0000   1.0000   1.0000
     1.0000   1.0017   1.0139   1.0294   0.6932   0.0000   0.0000   0.0000
     0.0000   0.0000   0.0000   0.0000   0.0000

          k =-0.1768-0.4125 0.6482 (  1889 PWs)   bands (ev):

   -56.1302 -51.0571 -34.7150 -27.6294 -27.6285 -27.6249 -25.0420 -25.0410
   -25.0349 -12.8967 -12.8854 -12.8752   7.7729   9.6464  10.3693  11.2481
    11.7541  12.3767  12.6051  12.6633  13.0241  14.0311  14.2353  14.4440
    15.4862  15.7363  16.1638  16.3507  16.6879

     occupation numbers 
     1.0000   1.0000   1.0000   1.0000   1.0000   1.0000   1.0000   1.0000
     1.0000   1.0000   1.0000   1.0000   1.0000   1.0000   1.0000   1.0000
     1.0000   1.0026   1.0383   1.0578   0.7630   0.0000   0.0000   0.0000
     0.0000   0.0000   0.0000   0.0000   0.0000

          k =-0.1179-0.3536 0.5893 (  1892 PWs)   bands (ev):

   -56.1302 -51.0571 -34.7152 -27.6295 -27.6286 -27.6247 -25.0421 -25.0411
   -25.0346 -12.8955 -12.8875 -12.8751   7.9109   9.6316  10.2553  11.2616
    11.7158  12.3582  12.6275  12.7977  12.9345  14.0930  14.2229  14.3556
    15.4550  15.7864  16.2035  16.2968  16.7005

     occupation numbers 
     1.0000   1.0000   1.0000   1.0000   1.0000   1.0000   1.0000   1.0000
     1.0000   1.0000   1.0000   1.0000   1.0000   1.0000   1.0000   1.0000
     1.0000   1.0019   1.0456   1.0813   0.9590   0.0000   0.0000   0.0000
     0.0000   0.0000   0.0000   0.0000   0.0000

          k =-0.1179-0.4714 0.7071 (  1887 PWs)   bands (ev):

   -56.1302 -51.0571 -34.7152 -27.6294 -27.6287 -27.6248 -25.0418 -25.0413
   -25.0345 -12.9003 -12.8829 -12.8752   7.8011   9.7092  10.3712  11.3690
    11.8050  12.3395  12.5256  12.7388  12.9182  14.1746  14.2964  14.5011
    15.3886  15.6504  15.9292  16.1658  16.6103

     occupation numbers 
     1.0000   1.0000   1.0000   1.0000   1.0000   1.0000   1.0000   1.0000
     1.0000   1.0000   1.0000   1.0000   1.0000   1.0000   1.0000   1.0000
     1.0000   1.0014   1.0180   1.0798   0.9853   0.0000   0.0000   0.0000
     0.0000   0.0000   0.0000   0.0000   0.0000

          k =-0.0589-0.4125 0.6482 (  1891 PWs)   bands (ev):

   -56.1302 -51.0571 -34.7153 -27.6296 -27.6287 -27.6246 -25.0420 -25.0414
   -25.0342 -12.8968 -12.8872 -12.8752   7.9254   9.8781  10.1561  11.2482
    11.7572  12.3553  12.6472  12.7491  12.8589  14.1878  14.3289  14.3780
    15.3704  15.7487  16.0999  16.2140  16.4234

     occupation numbers 
     1.0000   1.0000   1.0000   1.0000   1.0000   1.0000   1.0000   1.0000
     1.0000   1.0000   1.0000   1.0000   1.0000   1.0000   1.0000   1.0000
     1.0000   1.0018   1.0522   1.0815   1.0529   0.0000   0.0000   0.0000
     0.0000   0.0000   0.0000   0.0000   0.0000

          k = 0.0000-0.3536 0.5893 (  1893 PWs)   bands (ev):

   -56.1302 -51.0571 -34.7153 -27.6296 -27.6286 -27.6246 -25.0421 -25.0413
   -25.0343 -12.8940 -12.8897 -12.8752   7.9170   9.8513  10.1397  11.2408
    11.7054  12.3903  12.6573  12.7325  12.9077  14.1154  14.2833  14.3970
    15.4007  15.7817  16.0844  16.3189  16.5577

     occupation numbers 
     1.0000   1.0000   1.0000   1.0000   1.0000   1.0000   1.0000   1.0000
     1.0000   1.0000   1.0000   1.0000   1.0000   1.0000   1.0000   1.0000
     1.0000   1.0031   1.0558   1.0785   1.0004   0.0000   0.0000   0.0000
     0.0000   0.0000   0.0000   0.0000   0.0000

          k =-0.7071 0.2357 0.0000 (  1892 PWs)   bands (ev):

   -56.1302 -51.0571 -34.7154 -27.6295 -27.6288 -27.6246 -25.0417 -25.0416
   -25.0341 -12.9011 -12.8834 -12.8752   7.9003   9.8602  10.2732  11.2437
    11.8860  12.2771  12.6345  12.7457  12.8301  14.2626  14.3757  14.4411
    15.3263  15.7003  15.8230  16.0770  16.4528

     occupation numbers 
     1.0000   1.0000   1.0000   1.0000   1.0000   1.0000   1.0000   1.0000
     1.0000   1.0000   1.0000   1.0000   1.0000   1.0000   1.0000   1.0000
     1.0000   1.0005   1.0479   1.0810   1.0710   0.0000   0.0000   0.0000
     0.0000   0.0000   0.0000   0.0000   0.0000

          k =-0.7071 0.3536 0.0000 (  1888 PWs)   bands (ev):

   -56.1302 -51.0571 -34.7154 -27.6297 -27.6287 -27.6245 -25.0419 -25.0417
   -25.0340 -12.8944 -12.8901 -12.8752   7.9531  10.0403  10.0628  11.1386
    11.8198  12.3391  12.6467  12.7099  12.8768  14.2333  14.3023  14.3891
    15.3622  15.7899  16.1639  16.1750  16.3576

     occupation numbers 
     1.0000   1.0000   1.0000   1.0000   1.0000   1.0000   1.0000   1.0000
     1.0000   1.0000   1.0000   1.0000   1.0000   1.0000   1.0000   1.0000
     1.0000   1.0014   1.0521   1.0729   1.0371   0.0000   0.0000   0.0000
     0.0000   0.0000   0.0000   0.0000   0.0000

     the Fermi energy is    13.1587 ev

!    total energy              =    -458.03748562 Ry
     estimated scf accuracy    <          2.3E-10 Ry
     smearing contrib. (-TS)   =       0.00668682 Ry
     internal energy E=F+TS    =    -458.04417244 Ry

     The total energy is F=E-TS. E is the sum of the following terms:
     one-electron contribution =    -179.60332691 Ry
     hartree contribution      =     106.32260503 Ry
     xc contribution           =     -62.14361373 Ry
     ewald contribution        =    -288.91343943 Ry
     one-center paw contrib.   =     -33.70639739 Ry
      -> PAW hartree energy AE =       0.00000000 Ry
      -> PAW hartree energy PS =       0.00000000 Ry
      -> PAW xc energy AE      =       0.00000000 Ry
      -> PAW xc energy PS      =       0.00000000 Ry
      -> total E_H with PAW    =     106.32260503 Ry
      -> total E_XC with PAW   =     -62.14361373 Ry

     total magnetization       =     0.14 Bohr mag/cell
     absolute magnetization    =     6.21 Bohr mag/cell

     convergence has been achieved in  28 iterations

     negative rho (up, down):  3.174E-02 3.265E-02

     Forces acting on atoms (cartesian axes, Ry/au):

     atom    1 type  4   force =    -0.00000000    0.00000000    0.00000000
     atom    2 type  1   force =    -0.00000000    0.00000000    0.00000000
     atom    3 type  3   force =     0.00000000    0.00000000   -0.00000000
     atom    4 type  2   force =    -0.00000000   -0.00000000    0.00000000
     The non-local contrib.  to forces
     atom    1 type  4   force =     0.00000000   -0.00000000    0.00000000
     atom    2 type  1   force =    -0.00000000    0.00000000    0.00000000
     atom    3 type  3   force =    -0.00000000    0.00000000   -0.00000000
     atom    4 type  2   force =     0.00000000    0.00000000    0.00000000
     The ionic contribution  to forces
     atom    1 type  4   force =     0.00000000   -0.00000000    0.00000000
     atom    2 type  1   force =     0.00000000    0.00000000    0.00000000
     atom    3 type  3   force =     0.00000000    0.00000000    0.00000000
     atom    4 type  2   force =     0.00000000    0.00000000   -0.00000000
     The local contribution  to forces
     atom    1 type  4   force =    -0.00000000   -0.00000000   -0.00000000
     atom    2 type  1   force =    -0.00000000    0.00000000    0.00000000
     atom    3 type  3   force =    -0.00000000   -0.00000000   -0.00000000
     atom    4 type  2   force =     0.00000000    0.00000000   -0.00000000
     The core correction contribution to forces
     atom    1 type  4   force =    -0.00000000    0.00000000   -0.00000000
     atom    2 type  1   force =    -0.00000000   -0.00000000   -0.00000000
     atom    3 type  3   force =     0.00000000    0.00000000   -0.00000000
     atom    4 type  2   force =    -0.00000000   -0.00000000    0.00000000
     The Hubbard contrib.    to forces
     atom    1 type  4   force =     0.00000000    0.00000000    0.00000000
     atom    2 type  1   force =     0.00000000    0.00000000    0.00000000
     atom    3 type  3   force =     0.00000000    0.00000000    0.00000000
     atom    4 type  2   force =     0.00000000    0.00000000    0.00000000
     The SCF correction term to forces
     atom    1 type  4   force =     0.00000000   -0.00000000    0.00000000
     atom    2 type  1   force =     0.00000000    0.00000000   -0.00000000
     atom    3 type  3   force =    -0.00000000   -0.00000000   -0.00000000
     atom    4 type  2   force =     0.00000000   -0.00000000   -0.00000000

     Total force =     0.000000     Total SCF correction =     0.000000


     Computing stress (Cartesian axis) and pressure


     negative rho (up, down):  3.174E-02 3.265E-02
          total   stress  (Ry/bohr**3)                   (kbar)     P=      -48.16
  -0.00032739  -0.00000000  -0.00000000          -48.16       -0.00       -0.00
   0.00000000  -0.00032739   0.00000000            0.00      -48.16        0.00
  -0.00000000   0.00000000  -0.00032739           -0.00        0.00      -48.16

     kinetic stress (kbar)  23185.62      0.00      0.00
                                0.00  23185.62     -0.00
                                0.00     -0.00  23185.62

     local   stress (kbar)  -4371.75      0.00     -0.00
                                0.00  -4371.75     -0.00
                               -0.00     -0.00  -4371.75

     nonloc. stress (kbar)   7442.16     -0.00      0.00
                               -0.00   7442.16      0.00
                                0.00      0.00   7442.16

     hartree stress (kbar)  11733.33      0.00      0.00
                                0.00  11733.33     -0.00
                                0.00     -0.00  11733.33

     exc-cor stress (kbar)  -2046.21     -0.00      0.00
                               -0.00  -2046.21      0.00
                                0.00      0.00  -2046.21

     corecor stress (kbar)  -4108.00     -0.00      0.00
                               -0.00  -4108.00     -0.00
                                0.00     -0.00  -4108.00

     ewald   stress (kbar) -31883.31      0.00      0.00
                                0.00 -31883.31      0.00
                                0.00      0.00 -31883.31

     hubbard stress (kbar)      0.00      0.00      0.00
                                0.00      0.00      0.00
                                0.00      0.00      0.00

     DFT-D   stress (kbar)      0.00      0.00      0.00
                                0.00      0.00      0.00
                                0.00      0.00      0.00

     XDM     stress (kbar)      0.00      0.00      0.00
                                0.00      0.00      0.00
                                0.00      0.00      0.00

     dft-nl  stress (kbar)      0.00      0.00      0.00
                                0.00      0.00      0.00
                                0.00      0.00      0.00

     TS-vdW  stress (kbar)      0.00      0.00      0.00
                                0.00      0.00      0.00
                                0.00      0.00      0.00

     MDB     stress (kbar)      0.00      0.00      0.00
                                0.00      0.00      0.00
                                0.00      0.00      0.00

     3D-RISM stress (kbar)      0.00      0.00      0.00
                                0.00      0.00      0.00
                                0.00      0.00      0.00


     Writing all to output data dir ./out/aiida.save/ :
     XML data file, charge density, pseudopotentials, collected wavefunctions

     init_run     :      0.94s CPU      1.19s WALL (       1 calls)
     electrons    :     18.21s CPU     19.39s WALL (       1 calls)
     forces       :      0.07s CPU      0.08s WALL (       1 calls)
     stress       :      0.36s CPU      0.36s WALL (       1 calls)

     Called by init_run:
     wfcinit      :      0.17s CPU      0.28s WALL (       1 calls)
     wfcinit:atom :      0.00s CPU      0.00s WALL (      21 calls)
     wfcinit:wfcr :      0.16s CPU      0.26s WALL (      21 calls)
     potinit      :      0.40s CPU      0.49s WALL (       1 calls)
     hinit0       :      0.33s CPU      0.37s WALL (       1 calls)

     Called by electrons:
     c_bands      :     12.84s CPU     13.85s WALL (      28 calls)
     sum_band     :      1.85s CPU      1.96s WALL (      28 calls)
     v_of_rho     :      0.49s CPU      0.51s WALL (      29 calls)
     v_h          :      0.01s CPU      0.01s WALL (      29 calls)
     v_xc         :      0.51s CPU      0.53s WALL (      31 calls)
     newd         :      0.24s CPU      0.24s WALL (      29 calls)
     PAW_pot      :      2.74s CPU      2.74s WALL (      29 calls)
     mix_rho      :      0.07s CPU      0.08s WALL (      28 calls)

     Called by c_bands:
     init_us_2    :      0.13s CPU      0.14s WALL (    1239 calls)
     init_us_2:cp :      0.13s CPU      0.14s WALL (    1239 calls)
     crmmdiagg    :      3.08s CPU      3.25s WALL (     462 calls)
     wfcrot       :      2.47s CPU      2.73s WALL (     483 calls)

     Called by sum_band:
     sum_band:wei :      0.07s CPU      0.07s WALL (      28 calls)
     sum_band:loo :      1.30s CPU      1.39s WALL (      28 calls)
     sum_band:buf :      0.01s CPU      0.01s WALL (     588 calls)
     sum_band:ini :      0.06s CPU      0.06s WALL (     588 calls)
     sum_band:cal :      0.12s CPU      0.13s WALL (     588 calls)
     sum_band:bec :      0.01s CPU      0.01s WALL (     588 calls)
     addusdens    :      0.35s CPU      0.36s WALL (      28 calls)
                                        0.00s GPU  (      28 calls)
     addusd:skk   :      0.00s CPU      0.00s WALL (     112 calls)
                                        0.00s GPU  (     112 calls)

     Called by *rmmdiagg:
     h_psi        :      8.41s CPU      9.03s WALL (    4254 calls)
     s_psi        :      0.39s CPU      0.41s WALL (    4254 calls)
     g_psi        :      0.04s CPU      0.06s WALL (   28675 calls)

     Called by h_psi:
     h_psi:calbec :      0.54s CPU      0.60s WALL (    4254 calls)
     vloc_psi     :      7.43s CPU      7.96s WALL (    4254 calls)
     add_vuspsi   :      0.40s CPU      0.42s WALL (    4254 calls)

     General routines
     calbec       :      0.69s CPU      0.75s WALL (    4947 calls)
     fft          :      0.38s CPU      0.44s WALL (     763 calls)
     ffts         :      0.28s CPU      0.28s WALL (     114 calls)
     fftw         :      7.22s CPU      7.71s WALL (  131186 calls)
     interpolate  :      0.29s CPU      0.30s WALL (      58 calls)

     Parallel routines

     PAW routines
     PAW_pot      :      2.74s CPU      2.74s WALL (      29 calls)
     PAW_symme    :      0.02s CPU      0.02s WALL (      56 calls)

     PWSCF        :     20.04s CPU     22.09s WALL


   This run was terminated on:   4:20:44  30Nov2023            

=------------------------------------------------------------------------------=
   JOB DONE.
=------------------------------------------------------------------------------=
