
     Program PWSCF v.7.2 starts on 23Oct2023 at 18:13:17 

     This program is part of the open-source Quantum ESPRESSO suite
     for quantum simulation of materials; please cite
         "P. Giannozzi et al., J. Phys.:Condens. Matter 21 395502 (2009);
         "P. Giannozzi et al., J. Phys.:Condens. Matter 29 465901 (2017);
         "P. Giannozzi et al., J. Chem. Phys. 152 154105 (2020);
          URL http://www.quantum-espresso.org", 
     in publications or presentations arising from this work. More details at
     http://www.quantum-espresso.org/quote

     Parallel version (MPI & OpenMP), running on      12 processor cores
     Number of MPI processes:                 1
     Threads/MPI process:                    12

     MPI processes distributed on     1 nodes
     60265 MiB available memory on the printing compute node when the environment starts
 
     Reading input from aiida.in

     Current dimensions of program PWSCF are:
     Max number of different atomic species (ntypx) = 10
     Max number of k-points (npk) =  40000
     Max angular momentum in pseudopotentials (lmaxx) =  4
     file In.pbesol-dn-rrkjus_psl.0.2.2.UPF: wavefunction(s)  5S renormalized
     Message from routine setup:
     using ibrav=0 with symmetry is DISCOURAGED, use correct ibrav instead
 
     Subspace diagonalization in iterative solution of the eigenvalue problem:
     a serial algorithm will be used

 
     G-vector sticks info
     --------------------
     sticks:   dense  smooth     PW     G-vecs:    dense   smooth      PW
     Sum        1915     955    295                55369    19603    3287
 
     Using Slab Decomposition
 


     bravais-lattice index     =            0
     lattice parameter (alat)  =       8.3381  a.u.
     unit-cell volume          =     409.9118 (a.u.)^3
     number of atoms/cell      =            4
     number of atomic types    =            4
     number of electrons       =        52.00
     number of Kohn-Sham states=           31
     kinetic-energy cutoff     =      50.0000  Ry
     charge density cutoff     =     400.0000  Ry
     scf convergence threshold =      8.0E-10
     mixing beta               =       0.1000
     number of iterations used =            8  plain     mixing
     Exchange-correlation= SLA  PW   PSX  PSC
                           (   1   4  10   8   0   0   0)

     GPU acceleration is ACTIVE.


     GPU used by master process:

        Device Number: 0
        Device name: Tesla P100-PCIE-16GB
        Compute capability : 60
        Ratio of single to double precision performance  : 2
        Memory Clock Rate (KHz): 715000
        Memory Bus Width (bits): 4096
        Peak Memory Bandwidth (GB/s): 732.16

     celldm(1)=   8.338126  celldm(2)=   0.000000  celldm(3)=   0.000000
     celldm(4)=   0.000000  celldm(5)=   0.000000  celldm(6)=   0.000000

     crystal axes: (cart. coord. in units of alat)
               a(1) = (   0.000000   0.707107   0.707107 )  
               a(2) = (   0.707107   0.000000   0.707107 )  
               a(3) = (   0.707107   0.707107   0.000000 )  

     reciprocal axes: (cart. coord. in units 2 pi/alat)
               b(1) = ( -0.707107  0.707107  0.707107 )  
               b(2) = (  0.707107 -0.707107  0.707107 )  
               b(3) = (  0.707107  0.707107 -0.707107 )  


     PseudoPot. # 1 for Cr read from file:
     ./pseudo/cr_pbesol_v1.5.uspp.F.UPF
     MD5 check sum: a621641e0be27168676a837af8893d0f
     Pseudo is Ultrasoft + core correction, Zval = 14.0
     Generated by new atomic code, or converted to UPF format
     Using radial grid of  857 points,  6 beta functions with: 
                l(1) =   0
                l(2) =   0
                l(3) =   1
                l(4) =   1
                l(5) =   2
                l(6) =   2
     Q(r) pseudized with  8 coefficients,  rinner =    0.950   0.950   0.950
                                                       0.950   0.950

     PseudoPot. # 2 for In read from file:
     ./pseudo/In.pbesol-dn-rrkjus_psl.0.2.2.UPF
     MD5 check sum: 2a3399a31491503da6b8c7d8e01e9843
     Pseudo is Ultrasoft + core correction, Zval = 13.0
     Generated using "atomic" code by A. Dal Corso  v.6.0 svn rev. 13079
     Using radial grid of 1241 points,  6 beta functions with: 
                l(1) =   0
                l(2) =   0
                l(3) =   1
                l(4) =   1
                l(5) =   2
                l(6) =   2
     Q(r) pseudized with 0 coefficients 


     PseudoPot. # 3 for Ti read from file:
     ./pseudo/ti_pbesol_v1.4.uspp.F.UPF
     MD5 check sum: 193cf2c0c3c6a4da613d69453fa7e3e9
     Pseudo is Ultrasoft + core correction, Zval = 12.0
     Generated by new atomic code, or converted to UPF format
     Using radial grid of  851 points,  6 beta functions with: 
                l(1) =   0
                l(2) =   0
                l(3) =   1
                l(4) =   1
                l(5) =   2
                l(6) =   2
     Q(r) pseudized with  6 coefficients,  rinner =    1.000   1.000   1.000
                                                       1.000   1.000

     PseudoPot. # 4 for V  read from file:
     ./pseudo/v_pbesol_v1.4.uspp.F.UPF
     MD5 check sum: 72fa7d0034c41d8adc50bbc8c632b9f9
     Pseudo is Ultrasoft + core correction, Zval = 13.0
     Generated by new atomic code, or converted to UPF format
     Using radial grid of  853 points,  6 beta functions with: 
                l(1) =   0
                l(2) =   0
                l(3) =   1
                l(4) =   1
                l(5) =   2
                l(6) =   2
     Q(r) pseudized with  8 coefficients,  rinner =    1.100   1.100   1.100
                                                       1.100   1.100

     atomic species   valence    mass     pseudopotential
        Cr            14.00    51.99610     Cr( 1.00)
        In            13.00   114.81800     In( 1.00)
        Ti            12.00    47.86700     Ti( 1.00)
        V             13.00    50.94150     V ( 1.00)

     Starting magnetic structure 
     atomic species   magnetization
        Cr           0.357
        In           0.100
        Ti           0.417
        V            0.385

     24 Sym. Ops. (no inversion) found


                                    s                        frac. trans.

      isym =  1     identity                                     

 cryst.   s( 1) = (     1          0          0      )
                  (     0          1          0      )
                  (     0          0          1      )

 cart.    s( 1) = (  1.0000000 -0.0000000  0.0000000 )
                  ( -0.0000000  1.0000000  0.0000000 )
                  ( -0.0000000  0.0000000  1.0000000 )


      isym =  2     180 deg rotation - cart. axis [0,0,1]        

 cryst.   s( 2) = (     0          1         -1      )
                  (     1          0         -1      )
                  (     0          0         -1      )

 cart.    s( 2) = ( -1.0000000  0.0000000  0.0000000 )
                  (  0.0000000 -1.0000000  0.0000000 )
                  (  0.0000000 -0.0000000  1.0000000 )


      isym =  3     180 deg rotation - cart. axis [0,1,0]        

 cryst.   s( 3) = (     0         -1          1      )
                  (     0         -1          0      )
                  (     1         -1          0      )

 cart.    s( 3) = ( -1.0000000 -0.0000000 -0.0000000 )
                  (  0.0000000  1.0000000 -0.0000000 )
                  (  0.0000000  0.0000000 -1.0000000 )


      isym =  4     180 deg rotation - cart. axis [1,0,0]        

 cryst.   s( 4) = (    -1          0          0      )
                  (    -1          0          1      )
                  (    -1          1          0      )

 cart.    s( 4) = (  1.0000000  0.0000000 -0.0000000 )
                  ( -0.0000000 -1.0000000 -0.0000000 )
                  ( -0.0000000 -0.0000000 -1.0000000 )


      isym =  5     120 deg rotation - cart. axis [-1,-1,-1]     

 cryst.   s( 5) = (     0          0          1      )
                  (     1          0          0      )
                  (     0          1          0      )

 cart.    s( 5) = (  0.0000000  1.0000000 -0.0000000 )
                  (  0.0000000 -0.0000000  1.0000000 )
                  (  1.0000000 -0.0000000  0.0000000 )


      isym =  6     120 deg rotation - cart. axis [-1,1,1]       

 cryst.   s( 6) = (     1         -1          0      )
                  (     0         -1          1      )
                  (     0         -1          0      )

 cart.    s( 6) = ( -0.0000000 -1.0000000 -0.0000000 )
                  ( -0.0000000  0.0000000  1.0000000 )
                  ( -1.0000000  0.0000000  0.0000000 )


      isym =  7     120 deg rotation - cart. axis [1,1,-1]       

 cryst.   s( 7) = (    -1          1          0      )
                  (    -1          0          0      )
                  (    -1          0          1      )

 cart.    s( 7) = ( -0.0000000  1.0000000  0.0000000 )
                  ( -0.0000000 -0.0000000 -1.0000000 )
                  ( -1.0000000 -0.0000000 -0.0000000 )


      isym =  8     120 deg rotation - cart. axis [1,-1,1]       

 cryst.   s( 8) = (     0          0         -1      )
                  (     0          1         -1      )
                  (     1          0         -1      )

 cart.    s( 8) = (  0.0000000 -1.0000000  0.0000000 )
                  (  0.0000000  0.0000000 -1.0000000 )
                  (  1.0000000  0.0000000 -0.0000000 )


      isym =  9     120 deg rotation - cart. axis [1,1,1]        

 cryst.   s( 9) = (     0          1          0      )
                  (     0          0          1      )
                  (     1          0          0      )

 cart.    s( 9) = ( -0.0000000  0.0000000  1.0000000 )
                  (  1.0000000  0.0000000 -0.0000000 )
                  (  0.0000000  1.0000000 -0.0000000 )


      isym = 10     120 deg rotation - cart. axis [-1,1,-1]      

 cryst.   s(10) = (    -1          0          1      )
                  (    -1          1          0      )
                  (    -1          0          0      )

 cart.    s(10) = (  0.0000000 -0.0000000  1.0000000 )
                  ( -1.0000000 -0.0000000 -0.0000000 )
                  ( -0.0000000 -1.0000000 -0.0000000 )


      isym = 11     120 deg rotation - cart. axis [1,-1,-1]      

 cryst.   s(11) = (     1          0         -1      )
                  (     0          0         -1      )
                  (     0          1         -1      )

 cart.    s(11) = (  0.0000000  0.0000000 -1.0000000 )
                  ( -1.0000000  0.0000000  0.0000000 )
                  ( -0.0000000  1.0000000  0.0000000 )


      isym = 12     120 deg rotation - cart. axis [-1,-1,1]      

 cryst.   s(12) = (     0         -1          0      )
                  (     1         -1          0      )
                  (     0         -1          1      )

 cart.    s(12) = ( -0.0000000 -0.0000000 -1.0000000 )
                  (  1.0000000 -0.0000000  0.0000000 )
                  (  0.0000000 -1.0000000  0.0000000 )


      isym = 13     inv. 180 deg rotation - cart. axis [1,1,0]   

 cryst.   s(13) = (     1          0         -1      )
                  (     0          1         -1      )
                  (     0          0         -1      )

 cart.    s(13) = (  0.0000000 -1.0000000  0.0000000 )
                  ( -1.0000000  0.0000000  0.0000000 )
                  ( -0.0000000  0.0000000  1.0000000 )


      isym = 14     inv. 180 deg rotation - cart. axis [1,-1,0]  

 cryst.   s(14) = (     0          1          0      )
                  (     1          0          0      )
                  (     0          0          1      )

 cart.    s(14) = ( -0.0000000  1.0000000  0.0000000 )
                  (  1.0000000 -0.0000000  0.0000000 )
                  (  0.0000000 -0.0000000  1.0000000 )


      isym = 15     inv.  90 deg rotation - cart. axis [0,0,-1]  

 cryst.   s(15) = (     0         -1          0      )
                  (     0         -1          1      )
                  (     1         -1          0      )

 cart.    s(15) = ( -0.0000000 -1.0000000 -0.0000000 )
                  (  1.0000000  0.0000000 -0.0000000 )
                  (  0.0000000  0.0000000 -1.0000000 )


      isym = 16     inv.  90 deg rotation - cart. axis [0,0,1]   

 cryst.   s(16) = (    -1          0          1      )
                  (    -1          0          0      )
                  (    -1          1          0      )

 cart.    s(16) = (  0.0000000  1.0000000 -0.0000000 )
                  ( -1.0000000 -0.0000000 -0.0000000 )
                  ( -0.0000000 -0.0000000 -1.0000000 )


      isym = 17     inv. 180 deg rotation - cart. axis [1,0,1]   

 cryst.   s(17) = (     1         -1          0      )
                  (     0         -1          0      )
                  (     0         -1          1      )

 cart.    s(17) = ( -0.0000000 -0.0000000 -1.0000000 )
                  ( -0.0000000  1.0000000  0.0000000 )
                  ( -1.0000000  0.0000000  0.0000000 )


      isym = 18     inv. 180 deg rotation - cart. axis [-1,0,1]  

 cryst.   s(18) = (     0          0          1      )
                  (     0          1          0      )
                  (     1          0          0      )

 cart.    s(18) = (  0.0000000 -0.0000000  1.0000000 )
                  (  0.0000000  1.0000000 -0.0000000 )
                  (  1.0000000  0.0000000 -0.0000000 )


      isym = 19     inv.  90 deg rotation - cart. axis [0,1,0]   

 cryst.   s(19) = (     0          0         -1      )
                  (     1          0         -1      )
                  (     0          1         -1      )

 cart.    s(19) = (  0.0000000  0.0000000 -1.0000000 )
                  (  0.0000000 -1.0000000  0.0000000 )
                  (  1.0000000 -0.0000000  0.0000000 )


      isym = 20     inv.  90 deg rotation - cart. axis [0,-1,0]  

 cryst.   s(20) = (    -1          1          0      )
                  (    -1          0          1      )
                  (    -1          0          0      )

 cart.    s(20) = ( -0.0000000  0.0000000  1.0000000 )
                  ( -0.0000000 -1.0000000 -0.0000000 )
                  ( -1.0000000 -0.0000000 -0.0000000 )


      isym = 21     inv. 180 deg rotation - cart. axis [0,1,1]   

 cryst.   s(21) = (    -1          0          0      )
                  (    -1          1          0      )
                  (    -1          0          1      )

 cart.    s(21) = (  1.0000000 -0.0000000  0.0000000 )
                  ( -0.0000000 -0.0000000 -1.0000000 )
                  ( -0.0000000 -1.0000000 -0.0000000 )


      isym = 22     inv. 180 deg rotation - cart. axis [0,1,-1]  

 cryst.   s(22) = (     1          0          0      )
                  (     0          0          1      )
                  (     0          1          0      )

 cart.    s(22) = (  1.0000000  0.0000000 -0.0000000 )
                  ( -0.0000000  0.0000000  1.0000000 )
                  ( -0.0000000  1.0000000  0.0000000 )


      isym = 23     inv.  90 deg rotation - cart. axis [-1,0,0]  

 cryst.   s(23) = (     0          1         -1      )
                  (     0          0         -1      )
                  (     1          0         -1      )

 cart.    s(23) = ( -1.0000000  0.0000000  0.0000000 )
                  (  0.0000000  0.0000000 -1.0000000 )
                  (  0.0000000  1.0000000 -0.0000000 )


      isym = 24     inv.  90 deg rotation - cart. axis [1,0,0]   

 cryst.   s(24) = (     0         -1          1      )
                  (     1         -1          0      )
                  (     0         -1          0      )

 cart.    s(24) = ( -1.0000000 -0.0000000 -0.0000000 )
                  (  0.0000000 -0.0000000  1.0000000 )
                  (  0.0000000 -1.0000000  0.0000000 )


   Cartesian axes

     site n.     atom                  positions (alat units)
         1           Ti  tau(   1) = (   0.3535534   0.3535534   0.3535534  )
         2           V   tau(   2) = (   0.7071068   0.0000000   0.0000000  )
         3           Cr  tau(   3) = (   0.0000000   0.0000000   0.0000000  )
         4           In  tau(   4) = (   0.3535534   0.3535534   1.0606602  )

   Crystallographic axes

     site n.     atom                  positions (cryst. coord.)
         1           Ti  tau(   1) = (  0.2500000  0.2500000  0.2500000  )
         2           V   tau(   2) = ( -0.5000000  0.5000000  0.5000000  )
         3           Cr  tau(   3) = (  0.0000000  0.0000000  0.0000000  )
         4           In  tau(   4) = (  0.7500000  0.7500000 -0.2500000  )

     number of k points=    72  Marzari-Vanderbilt smearing, width (Ry)=  0.0100
                       cart. coord. in units 2pi/alat
        k(    1) = (   0.0000000   0.0000000   0.0000000), wk =   0.0005787
        k(    2) = (   0.0589256   0.0589256  -0.0589256), wk =   0.0046296
        k(    3) = (   0.1178511   0.1178511  -0.1178511), wk =   0.0046296
        k(    4) = (   0.1767767   0.1767767  -0.1767767), wk =   0.0046296
        k(    5) = (   0.2357023   0.2357023  -0.2357023), wk =   0.0046296
        k(    6) = (   0.2946278   0.2946278  -0.2946278), wk =   0.0046296
        k(    7) = (  -0.3535534  -0.3535534   0.3535534), wk =   0.0023148
        k(    8) = (   0.1178511   0.0000000  -0.0000000), wk =   0.0034722
        k(    9) = (   0.1767767   0.0589256  -0.0589256), wk =   0.0138889
        k(   10) = (   0.2357023   0.1178511  -0.1178511), wk =   0.0138889
        k(   11) = (   0.2946278   0.1767767  -0.1767767), wk =   0.0138889
        k(   12) = (   0.3535534   0.2357023  -0.2357023), wk =   0.0138889
        k(   13) = (  -0.2946278  -0.4124790   0.4124790), wk =   0.0138889
        k(   14) = (  -0.2357023  -0.3535534   0.3535534), wk =   0.0138889
        k(   15) = (  -0.1767767  -0.2946278   0.2946278), wk =   0.0138889
        k(   16) = (  -0.1178511  -0.2357023   0.2357023), wk =   0.0138889
        k(   17) = (  -0.0589256  -0.1767767   0.1767767), wk =   0.0138889
        k(   18) = (  -0.0000000  -0.1178511   0.1178511), wk =   0.0069444
        k(   19) = (   0.2357023   0.0000000  -0.0000000), wk =   0.0034722
        k(   20) = (   0.2946278   0.0589256  -0.0589256), wk =   0.0138889
        k(   21) = (   0.3535534   0.1178511  -0.1178511), wk =   0.0138889
        k(   22) = (   0.4124790   0.1767767  -0.1767767), wk =   0.0138889
        k(   23) = (  -0.2357023  -0.4714045   0.4714045), wk =   0.0138889
        k(   24) = (  -0.1767767  -0.4124790   0.4124790), wk =   0.0138889
        k(   25) = (  -0.1178511  -0.3535534   0.3535534), wk =   0.0138889
        k(   26) = (  -0.0589256  -0.2946278   0.2946278), wk =   0.0138889
        k(   27) = (   0.0000000  -0.2357023   0.2357023), wk =   0.0069444
        k(   28) = (   0.3535534   0.0000000   0.0000000), wk =   0.0034722
        k(   29) = (   0.4124790   0.0589256  -0.0589256), wk =   0.0138889
        k(   30) = (   0.4714045   0.1178511  -0.1178511), wk =   0.0138889
        k(   31) = (  -0.1767767  -0.5303301   0.5303301), wk =   0.0138889
        k(   32) = (  -0.1178511  -0.4714045   0.4714045), wk =   0.0138889
        k(   33) = (  -0.0589256  -0.4124790   0.4124790), wk =   0.0138889
        k(   34) = (   0.0000000  -0.3535534   0.3535534), wk =   0.0069444
        k(   35) = (   0.4714045   0.0000000  -0.0000000), wk =   0.0034722
        k(   36) = (   0.5303301   0.0589256  -0.0589256), wk =   0.0138889
        k(   37) = (  -0.1178511  -0.5892557   0.5892557), wk =   0.0138889
        k(   38) = (  -0.0589256  -0.5303301   0.5303301), wk =   0.0138889
        k(   39) = (  -0.0000000  -0.4714045   0.4714045), wk =   0.0069444
        k(   40) = (   0.5892557   0.0000000  -0.0000000), wk =   0.0034722
        k(   41) = (  -0.0589256  -0.6481812   0.6481812), wk =   0.0138889
        k(   42) = (   0.0000000  -0.5892557   0.5892557), wk =   0.0069444
        k(   43) = (  -0.7071068   0.0000000   0.0000000), wk =   0.0017361
        k(   44) = (   0.2357023   0.1178511   0.0000000), wk =   0.0138889
        k(   45) = (   0.2946278   0.1767767  -0.0589256), wk =   0.0277778
        k(   46) = (   0.3535534   0.2357023  -0.1178511), wk =   0.0277778
        k(   47) = (  -0.2946278  -0.4124790   0.5303301), wk =   0.0277778
        k(   48) = (  -0.2357023  -0.3535534   0.4714045), wk =   0.0138889
        k(   49) = (   0.3535534   0.1178511  -0.0000000), wk =   0.0138889
        k(   50) = (   0.4124790   0.1767767  -0.0589256), wk =   0.0277778
        k(   51) = (  -0.2357023  -0.4714045   0.5892557), wk =   0.0277778
        k(   52) = (  -0.1767767  -0.4124790   0.5303301), wk =   0.0277778
        k(   53) = (  -0.1178511  -0.3535534   0.4714045), wk =   0.0277778
        k(   54) = (  -0.0589256  -0.2946278   0.4124790), wk =   0.0277778
        k(   55) = (   0.0000000  -0.2357023   0.3535534), wk =   0.0138889
        k(   56) = (   0.4714045   0.1178511  -0.0000000), wk =   0.0138889
        k(   57) = (  -0.1767767  -0.5303301   0.6481812), wk =   0.0277778
        k(   58) = (  -0.1178511  -0.4714045   0.5892557), wk =   0.0277778
        k(   59) = (  -0.0589256  -0.4124790   0.5303301), wk =   0.0277778
        k(   60) = (   0.0000000  -0.3535534   0.4714045), wk =   0.0138889
        k(   61) = (  -0.1178511  -0.5892557   0.7071068), wk =   0.0138889
        k(   62) = (  -0.0589256  -0.5303301   0.6481812), wk =   0.0277778
        k(   63) = (  -0.0000000  -0.4714045   0.5892557), wk =   0.0138889
        k(   64) = (  -0.7071068   0.1178511  -0.0000000), wk =   0.0069444
        k(   65) = (  -0.2357023  -0.4714045   0.7071068), wk =   0.0138889
        k(   66) = (  -0.1767767  -0.4124790   0.6481812), wk =   0.0277778
        k(   67) = (  -0.1178511  -0.3535534   0.5892557), wk =   0.0138889
        k(   68) = (  -0.1178511  -0.4714045   0.7071068), wk =   0.0138889
        k(   69) = (  -0.0589256  -0.4124790   0.6481812), wk =   0.0277778
        k(   70) = (   0.0000000  -0.3535534   0.5892557), wk =   0.0138889
        k(   71) = (  -0.7071068   0.2357023   0.0000000), wk =   0.0069444
        k(   72) = (  -0.7071068   0.3535534   0.0000000), wk =   0.0034722

                       cryst. coord.
        k(    1) = (   0.0000000   0.0000000   0.0000000), wk =   0.0005787
        k(    2) = (   0.0000000   0.0000000   0.0833333), wk =   0.0046296
        k(    3) = (   0.0000000   0.0000000   0.1666667), wk =   0.0046296
        k(    4) = (   0.0000000   0.0000000   0.2500000), wk =   0.0046296
        k(    5) = (   0.0000000   0.0000000   0.3333333), wk =   0.0046296
        k(    6) = (  -0.0000000  -0.0000000   0.4166667), wk =   0.0046296
        k(    7) = (  -0.0000000  -0.0000000  -0.5000000), wk =   0.0023148
        k(    8) = (  -0.0000000   0.0833333   0.0833333), wk =   0.0034722
        k(    9) = (   0.0000000   0.0833333   0.1666667), wk =   0.0138889
        k(   10) = (  -0.0000000   0.0833333   0.2500000), wk =   0.0138889
        k(   11) = (   0.0000000   0.0833333   0.3333333), wk =   0.0138889
        k(   12) = (  -0.0000000   0.0833333   0.4166667), wk =   0.0138889
        k(   13) = (  -0.0000000   0.0833333  -0.5000000), wk =   0.0138889
        k(   14) = (  -0.0000000   0.0833333  -0.4166667), wk =   0.0138889
        k(   15) = (  -0.0000000   0.0833333  -0.3333333), wk =   0.0138889
        k(   16) = (  -0.0000000   0.0833333  -0.2500000), wk =   0.0138889
        k(   17) = (  -0.0000000   0.0833333  -0.1666667), wk =   0.0138889
        k(   18) = (   0.0000000   0.0833333  -0.0833333), wk =   0.0069444
        k(   19) = (  -0.0000000   0.1666667   0.1666667), wk =   0.0034722
        k(   20) = (  -0.0000000   0.1666667   0.2500000), wk =   0.0138889
        k(   21) = (   0.0000000   0.1666667   0.3333333), wk =   0.0138889
        k(   22) = (  -0.0000000   0.1666667   0.4166667), wk =   0.0138889
        k(   23) = (  -0.0000000   0.1666667  -0.5000000), wk =   0.0138889
        k(   24) = (  -0.0000000   0.1666667  -0.4166667), wk =   0.0138889
        k(   25) = (  -0.0000000   0.1666667  -0.3333333), wk =   0.0138889
        k(   26) = (   0.0000000   0.1666667  -0.2500000), wk =   0.0138889
        k(   27) = (  -0.0000000   0.1666667  -0.1666667), wk =   0.0069444
        k(   28) = (   0.0000000   0.2500000   0.2500000), wk =   0.0034722
        k(   29) = (   0.0000000   0.2500000   0.3333333), wk =   0.0138889
        k(   30) = (  -0.0000000   0.2500000   0.4166667), wk =   0.0138889
        k(   31) = (   0.0000000   0.2500000  -0.5000000), wk =   0.0138889
        k(   32) = (  -0.0000000   0.2500000  -0.4166667), wk =   0.0138889
        k(   33) = (  -0.0000000   0.2500000  -0.3333333), wk =   0.0138889
        k(   34) = (  -0.0000000   0.2500000  -0.2500000), wk =   0.0069444
        k(   35) = (  -0.0000000   0.3333333   0.3333333), wk =   0.0034722
        k(   36) = (  -0.0000000   0.3333333   0.4166667), wk =   0.0138889
        k(   37) = (   0.0000000   0.3333333  -0.5000000), wk =   0.0138889
        k(   38) = (  -0.0000000   0.3333333  -0.4166667), wk =   0.0138889
        k(   39) = (   0.0000000   0.3333333  -0.3333333), wk =   0.0069444
        k(   40) = (   0.0000000   0.4166667   0.4166667), wk =   0.0034722
        k(   41) = (  -0.0000000   0.4166667  -0.5000000), wk =   0.0138889
        k(   42) = (   0.0000000   0.4166667  -0.4166667), wk =   0.0069444
        k(   43) = (   0.0000000  -0.5000000  -0.5000000), wk =   0.0017361
        k(   44) = (   0.0833333   0.1666667   0.2500000), wk =   0.0138889
        k(   45) = (   0.0833333   0.1666667   0.3333333), wk =   0.0277778
        k(   46) = (   0.0833333   0.1666667   0.4166667), wk =   0.0277778
        k(   47) = (   0.0833333   0.1666667  -0.5000000), wk =   0.0277778
        k(   48) = (   0.0833333   0.1666667  -0.4166667), wk =   0.0138889
        k(   49) = (   0.0833333   0.2500000   0.3333333), wk =   0.0138889
        k(   50) = (   0.0833333   0.2500000   0.4166667), wk =   0.0277778
        k(   51) = (   0.0833333   0.2500000  -0.5000000), wk =   0.0277778
        k(   52) = (   0.0833333   0.2500000  -0.4166667), wk =   0.0277778
        k(   53) = (   0.0833333   0.2500000  -0.3333333), wk =   0.0277778
        k(   54) = (   0.0833333   0.2500000  -0.2500000), wk =   0.0277778
        k(   55) = (   0.0833333   0.2500000  -0.1666667), wk =   0.0138889
        k(   56) = (   0.0833333   0.3333333   0.4166667), wk =   0.0138889
        k(   57) = (   0.0833333   0.3333333  -0.5000000), wk =   0.0277778
        k(   58) = (   0.0833333   0.3333333  -0.4166667), wk =   0.0277778
        k(   59) = (   0.0833333   0.3333333  -0.3333333), wk =   0.0277778
        k(   60) = (   0.0833333   0.3333333  -0.2500000), wk =   0.0138889
        k(   61) = (   0.0833333   0.4166667  -0.5000000), wk =   0.0138889
        k(   62) = (   0.0833333   0.4166667  -0.4166667), wk =   0.0277778
        k(   63) = (   0.0833333   0.4166667  -0.3333333), wk =   0.0138889
        k(   64) = (   0.0833333  -0.5000000  -0.4166667), wk =   0.0069444
        k(   65) = (   0.1666667   0.3333333  -0.5000000), wk =   0.0138889
        k(   66) = (   0.1666667   0.3333333  -0.4166667), wk =   0.0277778
        k(   67) = (   0.1666667   0.3333333  -0.3333333), wk =   0.0138889
        k(   68) = (   0.1666667   0.4166667  -0.4166667), wk =   0.0138889
        k(   69) = (   0.1666667   0.4166667  -0.3333333), wk =   0.0277778
        k(   70) = (   0.1666667   0.4166667  -0.2500000), wk =   0.0138889
        k(   71) = (   0.1666667  -0.5000000  -0.3333333), wk =   0.0069444
        k(   72) = (   0.2500000  -0.5000000  -0.2500000), wk =   0.0034722

     Dense  grid:    55369 G-vectors     FFT dimensions: (  54,  54,  54)

     Smooth grid:    19603 G-vectors     FFT dimensions: (  40,  40,  40)

     Dynamical RAM for                 wfc:       1.16 MB

     Dynamical RAM for     wfc (w. buffer):     167.84 MB

     Dynamical RAM for           str. fact:       3.38 MB

     Dynamical RAM for           local pot:       0.00 MB

     Dynamical RAM for          nlocal pot:       2.69 MB

     Dynamical RAM for                qrad:       6.42 MB

     Dynamical RAM for          rho,v,vnew:      12.28 MB

     Dynamical RAM for               rhoin:       4.09 MB

     Dynamical RAM for            rho*nmix:      27.04 MB

     Dynamical RAM for           G-vectors:       3.32 MB

     Dynamical RAM for          h,s,v(r/c):       0.18 MB

     Dynamical RAM for          <psi|beta>:       0.03 MB

     Dynamical RAM for                 psi:       2.31 MB

     Dynamical RAM for                hpsi:       2.31 MB

     Dynamical RAM for                spsi:       2.31 MB

     Dynamical RAM for      wfcinit/wfcrot:       2.34 MB

     Dynamical RAM for           addusdens:     158.83 MB

     Dynamical RAM for          addusforce:     158.84 MB

     Dynamical RAM for         addusstress:     171.08 MB

     Estimated static dynamical RAM per process >     211.44 MB

     Estimated max dynamical RAM per process >     409.57 MB

     Atomic positions and unit cell read from directory:
     ./out/aiida.save/
 

     Check: negative core charge=   -0.000004
     Generating pointlists ...
     new r_m :   0.2526 (alat units)  2.1062 (a.u.) for type    1
     new r_m :   0.2526 (alat units)  2.1062 (a.u.) for type    2
     new r_m :   0.2526 (alat units)  2.1062 (a.u.) for type    3
     new r_m :   0.2526 (alat units)  2.1062 (a.u.) for type    4

     The initial density is read from file :
     ./out/aiida.save/charge-density


     negative rho (up, down):  1.522E-04 3.804E-03
     Starting wfcs from file

     total cpu time spent up to now is        3.6 secs

     per-process dynamical memory:   410.7 Mb

     Self-consistent Calculation
[tb_dev] Currently allocated     3.05E-05 Mbytes, locked:    0 /   2
[tb_pin] Currently allocated     0.00E+00 Mbytes, locked:    0 /   0

     iteration #  1     ecut=    50.00 Ry     beta= 0.10
     Davidson diagonalization with overlap

---- Real-time Memory Report at c_bands before calling an iterative solver
           522 MiB given to the printing process from OS
           403 MiB allocation reported by mallinfo(arena+hblkhd)
         59624 MiB available memory on the node where the printing process lives
     GPU memory used/free/total (MiB): 628 / 15652 / 16280
------------------
     ethr =  1.00E-05,  avg # of iterations =  1.1

     negative rho (up, down):  1.596E-04 3.675E-03

     total cpu time spent up to now is        7.1 secs

     total energy              =    -583.82844507 Ry
     estimated scf accuracy    <       0.01218440 Ry

     total magnetization       =     4.06 Bohr mag/cell
     absolute magnetization    =     4.20 Bohr mag/cell
[tb_dev] Currently allocated     1.03E+00 Mbytes, locked:    0 /   8
[tb_pin] Currently allocated     0.00E+00 Mbytes, locked:    0 /   0

     iteration #  2     ecut=    50.00 Ry     beta= 0.10
     Davidson diagonalization with overlap

---- Real-time Memory Report at c_bands before calling an iterative solver
          1076 MiB given to the printing process from OS
           895 MiB allocation reported by mallinfo(arena+hblkhd)
         58541 MiB available memory on the node where the printing process lives
     GPU memory used/free/total (MiB): 978 / 15302 / 16280
------------------
     ethr =  2.34E-05,  avg # of iterations =  1.4

     negative rho (up, down):  1.697E-04 3.574E-03

     total cpu time spent up to now is        9.7 secs

     total energy              =    -583.83000358 Ry
     estimated scf accuracy    <       0.00490214 Ry

     total magnetization       =     4.13 Bohr mag/cell
     absolute magnetization    =     4.26 Bohr mag/cell
[tb_dev] Currently allocated     1.03E+00 Mbytes, locked:    0 /   8
[tb_pin] Currently allocated     0.00E+00 Mbytes, locked:    0 /   0

     iteration #  3     ecut=    50.00 Ry     beta= 0.10
     Davidson diagonalization with overlap

---- Real-time Memory Report at c_bands before calling an iterative solver
          1080 MiB given to the printing process from OS
           897 MiB allocation reported by mallinfo(arena+hblkhd)
         58539 MiB available memory on the node where the printing process lives
     GPU memory used/free/total (MiB): 984 / 15296 / 16280
------------------
     ethr =  9.43E-06,  avg # of iterations =  1.8

     negative rho (up, down):  1.900E-04 3.419E-03

     total cpu time spent up to now is       12.4 secs

     total energy              =    -583.83169509 Ry
     estimated scf accuracy    <       0.00405954 Ry

     total magnetization       =     4.07 Bohr mag/cell
     absolute magnetization    =     4.21 Bohr mag/cell
[tb_dev] Currently allocated     1.03E+00 Mbytes, locked:    0 /   8
[tb_pin] Currently allocated     0.00E+00 Mbytes, locked:    0 /   0

     iteration #  4     ecut=    50.00 Ry     beta= 0.10
     Davidson diagonalization with overlap

---- Real-time Memory Report at c_bands before calling an iterative solver
          1083 MiB given to the printing process from OS
           898 MiB allocation reported by mallinfo(arena+hblkhd)
         58537 MiB available memory on the node where the printing process lives
     GPU memory used/free/total (MiB): 988 / 15292 / 16280
------------------
     ethr =  7.81E-06,  avg # of iterations =  1.2

     negative rho (up, down):  3.504E-04 2.383E-03

     total cpu time spent up to now is       14.8 secs

     total energy              =    -583.83654964 Ry
     estimated scf accuracy    <       0.00335016 Ry

     total magnetization       =     4.01 Bohr mag/cell
     absolute magnetization    =     4.15 Bohr mag/cell
[tb_dev] Currently allocated     1.03E+00 Mbytes, locked:    0 /   8
[tb_pin] Currently allocated     0.00E+00 Mbytes, locked:    0 /   0

     iteration #  5     ecut=    50.00 Ry     beta= 0.10
     Davidson diagonalization with overlap

---- Real-time Memory Report at c_bands before calling an iterative solver
          1085 MiB given to the printing process from OS
           899 MiB allocation reported by mallinfo(arena+hblkhd)
         58536 MiB available memory on the node where the printing process lives
     GPU memory used/free/total (MiB): 988 / 15292 / 16280
------------------
     ethr =  6.44E-06,  avg # of iterations =  5.5

     negative rho (up, down):  4.529E-04 1.792E-03

     total cpu time spent up to now is       19.6 secs

     total energy              =    -583.84058266 Ry
     estimated scf accuracy    <       0.00151679 Ry

     total magnetization       =     3.61 Bohr mag/cell
     absolute magnetization    =     3.73 Bohr mag/cell
[tb_dev] Currently allocated     1.03E+00 Mbytes, locked:    0 /   8
[tb_pin] Currently allocated     0.00E+00 Mbytes, locked:    0 /   0

     iteration #  6     ecut=    50.00 Ry     beta= 0.10
     Davidson diagonalization with overlap

---- Real-time Memory Report at c_bands before calling an iterative solver
          1089 MiB given to the printing process from OS
           901 MiB allocation reported by mallinfo(arena+hblkhd)
         58535 MiB available memory on the node where the printing process lives
     GPU memory used/free/total (MiB): 1088 / 15192 / 16280
------------------
     c_bands:  1 eigenvalues not converged
     c_bands:  1 eigenvalues not converged
     c_bands:  1 eigenvalues not converged
     c_bands:  1 eigenvalues not converged
     c_bands:  1 eigenvalues not converged
     ethr =  2.92E-06,  avg # of iterations =  8.9

     negative rho (up, down):  5.214E-04 1.639E-03

     total cpu time spent up to now is       26.8 secs

     total energy              =    -583.84178618 Ry
     estimated scf accuracy    <       0.00170467 Ry

     total magnetization       =     3.40 Bohr mag/cell
     absolute magnetization    =     3.51 Bohr mag/cell
[tb_dev] Currently allocated     1.03E+00 Mbytes, locked:    0 /   8
[tb_pin] Currently allocated     0.00E+00 Mbytes, locked:    0 /   0

     iteration #  7     ecut=    50.00 Ry     beta= 0.10
     Davidson diagonalization with overlap

---- Real-time Memory Report at c_bands before calling an iterative solver
          1093 MiB given to the printing process from OS
           903 MiB allocation reported by mallinfo(arena+hblkhd)
         58532 MiB available memory on the node where the printing process lives
     GPU memory used/free/total (MiB): 1088 / 15192 / 16280
------------------
     ethr =  2.92E-06,  avg # of iterations =  5.1

     negative rho (up, down):  5.782E-04 1.609E-03

     total cpu time spent up to now is       31.6 secs

     total energy              =    -583.84177376 Ry
     estimated scf accuracy    <       0.00488063 Ry

     total magnetization       =     3.04 Bohr mag/cell
     absolute magnetization    =     3.16 Bohr mag/cell
[tb_dev] Currently allocated     1.03E+00 Mbytes, locked:    0 /   8
[tb_pin] Currently allocated     0.00E+00 Mbytes, locked:    0 /   0

     iteration #  8     ecut=    50.00 Ry     beta= 0.10
     Davidson diagonalization with overlap

---- Real-time Memory Report at c_bands before calling an iterative solver
          1095 MiB given to the printing process from OS
           905 MiB allocation reported by mallinfo(arena+hblkhd)
         58530 MiB available memory on the node where the printing process lives
     GPU memory used/free/total (MiB): 1088 / 15192 / 16280
------------------
     c_bands:  1 eigenvalues not converged
     ethr =  2.92E-06,  avg # of iterations =  8.7

     negative rho (up, down):  6.979E-04 1.541E-03

     total cpu time spent up to now is       38.4 secs

     total energy              =    -583.84095536 Ry
     estimated scf accuracy    <       0.00767344 Ry

     total magnetization       =     3.00 Bohr mag/cell
     absolute magnetization    =     3.11 Bohr mag/cell
[tb_dev] Currently allocated     1.03E+00 Mbytes, locked:    0 /   8
[tb_pin] Currently allocated     0.00E+00 Mbytes, locked:    0 /   0

     iteration #  9     ecut=    50.00 Ry     beta= 0.10
     Davidson diagonalization with overlap

---- Real-time Memory Report at c_bands before calling an iterative solver
          1099 MiB given to the printing process from OS
           906 MiB allocation reported by mallinfo(arena+hblkhd)
         58527 MiB available memory on the node where the printing process lives
     GPU memory used/free/total (MiB): 1088 / 15192 / 16280
------------------
     c_bands:  1 eigenvalues not converged
     ethr =  2.92E-06,  avg # of iterations =  5.9

     negative rho (up, down):  6.066E-04 1.639E-03

     total cpu time spent up to now is       43.5 secs

     total energy              =    -583.84174504 Ry
     estimated scf accuracy    <       0.00362472 Ry

     total magnetization       =     2.05 Bohr mag/cell
     absolute magnetization    =     2.44 Bohr mag/cell
[tb_dev] Currently allocated     1.03E+00 Mbytes, locked:    0 /   8
[tb_pin] Currently allocated     0.00E+00 Mbytes, locked:    0 /   0

     iteration # 10     ecut=    50.00 Ry     beta= 0.10
     Davidson diagonalization with overlap

---- Real-time Memory Report at c_bands before calling an iterative solver
          1100 MiB given to the printing process from OS
           907 MiB allocation reported by mallinfo(arena+hblkhd)
         58526 MiB available memory on the node where the printing process lives
     GPU memory used/free/total (MiB): 1088 / 15192 / 16280
------------------
     ethr =  2.92E-06,  avg # of iterations =  4.0

     negative rho (up, down):  2.239E-04 3.228E-03

     total cpu time spent up to now is       47.9 secs

     total energy              =    -583.80757922 Ry
     estimated scf accuracy    <       0.00332099 Ry

     total magnetization       =     2.63 Bohr mag/cell
     absolute magnetization    =     2.79 Bohr mag/cell
[tb_dev] Currently allocated     1.03E+00 Mbytes, locked:    0 /   8
[tb_pin] Currently allocated     0.00E+00 Mbytes, locked:    0 /   0

     iteration # 11     ecut=    50.00 Ry     beta= 0.10
     Davidson diagonalization with overlap

---- Real-time Memory Report at c_bands before calling an iterative solver
          1101 MiB given to the printing process from OS
           907 MiB allocation reported by mallinfo(arena+hblkhd)
         58526 MiB available memory on the node where the printing process lives
     GPU memory used/free/total (MiB): 1088 / 15192 / 16280
------------------
     c_bands:  1 eigenvalues not converged
     c_bands:  1 eigenvalues not converged
     c_bands:  1 eigenvalues not converged
     c_bands:  1 eigenvalues not converged
     c_bands:  1 eigenvalues not converged
     c_bands:  1 eigenvalues not converged
     c_bands:  1 eigenvalues not converged
     c_bands:  1 eigenvalues not converged
     c_bands:  1 eigenvalues not converged
     c_bands:  1 eigenvalues not converged
     c_bands:  1 eigenvalues not converged
     c_bands:  1 eigenvalues not converged
     c_bands:  1 eigenvalues not converged
     c_bands:  1 eigenvalues not converged
     c_bands:  1 eigenvalues not converged
     c_bands:  1 eigenvalues not converged
     c_bands:  1 eigenvalues not converged
     c_bands:  1 eigenvalues not converged
     c_bands:  1 eigenvalues not converged
     c_bands:  1 eigenvalues not converged
     c_bands:  1 eigenvalues not converged
     c_bands:  1 eigenvalues not converged
     c_bands:  1 eigenvalues not converged
     c_bands:  1 eigenvalues not converged
     ethr =  2.92E-06,  avg # of iterations = 12.1

     negative rho (up, down):  2.280E-04 3.206E-03

     total cpu time spent up to now is       56.6 secs

     total energy              =    -583.83410177 Ry
     estimated scf accuracy    <       0.00703437 Ry

     total magnetization       =     3.88 Bohr mag/cell
     absolute magnetization    =     4.01 Bohr mag/cell
[tb_dev] Currently allocated     1.03E+00 Mbytes, locked:    0 /   8
[tb_pin] Currently allocated     0.00E+00 Mbytes, locked:    0 /   0

     iteration # 12     ecut=    50.00 Ry     beta= 0.10
     Davidson diagonalization with overlap

---- Real-time Memory Report at c_bands before calling an iterative solver
          1101 MiB given to the printing process from OS
           907 MiB allocation reported by mallinfo(arena+hblkhd)
         58526 MiB available memory on the node where the printing process lives
     GPU memory used/free/total (MiB): 1088 / 15192 / 16280
------------------
     ethr =  2.92E-06,  avg # of iterations =  1.8

     negative rho (up, down):  3.085E-04 2.753E-03

     total cpu time spent up to now is       59.3 secs

     total energy              =    -583.83731295 Ry
     estimated scf accuracy    <       0.00680489 Ry

     total magnetization       =     3.87 Bohr mag/cell
     absolute magnetization    =     4.00 Bohr mag/cell
[tb_dev] Currently allocated     1.03E+00 Mbytes, locked:    0 /   8
[tb_pin] Currently allocated     0.00E+00 Mbytes, locked:    0 /   0

     iteration # 13     ecut=    50.00 Ry     beta= 0.10
     Davidson diagonalization with overlap

---- Real-time Memory Report at c_bands before calling an iterative solver
          1102 MiB given to the printing process from OS
           907 MiB allocation reported by mallinfo(arena+hblkhd)
         58526 MiB available memory on the node where the printing process lives
     GPU memory used/free/total (MiB): 1088 / 15192 / 16280
------------------
     ethr =  2.92E-06,  avg # of iterations =  4.2

     negative rho (up, down):  2.909E-04 2.893E-03

     total cpu time spent up to now is       63.6 secs

     total energy              =    -583.83747605 Ry
     estimated scf accuracy    <       0.00294459 Ry

     total magnetization       =     3.72 Bohr mag/cell
     absolute magnetization    =     3.84 Bohr mag/cell
[tb_dev] Currently allocated     1.03E+00 Mbytes, locked:    0 /   8
[tb_pin] Currently allocated     0.00E+00 Mbytes, locked:    0 /   0

     iteration # 14     ecut=    50.00 Ry     beta= 0.10
     Davidson diagonalization with overlap

---- Real-time Memory Report at c_bands before calling an iterative solver
          1102 MiB given to the printing process from OS
           907 MiB allocation reported by mallinfo(arena+hblkhd)
         58526 MiB available memory on the node where the printing process lives
     GPU memory used/free/total (MiB): 1088 / 15192 / 16280
------------------
     ethr =  2.92E-06,  avg # of iterations =  1.0

     negative rho (up, down):  3.903E-04 2.358E-03

     total cpu time spent up to now is       66.0 secs

     total energy              =    -583.83966834 Ry
     estimated scf accuracy    <       0.00325669 Ry

     total magnetization       =     3.76 Bohr mag/cell
     absolute magnetization    =     3.88 Bohr mag/cell
[tb_dev] Currently allocated     1.03E+00 Mbytes, locked:    0 /   8
[tb_pin] Currently allocated     0.00E+00 Mbytes, locked:    0 /   0

     iteration # 15     ecut=    50.00 Ry     beta= 0.10
     Davidson diagonalization with overlap

---- Real-time Memory Report at c_bands before calling an iterative solver
          1102 MiB given to the printing process from OS
           907 MiB allocation reported by mallinfo(arena+hblkhd)
         58527 MiB available memory on the node where the printing process lives
     GPU memory used/free/total (MiB): 1088 / 15192 / 16280
------------------
     c_bands:  1 eigenvalues not converged
     c_bands:  1 eigenvalues not converged
     ethr =  2.92E-06,  avg # of iterations =  6.0

     negative rho (up, down):  3.919E-04 2.350E-03

     total cpu time spent up to now is       71.0 secs

     total energy              =    -583.84123120 Ry
     estimated scf accuracy    <       0.00067527 Ry

     total magnetization       =     3.55 Bohr mag/cell
     absolute magnetization    =     3.67 Bohr mag/cell
[tb_dev] Currently allocated     1.03E+00 Mbytes, locked:    0 /   8
[tb_pin] Currently allocated     0.00E+00 Mbytes, locked:    0 /   0

     iteration # 16     ecut=    50.00 Ry     beta= 0.10
     Davidson diagonalization with overlap

---- Real-time Memory Report at c_bands before calling an iterative solver
          1102 MiB given to the printing process from OS
           907 MiB allocation reported by mallinfo(arena+hblkhd)
         58527 MiB available memory on the node where the printing process lives
     GPU memory used/free/total (MiB): 1088 / 15192 / 16280
------------------
     ethr =  1.30E-06,  avg # of iterations =  1.4

     negative rho (up, down):  3.941E-04 2.343E-03

     total cpu time spent up to now is       73.5 secs

     total energy              =    -583.84133762 Ry
     estimated scf accuracy    <       0.00065809 Ry

     total magnetization       =     3.55 Bohr mag/cell
     absolute magnetization    =     3.66 Bohr mag/cell
[tb_dev] Currently allocated     1.03E+00 Mbytes, locked:    0 /   8
[tb_pin] Currently allocated     0.00E+00 Mbytes, locked:    0 /   0

     iteration # 17     ecut=    50.00 Ry     beta= 0.10
     Davidson diagonalization with overlap

---- Real-time Memory Report at c_bands before calling an iterative solver
          1102 MiB given to the printing process from OS
           907 MiB allocation reported by mallinfo(arena+hblkhd)
         58526 MiB available memory on the node where the printing process lives
     GPU memory used/free/total (MiB): 1088 / 15192 / 16280
------------------
     ethr =  1.27E-06,  avg # of iterations =  1.0

     negative rho (up, down):  4.304E-04 2.122E-03

     total cpu time spent up to now is       75.9 secs

     total energy              =    -583.84190089 Ry
     estimated scf accuracy    <       0.00067889 Ry

     total magnetization       =     3.54 Bohr mag/cell
     absolute magnetization    =     3.66 Bohr mag/cell
[tb_dev] Currently allocated     1.03E+00 Mbytes, locked:    0 /   8
[tb_pin] Currently allocated     0.00E+00 Mbytes, locked:    0 /   0

     iteration # 18     ecut=    50.00 Ry     beta= 0.10
     Davidson diagonalization with overlap

---- Real-time Memory Report at c_bands before calling an iterative solver
          1102 MiB given to the printing process from OS
           907 MiB allocation reported by mallinfo(arena+hblkhd)
         58526 MiB available memory on the node where the printing process lives
     GPU memory used/free/total (MiB): 1088 / 15192 / 16280
------------------
     ethr =  1.27E-06,  avg # of iterations =  5.0

     negative rho (up, down):  5.478E-04 1.915E-03

     total cpu time spent up to now is       80.4 secs

     total energy              =    -583.84122772 Ry
     estimated scf accuracy    <       0.00045546 Ry

     total magnetization       =     3.45 Bohr mag/cell
     absolute magnetization    =     3.56 Bohr mag/cell
[tb_dev] Currently allocated     1.03E+00 Mbytes, locked:    0 /   8
[tb_pin] Currently allocated     0.00E+00 Mbytes, locked:    0 /   0

     iteration # 19     ecut=    50.00 Ry     beta= 0.10
     Davidson diagonalization with overlap

---- Real-time Memory Report at c_bands before calling an iterative solver
          1102 MiB given to the printing process from OS
           907 MiB allocation reported by mallinfo(arena+hblkhd)
         58527 MiB available memory on the node where the printing process lives
     GPU memory used/free/total (MiB): 1088 / 15192 / 16280
------------------
     c_bands:  1 eigenvalues not converged
     c_bands:  2 eigenvalues not converged
     c_bands:  1 eigenvalues not converged
     c_bands:  1 eigenvalues not converged
     c_bands:  1 eigenvalues not converged
     ethr =  8.76E-07,  avg # of iterations = 10.0

     negative rho (up, down):  4.382E-04 2.091E-03

     total cpu time spent up to now is       87.9 secs

     total energy              =    -583.84035204 Ry
     estimated scf accuracy    <       0.00132793 Ry

     total magnetization       =     3.05 Bohr mag/cell
     absolute magnetization    =     3.17 Bohr mag/cell
[tb_dev] Currently allocated     1.03E+00 Mbytes, locked:    0 /   8
[tb_pin] Currently allocated     0.00E+00 Mbytes, locked:    0 /   0

     iteration # 20     ecut=    50.00 Ry     beta= 0.10
     Davidson diagonalization with overlap

---- Real-time Memory Report at c_bands before calling an iterative solver
          1102 MiB given to the printing process from OS
           907 MiB allocation reported by mallinfo(arena+hblkhd)
         58527 MiB available memory on the node where the printing process lives
     GPU memory used/free/total (MiB): 1088 / 15192 / 16280
------------------
     ethr =  8.76E-07,  avg # of iterations =  7.0

     negative rho (up, down):  3.944E-04 2.329E-03

     total cpu time spent up to now is       93.6 secs

     total energy              =    -583.84137810 Ry
     estimated scf accuracy    <       0.00073032 Ry

     total magnetization       =     3.44 Bohr mag/cell
     absolute magnetization    =     3.55 Bohr mag/cell
[tb_dev] Currently allocated     1.03E+00 Mbytes, locked:    0 /   8
[tb_pin] Currently allocated     0.00E+00 Mbytes, locked:    0 /   0

     iteration # 21     ecut=    50.00 Ry     beta= 0.10
     Davidson diagonalization with overlap

---- Real-time Memory Report at c_bands before calling an iterative solver
          1102 MiB given to the printing process from OS
           907 MiB allocation reported by mallinfo(arena+hblkhd)
         58527 MiB available memory on the node where the printing process lives
     GPU memory used/free/total (MiB): 1088 / 15192 / 16280
------------------
     ethr =  8.76E-07,  avg # of iterations =  4.9

     negative rho (up, down):  4.110E-04 2.203E-03

     total cpu time spent up to now is       98.0 secs

     total energy              =    -583.84210252 Ry
     estimated scf accuracy    <       0.00071767 Ry

     total magnetization       =     3.54 Bohr mag/cell
     absolute magnetization    =     3.65 Bohr mag/cell
[tb_dev] Currently allocated     1.03E+00 Mbytes, locked:    0 /   8
[tb_pin] Currently allocated     0.00E+00 Mbytes, locked:    0 /   0

     iteration # 22     ecut=    50.00 Ry     beta= 0.10
     Davidson diagonalization with overlap

---- Real-time Memory Report at c_bands before calling an iterative solver
          1102 MiB given to the printing process from OS
           907 MiB allocation reported by mallinfo(arena+hblkhd)
         58527 MiB available memory on the node where the printing process lives
     GPU memory used/free/total (MiB): 1088 / 15192 / 16280
------------------
     ethr =  8.76E-07,  avg # of iterations =  2.8

     negative rho (up, down):  4.525E-04 2.116E-03

     total cpu time spent up to now is      101.2 secs

     total energy              =    -583.84262366 Ry
     estimated scf accuracy    <       0.00074614 Ry

     total magnetization       =     3.47 Bohr mag/cell
     absolute magnetization    =     3.59 Bohr mag/cell
[tb_dev] Currently allocated     1.03E+00 Mbytes, locked:    0 /   8
[tb_pin] Currently allocated     0.00E+00 Mbytes, locked:    0 /   0

     iteration # 23     ecut=    50.00 Ry     beta= 0.10
     Davidson diagonalization with overlap

---- Real-time Memory Report at c_bands before calling an iterative solver
          1102 MiB given to the printing process from OS
           907 MiB allocation reported by mallinfo(arena+hblkhd)
         58527 MiB available memory on the node where the printing process lives
     GPU memory used/free/total (MiB): 1088 / 15192 / 16280
------------------
     c_bands:  1 eigenvalues not converged
     ethr =  8.76E-07,  avg # of iterations =  5.4

     negative rho (up, down):  4.629E-04 2.060E-03

     total cpu time spent up to now is      106.5 secs

     total energy              =    -583.84316880 Ry
     estimated scf accuracy    <       0.00115336 Ry

     total magnetization       =     3.33 Bohr mag/cell
     absolute magnetization    =     3.44 Bohr mag/cell
[tb_dev] Currently allocated     1.03E+00 Mbytes, locked:    0 /   8
[tb_pin] Currently allocated     0.00E+00 Mbytes, locked:    0 /   0

     iteration # 24     ecut=    50.00 Ry     beta= 0.10
     Davidson diagonalization with overlap

---- Real-time Memory Report at c_bands before calling an iterative solver
          1102 MiB given to the printing process from OS
           907 MiB allocation reported by mallinfo(arena+hblkhd)
         58527 MiB available memory on the node where the printing process lives
     GPU memory used/free/total (MiB): 1088 / 15192 / 16280
------------------
     ethr =  8.76E-07,  avg # of iterations =  1.1

     negative rho (up, down):  3.865E-04 2.374E-03

     total cpu time spent up to now is      108.9 secs

     total energy              =    -583.84015203 Ry
     estimated scf accuracy    <       0.00156598 Ry

     total magnetization       =     3.28 Bohr mag/cell
     absolute magnetization    =     3.40 Bohr mag/cell
[tb_dev] Currently allocated     1.03E+00 Mbytes, locked:    0 /   8
[tb_pin] Currently allocated     0.00E+00 Mbytes, locked:    0 /   0

     iteration # 25     ecut=    50.00 Ry     beta= 0.10
     Davidson diagonalization with overlap

---- Real-time Memory Report at c_bands before calling an iterative solver
          1102 MiB given to the printing process from OS
           907 MiB allocation reported by mallinfo(arena+hblkhd)
         58528 MiB available memory on the node where the printing process lives
     GPU memory used/free/total (MiB): 1088 / 15192 / 16280
------------------
     ethr =  8.76E-07,  avg # of iterations =  6.4

     negative rho (up, down):  4.376E-04 2.122E-03

     total cpu time spent up to now is      114.3 secs

     total energy              =    -583.84219227 Ry
     estimated scf accuracy    <       0.00131415 Ry

     total magnetization       =     3.54 Bohr mag/cell
     absolute magnetization    =     3.65 Bohr mag/cell
[tb_dev] Currently allocated     1.03E+00 Mbytes, locked:    0 /   8
[tb_pin] Currently allocated     0.00E+00 Mbytes, locked:    0 /   0

     iteration # 26     ecut=    50.00 Ry     beta= 0.10
     Davidson diagonalization with overlap

---- Real-time Memory Report at c_bands before calling an iterative solver
          1102 MiB given to the printing process from OS
           907 MiB allocation reported by mallinfo(arena+hblkhd)
         58527 MiB available memory on the node where the printing process lives
     GPU memory used/free/total (MiB): 1088 / 15192 / 16280
------------------
     ethr =  8.76E-07,  avg # of iterations =  4.3

     negative rho (up, down):  4.279E-04 2.131E-03

     total cpu time spent up to now is      118.4 secs

     total energy              =    -583.84243541 Ry
     estimated scf accuracy    <       0.00066198 Ry

     total magnetization       =     3.41 Bohr mag/cell
     absolute magnetization    =     3.52 Bohr mag/cell
[tb_dev] Currently allocated     1.03E+00 Mbytes, locked:    0 /   8
[tb_pin] Currently allocated     0.00E+00 Mbytes, locked:    0 /   0

     iteration # 27     ecut=    50.00 Ry     beta= 0.10
     Davidson diagonalization with overlap

---- Real-time Memory Report at c_bands before calling an iterative solver
          1102 MiB given to the printing process from OS
           907 MiB allocation reported by mallinfo(arena+hblkhd)
         58528 MiB available memory on the node where the printing process lives
     GPU memory used/free/total (MiB): 1088 / 15192 / 16280
------------------
     ethr =  8.76E-07,  avg # of iterations =  1.0

     negative rho (up, down):  5.571E-04 2.065E-03

     total cpu time spent up to now is      120.7 secs

     total energy              =    -583.84073504 Ry
     estimated scf accuracy    <       0.00082420 Ry

     total magnetization       =     3.43 Bohr mag/cell
     absolute magnetization    =     3.54 Bohr mag/cell
[tb_dev] Currently allocated     1.03E+00 Mbytes, locked:    0 /   8
[tb_pin] Currently allocated     0.00E+00 Mbytes, locked:    0 /   0

     iteration # 28     ecut=    50.00 Ry     beta= 0.10
     Davidson diagonalization with overlap

---- Real-time Memory Report at c_bands before calling an iterative solver
          1103 MiB given to the printing process from OS
           907 MiB allocation reported by mallinfo(arena+hblkhd)
         58528 MiB available memory on the node where the printing process lives
     GPU memory used/free/total (MiB): 1088 / 15192 / 16280
------------------
     c_bands:  1 eigenvalues not converged
     c_bands:  1 eigenvalues not converged
     ethr =  8.76E-07,  avg # of iterations =  8.6

     negative rho (up, down):  1.895E-04 3.423E-03

     total cpu time spent up to now is      127.6 secs

     total energy              =    -583.80715485 Ry
     estimated scf accuracy    <       0.00075801 Ry

     total magnetization       =     2.87 Bohr mag/cell
     absolute magnetization    =     3.01 Bohr mag/cell
[tb_dev] Currently allocated     1.03E+00 Mbytes, locked:    0 /   8
[tb_pin] Currently allocated     0.00E+00 Mbytes, locked:    0 /   0

     iteration # 29     ecut=    50.00 Ry     beta= 0.10
     Davidson diagonalization with overlap

---- Real-time Memory Report at c_bands before calling an iterative solver
          1103 MiB given to the printing process from OS
           907 MiB allocation reported by mallinfo(arena+hblkhd)
         58528 MiB available memory on the node where the printing process lives
     GPU memory used/free/total (MiB): 1088 / 15192 / 16280
------------------
     c_bands:  2 eigenvalues not converged
     c_bands:  2 eigenvalues not converged
     c_bands:  1 eigenvalues not converged
     c_bands:  1 eigenvalues not converged
     c_bands:  1 eigenvalues not converged
     c_bands:  1 eigenvalues not converged
     c_bands:  1 eigenvalues not converged
     c_bands:  1 eigenvalues not converged
     c_bands:  1 eigenvalues not converged
     c_bands:  1 eigenvalues not converged
     c_bands:  1 eigenvalues not converged
     c_bands:  1 eigenvalues not converged
     c_bands:  1 eigenvalues not converged
     c_bands:  1 eigenvalues not converged
     ethr =  8.76E-07,  avg # of iterations = 12.3

     negative rho (up, down):  2.251E-04 3.294E-03

     total cpu time spent up to now is      136.9 secs

     total energy              =    -583.83468389 Ry
     estimated scf accuracy    <       0.00860639 Ry

     total magnetization       =     3.94 Bohr mag/cell
     absolute magnetization    =     4.07 Bohr mag/cell
[tb_dev] Currently allocated     1.03E+00 Mbytes, locked:    0 /   8
[tb_pin] Currently allocated     0.00E+00 Mbytes, locked:    0 /   0

     iteration # 30     ecut=    50.00 Ry     beta= 0.10
     Davidson diagonalization with overlap

---- Real-time Memory Report at c_bands before calling an iterative solver
          1103 MiB given to the printing process from OS
           907 MiB allocation reported by mallinfo(arena+hblkhd)
         58528 MiB available memory on the node where the printing process lives
     GPU memory used/free/total (MiB): 1088 / 15192 / 16280
------------------
     ethr =  8.76E-07,  avg # of iterations =  2.1

     negative rho (up, down):  3.711E-04 2.577E-03

     total cpu time spent up to now is      139.7 secs

     total energy              =    -583.83807854 Ry
     estimated scf accuracy    <       0.00692628 Ry

     total magnetization       =     3.88 Bohr mag/cell
     absolute magnetization    =     4.01 Bohr mag/cell
[tb_dev] Currently allocated     1.03E+00 Mbytes, locked:    0 /   8
[tb_pin] Currently allocated     0.00E+00 Mbytes, locked:    0 /   0

     iteration # 31     ecut=    50.00 Ry     beta= 0.10
     Davidson diagonalization with overlap

---- Real-time Memory Report at c_bands before calling an iterative solver
          1103 MiB given to the printing process from OS
           907 MiB allocation reported by mallinfo(arena+hblkhd)
         58528 MiB available memory on the node where the printing process lives
     GPU memory used/free/total (MiB): 1088 / 15192 / 16280
------------------
     c_bands:  1 eigenvalues not converged
     c_bands:  1 eigenvalues not converged
     c_bands:  1 eigenvalues not converged
     c_bands:  1 eigenvalues not converged
     c_bands:  1 eigenvalues not converged
     c_bands:  1 eigenvalues not converged
     ethr =  8.76E-07,  avg # of iterations =  8.4

     negative rho (up, down):  3.888E-04 2.482E-03

     total cpu time spent up to now is      146.8 secs

     total energy              =    -583.84108854 Ry
     estimated scf accuracy    <       0.00159726 Ry

     total magnetization       =     3.60 Bohr mag/cell
     absolute magnetization    =     3.72 Bohr mag/cell
[tb_dev] Currently allocated     1.03E+00 Mbytes, locked:    0 /   8
[tb_pin] Currently allocated     0.00E+00 Mbytes, locked:    0 /   0

     iteration # 32     ecut=    50.00 Ry     beta= 0.10
     Davidson diagonalization with overlap

---- Real-time Memory Report at c_bands before calling an iterative solver
          1103 MiB given to the printing process from OS
           907 MiB allocation reported by mallinfo(arena+hblkhd)
         58528 MiB available memory on the node where the printing process lives
     GPU memory used/free/total (MiB): 1088 / 15192 / 16280
------------------
     c_bands:  1 eigenvalues not converged
     ethr =  8.76E-07,  avg # of iterations =  2.7

     negative rho (up, down):  3.889E-04 2.468E-03

     total cpu time spent up to now is      150.0 secs

     total energy              =    -583.84126766 Ry
     estimated scf accuracy    <       0.00119205 Ry

     total magnetization       =     3.56 Bohr mag/cell
     absolute magnetization    =     3.68 Bohr mag/cell
[tb_dev] Currently allocated     1.03E+00 Mbytes, locked:    0 /   8
[tb_pin] Currently allocated     0.00E+00 Mbytes, locked:    0 /   0

     iteration # 33     ecut=    50.00 Ry     beta= 0.10
     Davidson diagonalization with overlap

---- Real-time Memory Report at c_bands before calling an iterative solver
          1103 MiB given to the printing process from OS
           907 MiB allocation reported by mallinfo(arena+hblkhd)
         58528 MiB available memory on the node where the printing process lives
     GPU memory used/free/total (MiB): 1088 / 15192 / 16280
------------------
     ethr =  8.76E-07,  avg # of iterations =  1.4

     negative rho (up, down):  3.185E-04 2.820E-03

     total cpu time spent up to now is      152.5 secs

     total energy              =    -583.83843949 Ry
     estimated scf accuracy    <       0.00101078 Ry

     total magnetization       =     3.56 Bohr mag/cell
     absolute magnetization    =     3.68 Bohr mag/cell
[tb_dev] Currently allocated     1.03E+00 Mbytes, locked:    0 /   8
[tb_pin] Currently allocated     0.00E+00 Mbytes, locked:    0 /   0

     iteration # 34     ecut=    50.00 Ry     beta= 0.10
     Davidson diagonalization with overlap

---- Real-time Memory Report at c_bands before calling an iterative solver
          1103 MiB given to the printing process from OS
           907 MiB allocation reported by mallinfo(arena+hblkhd)
         58528 MiB available memory on the node where the printing process lives
     GPU memory used/free/total (MiB): 1088 / 15192 / 16280
------------------
     ethr =  8.76E-07,  avg # of iterations =  4.7

     negative rho (up, down):  3.464E-04 2.653E-03

     total cpu time spent up to now is      156.9 secs

     total energy              =    -583.84022360 Ry
     estimated scf accuracy    <       0.00245844 Ry

     total magnetization       =     3.70 Bohr mag/cell
     absolute magnetization    =     3.82 Bohr mag/cell
[tb_dev] Currently allocated     1.03E+00 Mbytes, locked:    0 /   8
[tb_pin] Currently allocated     0.00E+00 Mbytes, locked:    0 /   0

     iteration # 35     ecut=    50.00 Ry     beta= 0.10
     Davidson diagonalization with overlap

---- Real-time Memory Report at c_bands before calling an iterative solver
          1103 MiB given to the printing process from OS
           907 MiB allocation reported by mallinfo(arena+hblkhd)
         58528 MiB available memory on the node where the printing process lives
     GPU memory used/free/total (MiB): 1088 / 15192 / 16280
------------------
     ethr =  8.76E-07,  avg # of iterations =  3.9

     negative rho (up, down):  4.599E-04 2.232E-03

     total cpu time spent up to now is      160.7 secs

     total energy              =    -583.84078154 Ry
     estimated scf accuracy    <       0.00229120 Ry

     total magnetization       =     3.63 Bohr mag/cell
     absolute magnetization    =     3.75 Bohr mag/cell
[tb_dev] Currently allocated     1.03E+00 Mbytes, locked:    0 /   8
[tb_pin] Currently allocated     0.00E+00 Mbytes, locked:    0 /   0

     iteration # 36     ecut=    50.00 Ry     beta= 0.10
     Davidson diagonalization with overlap

---- Real-time Memory Report at c_bands before calling an iterative solver
          1103 MiB given to the printing process from OS
           907 MiB allocation reported by mallinfo(arena+hblkhd)
         58528 MiB available memory on the node where the printing process lives
     GPU memory used/free/total (MiB): 1088 / 15192 / 16280
------------------
     c_bands:  1 eigenvalues not converged
     c_bands:  1 eigenvalues not converged
     c_bands:  1 eigenvalues not converged
     c_bands:  1 eigenvalues not converged
     ethr =  8.76E-07,  avg # of iterations =  9.5

     negative rho (up, down):  4.743E-04 2.198E-03

     total cpu time spent up to now is      168.0 secs

     total energy              =    -583.84314939 Ry
     estimated scf accuracy    <       0.00047868 Ry

     total magnetization       =     3.33 Bohr mag/cell
     absolute magnetization    =     3.45 Bohr mag/cell
[tb_dev] Currently allocated     1.03E+00 Mbytes, locked:    0 /   8
[tb_pin] Currently allocated     0.00E+00 Mbytes, locked:    0 /   0

     iteration # 37     ecut=    50.00 Ry     beta= 0.10
     Davidson diagonalization with overlap

---- Real-time Memory Report at c_bands before calling an iterative solver
          1103 MiB given to the printing process from OS
           907 MiB allocation reported by mallinfo(arena+hblkhd)
         58528 MiB available memory on the node where the printing process lives
     GPU memory used/free/total (MiB): 1088 / 15192 / 16280
------------------
     c_bands:  1 eigenvalues not converged
     ethr =  8.76E-07,  avg # of iterations =  1.9

     negative rho (up, down):  4.796E-04 2.195E-03

     total cpu time spent up to now is      170.9 secs

     total energy              =    -583.84324324 Ry
     estimated scf accuracy    <       0.00044810 Ry

     total magnetization       =     3.28 Bohr mag/cell
     absolute magnetization    =     3.40 Bohr mag/cell
[tb_dev] Currently allocated     1.03E+00 Mbytes, locked:    0 /   8
[tb_pin] Currently allocated     0.00E+00 Mbytes, locked:    0 /   0

     iteration # 38     ecut=    50.00 Ry     beta= 0.10
     Davidson diagonalization with overlap

---- Real-time Memory Report at c_bands before calling an iterative solver
          1103 MiB given to the printing process from OS
           907 MiB allocation reported by mallinfo(arena+hblkhd)
         58528 MiB available memory on the node where the printing process lives
     GPU memory used/free/total (MiB): 1088 / 15192 / 16280
------------------
     ethr =  8.62E-07,  avg # of iterations =  1.0

     negative rho (up, down):  4.965E-04 2.207E-03

     total cpu time spent up to now is      173.3 secs

     total energy              =    -583.84337203 Ry
     estimated scf accuracy    <       0.00043868 Ry

     total magnetization       =     3.26 Bohr mag/cell
     absolute magnetization    =     3.38 Bohr mag/cell
[tb_dev] Currently allocated     1.03E+00 Mbytes, locked:    0 /   8
[tb_pin] Currently allocated     0.00E+00 Mbytes, locked:    0 /   0

     iteration # 39     ecut=    50.00 Ry     beta= 0.10
     Davidson diagonalization with overlap

---- Real-time Memory Report at c_bands before calling an iterative solver
          1103 MiB given to the printing process from OS
           907 MiB allocation reported by mallinfo(arena+hblkhd)
         58529 MiB available memory on the node where the printing process lives
     GPU memory used/free/total (MiB): 1088 / 15192 / 16280
------------------
     ethr =  8.44E-07,  avg # of iterations =  3.3

     negative rho (up, down):  4.743E-04 2.238E-03

     total cpu time spent up to now is      176.7 secs

     total energy              =    -583.84313316 Ry
     estimated scf accuracy    <       0.00018056 Ry

     total magnetization       =     3.20 Bohr mag/cell
     absolute magnetization    =     3.32 Bohr mag/cell
[tb_dev] Currently allocated     1.03E+00 Mbytes, locked:    0 /   8
[tb_pin] Currently allocated     0.00E+00 Mbytes, locked:    0 /   0

     iteration # 40     ecut=    50.00 Ry     beta= 0.10
     Davidson diagonalization with overlap

---- Real-time Memory Report at c_bands before calling an iterative solver
          1103 MiB given to the printing process from OS
           907 MiB allocation reported by mallinfo(arena+hblkhd)
         58528 MiB available memory on the node where the printing process lives
     GPU memory used/free/total (MiB): 1088 / 15192 / 16280
------------------
     ethr =  3.47E-07,  avg # of iterations =  2.3

     negative rho (up, down):  4.553E-04 2.217E-03

     total cpu time spent up to now is      179.6 secs

     total energy              =    -583.84279129 Ry
     estimated scf accuracy    <       0.00024873 Ry

     total magnetization       =     3.29 Bohr mag/cell
     absolute magnetization    =     3.40 Bohr mag/cell
[tb_dev] Currently allocated     1.03E+00 Mbytes, locked:    0 /   8
[tb_pin] Currently allocated     0.00E+00 Mbytes, locked:    0 /   0

     iteration # 41     ecut=    50.00 Ry     beta= 0.10
     Davidson diagonalization with overlap

---- Real-time Memory Report at c_bands before calling an iterative solver
          1103 MiB given to the printing process from OS
           907 MiB allocation reported by mallinfo(arena+hblkhd)
         58529 MiB available memory on the node where the printing process lives
     GPU memory used/free/total (MiB): 1088 / 15192 / 16280
------------------
     ethr =  3.47E-07,  avg # of iterations =  3.6

     negative rho (up, down):  4.609E-04 2.170E-03

     total cpu time spent up to now is      183.3 secs

     total energy              =    -583.84292621 Ry
     estimated scf accuracy    <       0.00039029 Ry

     total magnetization       =     3.36 Bohr mag/cell
     absolute magnetization    =     3.48 Bohr mag/cell
[tb_dev] Currently allocated     1.03E+00 Mbytes, locked:    0 /   8
[tb_pin] Currently allocated     0.00E+00 Mbytes, locked:    0 /   0

     iteration # 42     ecut=    50.00 Ry     beta= 0.10
     Davidson diagonalization with overlap

---- Real-time Memory Report at c_bands before calling an iterative solver
          1103 MiB given to the printing process from OS
           907 MiB allocation reported by mallinfo(arena+hblkhd)
         58528 MiB available memory on the node where the printing process lives
     GPU memory used/free/total (MiB): 1088 / 15192 / 16280
------------------
     ethr =  3.47E-07,  avg # of iterations =  1.0

     negative rho (up, down):  5.700E-04 2.266E-03

     total cpu time spent up to now is      185.9 secs

     total energy              =    -583.84159443 Ry
     estimated scf accuracy    <       0.00042583 Ry

     total magnetization       =     3.34 Bohr mag/cell
     absolute magnetization    =     3.46 Bohr mag/cell
[tb_dev] Currently allocated     1.03E+00 Mbytes, locked:    0 /   8
[tb_pin] Currently allocated     0.00E+00 Mbytes, locked:    0 /   0

     iteration # 43     ecut=    50.00 Ry     beta= 0.10
     Davidson diagonalization with overlap

---- Real-time Memory Report at c_bands before calling an iterative solver
          1103 MiB given to the printing process from OS
           907 MiB allocation reported by mallinfo(arena+hblkhd)
         58528 MiB available memory on the node where the printing process lives
     GPU memory used/free/total (MiB): 1088 / 15192 / 16280
------------------
     ethr =  3.47E-07,  avg # of iterations =  8.4

     negative rho (up, down):  4.695E-04 2.257E-03

     total cpu time spent up to now is      192.7 secs

     total energy              =    -583.84080104 Ry
     estimated scf accuracy    <       0.00038730 Ry

     total magnetization       =     2.85 Bohr mag/cell
     absolute magnetization    =     3.01 Bohr mag/cell
[tb_dev] Currently allocated     1.03E+00 Mbytes, locked:    0 /   8
[tb_pin] Currently allocated     0.00E+00 Mbytes, locked:    0 /   0

     iteration # 44     ecut=    50.00 Ry     beta= 0.10
     Davidson diagonalization with overlap

---- Real-time Memory Report at c_bands before calling an iterative solver
          1103 MiB given to the printing process from OS
           907 MiB allocation reported by mallinfo(arena+hblkhd)
         58528 MiB available memory on the node where the printing process lives
     GPU memory used/free/total (MiB): 1088 / 15192 / 16280
------------------
     ethr =  3.47E-07,  avg # of iterations =  7.2

     negative rho (up, down):  4.361E-04 2.231E-03

     total cpu time spent up to now is      198.7 secs

     total energy              =    -583.84253074 Ry
     estimated scf accuracy    <       0.00025433 Ry

     total magnetization       =     3.30 Bohr mag/cell
     absolute magnetization    =     3.43 Bohr mag/cell
[tb_dev] Currently allocated     1.03E+00 Mbytes, locked:    0 /   8
[tb_pin] Currently allocated     0.00E+00 Mbytes, locked:    0 /   0

     iteration # 45     ecut=    50.00 Ry     beta= 0.10
     Davidson diagonalization with overlap

---- Real-time Memory Report at c_bands before calling an iterative solver
          1103 MiB given to the printing process from OS
           907 MiB allocation reported by mallinfo(arena+hblkhd)
         58528 MiB available memory on the node where the printing process lives
     GPU memory used/free/total (MiB): 1088 / 15192 / 16280
------------------
     ethr =  3.47E-07,  avg # of iterations =  5.4

     negative rho (up, down):  4.646E-04 2.220E-03

     total cpu time spent up to now is      203.4 secs

     total energy              =    -583.84298259 Ry
     estimated scf accuracy    <       0.00038157 Ry

     total magnetization       =     3.39 Bohr mag/cell
     absolute magnetization    =     3.51 Bohr mag/cell
[tb_dev] Currently allocated     1.03E+00 Mbytes, locked:    0 /   8
[tb_pin] Currently allocated     0.00E+00 Mbytes, locked:    0 /   0

     iteration # 46     ecut=    50.00 Ry     beta= 0.10
     Davidson diagonalization with overlap

---- Real-time Memory Report at c_bands before calling an iterative solver
          1103 MiB given to the printing process from OS
           907 MiB allocation reported by mallinfo(arena+hblkhd)
         58528 MiB available memory on the node where the printing process lives
     GPU memory used/free/total (MiB): 1088 / 15192 / 16280
------------------
     ethr =  3.47E-07,  avg # of iterations =  4.4

     negative rho (up, down):  6.460E-04 2.275E-03

     total cpu time spent up to now is      207.5 secs

     total energy              =    -583.83839467 Ry
     estimated scf accuracy    <       0.00020739 Ry

     total magnetization       =     3.28 Bohr mag/cell
     absolute magnetization    =     3.40 Bohr mag/cell
[tb_dev] Currently allocated     1.03E+00 Mbytes, locked:    0 /   8
[tb_pin] Currently allocated     0.00E+00 Mbytes, locked:    0 /   0

     iteration # 47     ecut=    50.00 Ry     beta= 0.10
     Davidson diagonalization with overlap

---- Real-time Memory Report at c_bands before calling an iterative solver
          1103 MiB given to the printing process from OS
           907 MiB allocation reported by mallinfo(arena+hblkhd)
         58528 MiB available memory on the node where the printing process lives
     GPU memory used/free/total (MiB): 1088 / 15192 / 16280
------------------
     c_bands:  2 eigenvalues not converged
     c_bands:  1 eigenvalues not converged
     c_bands:  2 eigenvalues not converged
     c_bands:  1 eigenvalues not converged
     ethr =  3.47E-07,  avg # of iterations = 10.2

     negative rho (up, down):  5.929E-04 2.264E-03

     total cpu time spent up to now is      215.2 secs

     total energy              =    -583.84377469 Ry
     estimated scf accuracy    <       0.00145491 Ry

     total magnetization       =     2.30 Bohr mag/cell
     absolute magnetization    =     2.67 Bohr mag/cell
[tb_dev] Currently allocated     1.03E+00 Mbytes, locked:    0 /   8
[tb_pin] Currently allocated     0.00E+00 Mbytes, locked:    0 /   0

     iteration # 48     ecut=    50.00 Ry     beta= 0.10
     Davidson diagonalization with overlap

---- Real-time Memory Report at c_bands before calling an iterative solver
          1103 MiB given to the printing process from OS
           907 MiB allocation reported by mallinfo(arena+hblkhd)
         58529 MiB available memory on the node where the printing process lives
     GPU memory used/free/total (MiB): 1088 / 15192 / 16280
------------------
     ethr =  3.47E-07,  avg # of iterations =  5.4

     negative rho (up, down):  4.097E-04 2.468E-03

     total cpu time spent up to now is      220.0 secs

     total energy              =    -583.83215944 Ry
     estimated scf accuracy    <       0.00058067 Ry

     total magnetization       =     2.68 Bohr mag/cell
     absolute magnetization    =     2.88 Bohr mag/cell
[tb_dev] Currently allocated     1.03E+00 Mbytes, locked:    0 /   8
[tb_pin] Currently allocated     0.00E+00 Mbytes, locked:    0 /   0

[...]

     negative rho (up, down):  4.344E-04 2.255E-03

     total cpu time spent up to now is      310.2 secs

     total energy              =    -583.84202150 Ry
     estimated scf accuracy    <       0.00047233 Ry

     total magnetization       =     3.26 Bohr mag/cell
     absolute magnetization    =     3.39 Bohr mag/cell
[tb_dev] Currently allocated     1.03E+00 Mbytes, locked:    0 /   8
[tb_pin] Currently allocated     0.00E+00 Mbytes, locked:    0 /   0

     iteration # 67     ecut=    50.00 Ry     beta= 0.10
     Davidson diagonalization with overlap

---- Real-time Memory Report at c_bands before calling an iterative solver
          1103 MiB given to the printing process from OS
           907 MiB allocation reported by mallinfo(arena+hblkhd)
         58528 MiB available memory on the node where the printing process lives
     GPU memory used/free/total (MiB): 1088 / 15192 / 16280
------------------
     ethr =  3.47E-07,  avg # of iterations =  6.2

     negative rho (up, down):  3.723E-04 2.559E-03

     total cpu time spent up to now is      315.4 secs

     total energy              =    -583.84027282 Ry
     estimated scf accuracy    <       0.00081918 Ry

     total magnetization       =     3.42 Bohr mag/cell
     absolute magnetization    =     3.54 Bohr mag/cell
[tb_dev] Currently allocated     1.03E+00 Mbytes, locked:    0 /   8
[tb_pin] Currently allocated     0.00E+00 Mbytes, locked:    0 /   0

     iteration # 68     ecut=    50.00 Ry     beta= 0.10
     Davidson diagonalization with overlap

---- Real-time Memory Report at c_bands before calling an iterative solver
          1103 MiB given to the printing process from OS
           907 MiB allocation reported by mallinfo(arena+hblkhd)
         58528 MiB available memory on the node where the printing process lives
     GPU memory used/free/total (MiB): 1088 / 15192 / 16280
------------------
     ethr =  3.47E-07,  avg # of iterations =  7.1

     negative rho (up, down):  3.636E-04 2.572E-03

     total cpu time spent up to now is      321.3 secs

     total energy              =    -583.84073459 Ry
     estimated scf accuracy    <       0.00184606 Ry

     total magnetization       =     3.58 Bohr mag/cell
     absolute magnetization    =     3.70 Bohr mag/cell
[tb_dev] Currently allocated     1.03E+00 Mbytes, locked:    0 /   8
[tb_pin] Currently allocated     0.00E+00 Mbytes, locked:    0 /   0

     iteration # 69     ecut=    50.00 Ry     beta= 0.10
     Davidson diagonalization with overlap

---- Real-time Memory Report at c_bands before calling an iterative solver
          1103 MiB given to the printing process from OS
           907 MiB allocation reported by mallinfo(arena+hblkhd)
         58528 MiB available memory on the node where the printing process lives
     GPU memory used/free/total (MiB): 1088 / 15192 / 16280
------------------
     ethr =  3.47E-07,  avg # of iterations =  1.7

     negative rho (up, down):  3.448E-04 2.670E-03

     total cpu time spent up to now is      324.1 secs

     total energy              =    -583.84003999 Ry
     estimated scf accuracy    <       0.00191034 Ry

     total magnetization       =     3.60 Bohr mag/cell
     absolute magnetization    =     3.72 Bohr mag/cell
[tb_dev] Currently allocated     1.03E+00 Mbytes, locked:    0 /   8
[tb_pin] Currently allocated     0.00E+00 Mbytes, locked:    0 /   0

     iteration # 70     ecut=    50.00 Ry     beta= 0.10
     Davidson diagonalization with overlap

---- Real-time Memory Report at c_bands before calling an iterative solver
          1103 MiB given to the printing process from OS
           907 MiB allocation reported by mallinfo(arena+hblkhd)
         58526 MiB available memory on the node where the printing process lives
     GPU memory used/free/total (MiB): 1088 / 15192 / 16280
------------------
     c_bands:  1 eigenvalues not converged
     ethr =  3.47E-07,  avg # of iterations =  4.3

     negative rho (up, down):  3.625E-04 2.597E-03

     total cpu time spent up to now is      328.3 secs

     total energy              =    -583.84063990 Ry
     estimated scf accuracy    <       0.00237096 Ry

     total magnetization       =     3.64 Bohr mag/cell
     absolute magnetization    =     3.76 Bohr mag/cell
[tb_dev] Currently allocated     1.03E+00 Mbytes, locked:    0 /   8
[tb_pin] Currently allocated     0.00E+00 Mbytes, locked:    0 /   0

     iteration # 71     ecut=    50.00 Ry     beta= 0.10
     Davidson diagonalization with overlap

---- Real-time Memory Report at c_bands before calling an iterative solver
          1103 MiB given to the printing process from OS
           907 MiB allocation reported by mallinfo(arena+hblkhd)
         58527 MiB available memory on the node where the printing process lives
     GPU memory used/free/total (MiB): 1088 / 15192 / 16280
------------------
     ethr =  3.47E-07,  avg # of iterations =  2.3

     negative rho (up, down):  3.124E-04 2.845E-03

     total cpu time spent up to now is      331.3 secs

     total energy              =    -583.83806488 Ry
     estimated scf accuracy    <       0.00205468 Ry

     total magnetization       =     3.60 Bohr mag/cell
     absolute magnetization    =     3.72 Bohr mag/cell
[tb_dev] Currently allocated     1.03E+00 Mbytes, locked:    0 /   8
[tb_pin] Currently allocated     0.00E+00 Mbytes, locked:    0 /   0

     iteration # 72     ecut=    50.00 Ry     beta= 0.10
     Davidson diagonalization with overlap

---- Real-time Memory Report at c_bands before calling an iterative solver
          1103 MiB given to the printing process from OS
           907 MiB allocation reported by mallinfo(arena+hblkhd)
         58527 MiB available memory on the node where the printing process lives
     GPU memory used/free/total (MiB): 1088 / 15192 / 16280
------------------
     ethr =  3.47E-07,  avg # of iterations =  6.4

     negative rho (up, down):  3.997E-04 2.420E-03

     total cpu time spent up to now is      336.7 secs

     total energy              =    -583.84024396 Ry
     estimated scf accuracy    <       0.00329951 Ry

     total magnetization       =     3.71 Bohr mag/cell
     absolute magnetization    =     3.83 Bohr mag/cell
[tb_dev] Currently allocated     1.03E+00 Mbytes, locked:    0 /   8
[tb_pin] Currently allocated     0.00E+00 Mbytes, locked:    0 /   0

     iteration # 73     ecut=    50.00 Ry     beta= 0.10
     Davidson diagonalization with overlap

---- Real-time Memory Report at c_bands before calling an iterative solver
          1103 MiB given to the printing process from OS
           907 MiB allocation reported by mallinfo(arena+hblkhd)
         58528 MiB available memory on the node where the printing process lives
     GPU memory used/free/total (MiB): 1088 / 15192 / 16280
------------------
     c_bands:  1 eigenvalues not converged
     ethr =  3.47E-07,  avg # of iterations =  6.9

     negative rho (up, down):  3.588E-04 2.649E-03

     total cpu time spent up to now is      342.6 secs

     total energy              =    -583.84005596 Ry
     estimated scf accuracy    <       0.00123121 Ry

     total magnetization       =     3.52 Bohr mag/cell
     absolute magnetization    =     3.64 Bohr mag/cell
[tb_dev] Currently allocated     1.03E+00 Mbytes, locked:    0 /   8
[tb_pin] Currently allocated     0.00E+00 Mbytes, locked:    0 /   0

     iteration # 74     ecut=    50.00 Ry     beta= 0.10
     Davidson diagonalization with overlap

---- Real-time Memory Report at c_bands before calling an iterative solver
          1103 MiB given to the printing process from OS
           907 MiB allocation reported by mallinfo(arena+hblkhd)
         58528 MiB available memory on the node where the printing process lives
     GPU memory used/free/total (MiB): 1088 / 15192 / 16280
------------------
     ethr =  3.47E-07,  avg # of iterations =  5.3

     negative rho (up, down):  5.233E-04 2.288E-03

     total cpu time spent up to now is      347.3 secs

     total energy              =    -583.83857693 Ry
     estimated scf accuracy    <       0.00219274 Ry

     total magnetization       =     3.62 Bohr mag/cell
     absolute magnetization    =     3.74 Bohr mag/cell
[tb_dev] Currently allocated     1.03E+00 Mbytes, locked:    0 /   8
[tb_pin] Currently allocated     0.00E+00 Mbytes, locked:    0 /   0

     iteration # 75     ecut=    50.00 Ry     beta= 0.10
     Davidson diagonalization with overlap

---- Real-time Memory Report at c_bands before calling an iterative solver
          1103 MiB given to the printing process from OS
           907 MiB allocation reported by mallinfo(arena+hblkhd)
         58528 MiB available memory on the node where the printing process lives
     GPU memory used/free/total (MiB): 1088 / 15192 / 16280
------------------
     c_bands:  1 eigenvalues not converged
     c_bands:  1 eigenvalues not converged
     c_bands:  1 eigenvalues not converged
     c_bands:  1 eigenvalues not converged
     c_bands:  1 eigenvalues not converged
     c_bands:  1 eigenvalues not converged
     c_bands:  1 eigenvalues not converged
     c_bands:  1 eigenvalues not converged
     c_bands:  1 eigenvalues not converged
     c_bands:  1 eigenvalues not converged
     ethr =  3.47E-07,  avg # of iterations = 10.2

     negative rho (up, down):  5.285E-04 2.292E-03

     total cpu time spent up to now is      355.1 secs

     total energy              =    -583.84373479 Ry
     estimated scf accuracy    <       0.00040307 Ry

     total magnetization       =     3.11 Bohr mag/cell
     absolute magnetization    =     3.24 Bohr mag/cell
[tb_dev] Currently allocated     1.03E+00 Mbytes, locked:    0 /   8
[tb_pin] Currently allocated     0.00E+00 Mbytes, locked:    0 /   0

     iteration # 76     ecut=    50.00 Ry     beta= 0.10
     Davidson diagonalization with overlap

---- Real-time Memory Report at c_bands before calling an iterative solver
          1103 MiB given to the printing process from OS
           907 MiB allocation reported by mallinfo(arena+hblkhd)
         58528 MiB available memory on the node where the printing process lives
     GPU memory used/free/total (MiB): 1088 / 15192 / 16280
------------------
     ethr =  3.47E-07,  avg # of iterations =  1.3

     negative rho (up, down):  5.404E-04 2.275E-03

     total cpu time spent up to now is      357.5 secs

     total energy              =    -583.84385638 Ry
     estimated scf accuracy    <       0.00043199 Ry

     total magnetization       =     3.09 Bohr mag/cell
     absolute magnetization    =     3.22 Bohr mag/cell
[tb_dev] Currently allocated     1.03E+00 Mbytes, locked:    0 /   8
[tb_pin] Currently allocated     0.00E+00 Mbytes, locked:    0 /   0

     iteration # 77     ecut=    50.00 Ry     beta= 0.10
     Davidson diagonalization with overlap

---- Real-time Memory Report at c_bands before calling an iterative solver
          1103 MiB given to the printing process from OS
           907 MiB allocation reported by mallinfo(arena+hblkhd)
         58528 MiB available memory on the node where the printing process lives
     GPU memory used/free/total (MiB): 1088 / 15192 / 16280
------------------
     ethr =  3.47E-07,  avg # of iterations =  3.7

     negative rho (up, down):  6.519E-04 2.268E-03

     total cpu time spent up to now is      361.1 secs

     total energy              =    -583.84235079 Ry
     estimated scf accuracy    <       0.00041713 Ry

     total magnetization       =     3.02 Bohr mag/cell
     absolute magnetization    =     3.16 Bohr mag/cell
[tb_dev] Currently allocated     1.03E+00 Mbytes, locked:    0 /   8
[tb_pin] Currently allocated     0.00E+00 Mbytes, locked:    0 /   0

     iteration # 78     ecut=    50.00 Ry     beta= 0.10
     Davidson diagonalization with overlap

---- Real-time Memory Report at c_bands before calling an iterative solver
          1103 MiB given to the printing process from OS
           907 MiB allocation reported by mallinfo(arena+hblkhd)
         58528 MiB available memory on the node where the printing process lives
     GPU memory used/free/total (MiB): 1088 / 15192 / 16280
------------------
     c_bands:  1 eigenvalues not converged
     c_bands:  1 eigenvalues not converged
     c_bands:  1 eigenvalues not converged
     c_bands:  1 eigenvalues not converged
     ethr =  3.47E-07,  avg # of iterations =  9.1

     negative rho (up, down):  9.650E-04 2.381E-03

     total cpu time spent up to now is      368.1 secs

     total energy              =    -583.83224254 Ry
     estimated scf accuracy    <       0.00192552 Ry

     total magnetization       =     2.30 Bohr mag/cell
     absolute magnetization    =     2.68 Bohr mag/cell
[tb_dev] Currently allocated     1.03E+00 Mbytes, locked:    0 /   8
[tb_pin] Currently allocated     0.00E+00 Mbytes, locked:    0 /   0

     iteration # 79     ecut=    50.00 Ry     beta= 0.10
     Davidson diagonalization with overlap

---- Real-time Memory Report at c_bands before calling an iterative solver
          1103 MiB given to the printing process from OS
           907 MiB allocation reported by mallinfo(arena+hblkhd)
         58528 MiB available memory on the node where the printing process lives
     GPU memory used/free/total (MiB): 1088 / 15192 / 16280
------------------
     c_bands:  2 eigenvalues not converged
     c_bands:  1 eigenvalues not converged
     c_bands:  1 eigenvalues not converged
     c_bands:  1 eigenvalues not converged
     c_bands:  1 eigenvalues not converged
     c_bands:  1 eigenvalues not converged
     c_bands:  1 eigenvalues not converged
     c_bands:  1 eigenvalues not converged
     c_bands:  1 eigenvalues not converged
     c_bands:  1 eigenvalues not converged
     c_bands:  1 eigenvalues not converged
     c_bands:  1 eigenvalues not converged
     c_bands:  1 eigenvalues not converged
     c_bands:  1 eigenvalues not converged
     c_bands:  1 eigenvalues not converged
     ethr =  3.47E-07,  avg # of iterations = 12.5

     negative rho (up, down):  9.158E-04 2.419E-03

     total cpu time spent up to now is      377.4 secs

     total energy              =    -583.86118303 Ry
     estimated scf accuracy    <       0.01928616 Ry

     total magnetization       =     0.37 Bohr mag/cell
     absolute magnetization    =     4.26 Bohr mag/cell
[tb_dev] Currently allocated     1.03E+00 Mbytes, locked:    0 /   8
[tb_pin] Currently allocated     0.00E+00 Mbytes, locked:    0 /   0

     iteration # 80     ecut=    50.00 Ry     beta= 0.10
     Davidson diagonalization with overlap

---- Real-time Memory Report at c_bands before calling an iterative solver
          1103 MiB given to the printing process from OS
           907 MiB allocation reported by mallinfo(arena+hblkhd)
         58529 MiB available memory on the node where the printing process lives
     GPU memory used/free/total (MiB): 1088 / 15192 / 16280
------------------
     ethr =  3.47E-07,  avg # of iterations =  5.4

     negative rho (up, down):  9.421E-04 2.417E-03

     total cpu time spent up to now is      382.1 secs

     total energy              =    -583.86428637 Ry
     estimated scf accuracy    <       0.01116949 Ry

     total magnetization       =     0.61 Bohr mag/cell
     absolute magnetization    =     3.93 Bohr mag/cell

     End of self-consistent calculation

     convergence NOT achieved after  80 iterations: stopping

     Writing config to output data dir ./out/aiida.save/
 
     init_run     :     10.05s CPU      2.40s WALL (       1 calls)
     electrons    :    501.65s CPU    378.53s WALL (       1 calls)

     Called by init_run:
     wfcinit      :      0.24s CPU      0.24s WALL (       1 calls)
                                        0.24s GPU  (       1 calls)
     potinit      :      0.25s CPU      0.06s WALL (       1 calls)
     hinit0       :      7.31s CPU      1.52s WALL (       1 calls)

     Called by electrons:
     c_bands      :    418.79s CPU    337.56s WALL (      80 calls)
     sum_band     :     30.31s CPU     35.99s WALL (      80 calls)
     v_of_rho     :      9.11s CPU      0.84s WALL (      81 calls)
     v_h          :      1.46s CPU      0.13s WALL (      81 calls)
     v_xc         :      7.64s CPU      0.70s WALL (      81 calls)
     newd         :     27.65s CPU      2.88s WALL (      81 calls)
                                        2.88s GPU  (      81 calls)
     mix_rho      :     10.86s CPU      1.06s WALL (      80 calls)

     Called by c_bands:
     init_us_2    :     31.01s CPU     26.64s WALL (   23040 calls)
     init_us_2:gp :     30.51s CPU     26.24s WALL (   23040 calls)
     cegterg      :    372.60s CPU    302.44s WALL (   11520 calls)

     Called by sum_band:
     sum_band:wei :      0.36s CPU      0.37s WALL (      80 calls)
                                        0.37s GPU  (      80 calls)
     sum_band:loo :     26.27s CPU     31.60s WALL (      80 calls)
                                       31.60s GPU  (      80 calls)
     sum_band:buf :      3.76s CPU      4.48s WALL (   11520 calls)
                                        4.42s GPU  (   11520 calls)
     sum_band:ini :     10.18s CPU     12.85s WALL (   11520 calls)
                                       12.79s GPU  (   11520 calls)
     sum_band:cal :      0.35s CPU      0.83s WALL (   11520 calls)
                                        0.75s GPU  (   11520 calls)
     sum_band:bec :      2.16s CPU      2.66s WALL (   11520 calls)
                                        2.58s GPU  (   11520 calls)
     addusdens    :      3.10s CPU      3.41s WALL (      80 calls)
                                        3.41s GPU  (      80 calls)
     addusd:skk   :      0.01s CPU      0.02s WALL (     320 calls)
                                        0.01s GPU  (     320 calls)

     Called by *egterg:
     cdiaghg      :    198.09s CPU    167.45s WALL (   70214 calls)
                                      166.98s GPU  (   70214 calls)
     cegterg:over :      8.53s CPU      7.14s WALL (   58838 calls)
     cegterg:upda :     17.60s CPU     14.24s WALL (   58838 calls)
     cegterg:last :      3.24s CPU      2.69s WALL (   27662 calls)
     h_psi        :    110.85s CPU     85.23s WALL (   70358 calls)
                                       84.85s GPU  (   70358 calls)
     s_psi        :      7.46s CPU      8.41s WALL (   70358 calls)
                                        7.89s GPU  (   70358 calls)
     g_psi        :      0.53s CPU      1.22s WALL (   58838 calls)
                                        0.85s GPU  (   58838 calls)

     Called by h_psi:
     h_psi:calbec :      2.93s CPU      5.74s WALL (   70358 calls)
                                        5.31s GPU  (   70358 calls)
     vloc_psi     :     86.17s CPU     65.79s WALL (   70358 calls)
                                       65.38s GPU  (   70358 calls)
     add_vuspsi   :      9.68s CPU      9.37s WALL (   70358 calls)
                                        8.95s GPU  (   70358 calls)

     General routines
     calbec       :      2.47s CPU      2.04s WALL (   81878 calls)
     fft          :      3.77s CPU      0.42s WALL (    2023 calls)
                                        0.24s GPU  (    1861 calls)
     ffts         :      1.20s CPU      0.12s WALL (     322 calls)
                                        0.01s GPU  (     160 calls)
     fftw         :      5.65s CPU     41.10s WALL (  216352 calls)
                                       39.91s GPU  (  216352 calls)
     interpolate  :      4.05s CPU      0.37s WALL (     162 calls)
     davcio       :      1.03s CPU      0.37s WALL (     306 calls)
 
     Parallel routines
 
     PWSCF        :   8m35.95s CPU   6m22.46s WALL

 
   This run was terminated on:  18:19:40  23Oct2023            

=------------------------------------------------------------------------------=
   JOB DONE.
=------------------------------------------------------------------------------=
