
     Program PWSCF v.7.2 starts on 23Oct2023 at 19:50:46 

     This program is part of the open-source Quantum ESPRESSO suite
     for quantum simulation of materials; please cite
         "P. Giannozzi et al., J. Phys.:Condens. Matter 21 395502 (2009);
         "P. Giannozzi et al., J. Phys.:Condens. Matter 29 465901 (2017);
         "P. Giannozzi et al., J. Chem. Phys. 152 154105 (2020);
          URL http://www.quantum-espresso.org", 
     in publications or presentations arising from this work. More details at
     http://www.quantum-espresso.org/quote

     Parallel version (MPI & OpenMP), running on      12 processor cores
     Number of MPI processes:                 1
     Threads/MPI process:                    12

     MPI processes distributed on     1 nodes
     53030 MiB available memory on the printing compute node when the environment starts
 
     Reading input from aiida.in

     Current dimensions of program PWSCF are:
     Max number of different atomic species (ntypx) = 10
     Max number of k-points (npk) =  40000
     Max angular momentum in pseudopotentials (lmaxx) =  4
     file Al.pbesol-n-kjpaw_psl.1.0.0.UPF: wavefunction(s)  3S 3P renormalized
     file Fe.pbesol-spn-kjpaw_psl.0.2.1.UPF: wavefunction(s)  3D renormalized
     Message from routine setup:
     using ibrav=0 with symmetry is DISCOURAGED, use correct ibrav instead
 
     Subspace diagonalization in iterative solution of the eigenvalue problem:
     a serial algorithm will be used

 
     G-vector sticks info
     --------------------
     sticks:   dense  smooth     PW     G-vecs:    dense   smooth      PW
     Sum        4255    1417    421               182543    35053    5577
 
     Using Slab Decomposition
 


     bravais-lattice index     =            0
     lattice parameter (alat)  =       7.5497  a.u.
     unit-cell volume          =     304.2860 (a.u.)^3
     number of atoms/cell      =            4
     number of atomic types    =            3
     number of electrons       =        50.00
     number of Kohn-Sham states=           30
     kinetic-energy cutoff     =      90.0000  Ry
     charge density cutoff     =    1080.0000  Ry
     scf convergence threshold =      8.0E-10
     mixing beta               =       0.1000
     number of iterations used =            8  plain     mixing
     Exchange-correlation= SLA  PW   PSX  PSC
                           (   1   4  10   8   0   0   0)

     GPU acceleration is ACTIVE.


     GPU used by master process:

        Device Number: 0
        Device name: Tesla P100-PCIE-16GB
        Compute capability : 60
        Ratio of single to double precision performance  : 2
        Memory Clock Rate (KHz): 715000
        Memory Bus Width (bits): 4096
        Peak Memory Bandwidth (GB/s): 732.16

     celldm(1)=   7.549746  celldm(2)=   0.000000  celldm(3)=   0.000000
     celldm(4)=   0.000000  celldm(5)=   0.000000  celldm(6)=   0.000000

     crystal axes: (cart. coord. in units of alat)
               a(1) = (   0.000000   0.707107   0.707107 )  
               a(2) = (   0.707107   0.000000   0.707107 )  
               a(3) = (   0.707107   0.707107   0.000000 )  

     reciprocal axes: (cart. coord. in units 2 pi/alat)
               b(1) = ( -0.707107  0.707107  0.707107 )  
               b(2) = (  0.707107 -0.707107  0.707107 )  
               b(3) = (  0.707107  0.707107 -0.707107 )  


     PseudoPot. # 1 for Al read from file:
     ./pseudo/Al.pbesol-n-kjpaw_psl.1.0.0.UPF
     MD5 check sum: 3401bcfaaf5f9b08e46a00870a1ef39d
     Pseudo is Projector augmented-wave + core cor, Zval =  3.0
     Generated using "atomic" code by A. Dal Corso  v.6.0 svn rev. 13079
     Shape of augmentation charge: PSQ
     Using radial grid of 1135 points,  6 beta functions with: 
                l(1) =   0
                l(2) =   0
                l(3) =   1
                l(4) =   1
                l(5) =   2
                l(6) =   2
     Q(r) pseudized with 0 coefficients 


     PseudoPot. # 2 for Fe read from file:
     ./pseudo/Fe.pbesol-spn-kjpaw_psl.0.2.1.UPF
     MD5 check sum: 4d7ec5aa2156491519a4322664fbbf52
     Pseudo is Projector augmented-wave + core cor, Zval = 16.0
     Generated using "atomic" code by A. Dal Corso  v.6.0 svn rev. 13079
     Shape of augmentation charge: PSQ
     Using radial grid of 1191 points,  6 beta functions with: 
                l(1) =   0
                l(2) =   0
                l(3) =   1
                l(4) =   1
                l(5) =   2
                l(6) =   2
     Q(r) pseudized with 0 coefficients 


     PseudoPot. # 3 for Mn read from file:
     ./pseudo/mn_pbesol_v1.5.uspp.F.UPF
     MD5 check sum: 0716d5f563e6e95a34f9080f4c78c109
     Pseudo is Ultrasoft + core correction, Zval = 15.0
     Generated by new atomic code, or converted to UPF format
     Using radial grid of  859 points,  6 beta functions with: 
                l(1) =   0
                l(2) =   0
                l(3) =   1
                l(4) =   1
                l(5) =   2
                l(6) =   2
     Q(r) pseudized with  8 coefficients,  rinner =    0.950   0.950   0.950
                                                       0.950   0.950

     atomic species   valence    mass     pseudopotential
        Al             3.00    26.98154     Al( 1.00)
        Fe            16.00    55.84500     Fe( 1.00)
        Mn            15.00    54.93805     Mn( 1.00)

     Starting magnetic structure 
     atomic species   magnetization
        Al           0.100
        Fe           0.313
        Mn           0.333

     24 Sym. Ops. (no inversion) found


                                    s                        frac. trans.

      isym =  1     identity                                     

 cryst.   s( 1) = (     1          0          0      )
                  (     0          1          0      )
                  (     0          0          1      )

 cart.    s( 1) = (  1.0000000 -0.0000000  0.0000000 )
                  ( -0.0000000  1.0000000  0.0000000 )
                  ( -0.0000000  0.0000000  1.0000000 )


      isym =  2     180 deg rotation - cart. axis [0,0,1]        

 cryst.   s( 2) = (     0          1         -1      )
                  (     1          0         -1      )
                  (     0          0         -1      )

 cart.    s( 2) = ( -1.0000000  0.0000000  0.0000000 )
                  (  0.0000000 -1.0000000  0.0000000 )
                  (  0.0000000 -0.0000000  1.0000000 )


      isym =  3     180 deg rotation - cart. axis [0,1,0]        

 cryst.   s( 3) = (     0         -1          1      )
                  (     0         -1          0      )
                  (     1         -1          0      )

 cart.    s( 3) = ( -1.0000000 -0.0000000 -0.0000000 )
                  (  0.0000000  1.0000000 -0.0000000 )
                  (  0.0000000  0.0000000 -1.0000000 )


      isym =  4     180 deg rotation - cart. axis [1,0,0]        

 cryst.   s( 4) = (    -1          0          0      )
                  (    -1          0          1      )
                  (    -1          1          0      )

 cart.    s( 4) = (  1.0000000  0.0000000 -0.0000000 )
                  ( -0.0000000 -1.0000000 -0.0000000 )
                  ( -0.0000000 -0.0000000 -1.0000000 )


      isym =  5     120 deg rotation - cart. axis [-1,-1,-1]     

 cryst.   s( 5) = (     0          0          1      )
                  (     1          0          0      )
                  (     0          1          0      )

 cart.    s( 5) = (  0.0000000  1.0000000 -0.0000000 )
                  (  0.0000000 -0.0000000  1.0000000 )
                  (  1.0000000 -0.0000000  0.0000000 )


      isym =  6     120 deg rotation - cart. axis [-1,1,1]       

 cryst.   s( 6) = (     1         -1          0      )
                  (     0         -1          1      )
                  (     0         -1          0      )

 cart.    s( 6) = ( -0.0000000 -1.0000000 -0.0000000 )
                  ( -0.0000000  0.0000000  1.0000000 )
                  ( -1.0000000  0.0000000  0.0000000 )


      isym =  7     120 deg rotation - cart. axis [1,1,-1]       

 cryst.   s( 7) = (    -1          1          0      )
                  (    -1          0          0      )
                  (    -1          0          1      )

 cart.    s( 7) = ( -0.0000000  1.0000000  0.0000000 )
                  ( -0.0000000 -0.0000000 -1.0000000 )
                  ( -1.0000000 -0.0000000 -0.0000000 )


      isym =  8     120 deg rotation - cart. axis [1,-1,1]       

 cryst.   s( 8) = (     0          0         -1      )
                  (     0          1         -1      )
                  (     1          0         -1      )

 cart.    s( 8) = (  0.0000000 -1.0000000  0.0000000 )
                  (  0.0000000  0.0000000 -1.0000000 )
                  (  1.0000000  0.0000000 -0.0000000 )


      isym =  9     120 deg rotation - cart. axis [1,1,1]        

 cryst.   s( 9) = (     0          1          0      )
                  (     0          0          1      )
                  (     1          0          0      )

 cart.    s( 9) = ( -0.0000000  0.0000000  1.0000000 )
                  (  1.0000000  0.0000000 -0.0000000 )
                  (  0.0000000  1.0000000 -0.0000000 )


      isym = 10     120 deg rotation - cart. axis [-1,1,-1]      

 cryst.   s(10) = (    -1          0          1      )
                  (    -1          1          0      )
                  (    -1          0          0      )

 cart.    s(10) = (  0.0000000 -0.0000000  1.0000000 )
                  ( -1.0000000 -0.0000000 -0.0000000 )
                  ( -0.0000000 -1.0000000 -0.0000000 )


      isym = 11     120 deg rotation - cart. axis [1,-1,-1]      

 cryst.   s(11) = (     1          0         -1      )
                  (     0          0         -1      )
                  (     0          1         -1      )

 cart.    s(11) = (  0.0000000  0.0000000 -1.0000000 )
                  ( -1.0000000  0.0000000  0.0000000 )
                  ( -0.0000000  1.0000000  0.0000000 )


      isym = 12     120 deg rotation - cart. axis [-1,-1,1]      

 cryst.   s(12) = (     0         -1          0      )
                  (     1         -1          0      )
                  (     0         -1          1      )

 cart.    s(12) = ( -0.0000000 -0.0000000 -1.0000000 )
                  (  1.0000000 -0.0000000  0.0000000 )
                  (  0.0000000 -1.0000000  0.0000000 )


      isym = 13     inv. 180 deg rotation - cart. axis [1,1,0]   

 cryst.   s(13) = (     1          0         -1      )
                  (     0          1         -1      )
                  (     0          0         -1      )

 cart.    s(13) = (  0.0000000 -1.0000000  0.0000000 )
                  ( -1.0000000  0.0000000  0.0000000 )
                  ( -0.0000000  0.0000000  1.0000000 )


      isym = 14     inv. 180 deg rotation - cart. axis [1,-1,0]  

 cryst.   s(14) = (     0          1          0      )
                  (     1          0          0      )
                  (     0          0          1      )

 cart.    s(14) = ( -0.0000000  1.0000000  0.0000000 )
                  (  1.0000000 -0.0000000  0.0000000 )
                  (  0.0000000 -0.0000000  1.0000000 )


      isym = 15     inv.  90 deg rotation - cart. axis [0,0,-1]  

 cryst.   s(15) = (     0         -1          0      )
                  (     0         -1          1      )
                  (     1         -1          0      )

 cart.    s(15) = ( -0.0000000 -1.0000000 -0.0000000 )
                  (  1.0000000  0.0000000 -0.0000000 )
                  (  0.0000000  0.0000000 -1.0000000 )


      isym = 16     inv.  90 deg rotation - cart. axis [0,0,1]   

 cryst.   s(16) = (    -1          0          1      )
                  (    -1          0          0      )
                  (    -1          1          0      )

 cart.    s(16) = (  0.0000000  1.0000000 -0.0000000 )
                  ( -1.0000000 -0.0000000 -0.0000000 )
                  ( -0.0000000 -0.0000000 -1.0000000 )


      isym = 17     inv. 180 deg rotation - cart. axis [1,0,1]   

 cryst.   s(17) = (     1         -1          0      )
                  (     0         -1          0      )
                  (     0         -1          1      )

 cart.    s(17) = ( -0.0000000 -0.0000000 -1.0000000 )
                  ( -0.0000000  1.0000000  0.0000000 )
                  ( -1.0000000  0.0000000  0.0000000 )


      isym = 18     inv. 180 deg rotation - cart. axis [-1,0,1]  

 cryst.   s(18) = (     0          0          1      )
                  (     0          1          0      )
                  (     1          0          0      )

 cart.    s(18) = (  0.0000000 -0.0000000  1.0000000 )
                  (  0.0000000  1.0000000 -0.0000000 )
                  (  1.0000000  0.0000000 -0.0000000 )


      isym = 19     inv.  90 deg rotation - cart. axis [0,1,0]   

 cryst.   s(19) = (     0          0         -1      )
                  (     1          0         -1      )
                  (     0          1         -1      )

 cart.    s(19) = (  0.0000000  0.0000000 -1.0000000 )
                  (  0.0000000 -1.0000000  0.0000000 )
                  (  1.0000000 -0.0000000  0.0000000 )


      isym = 20     inv.  90 deg rotation - cart. axis [0,-1,0]  

 cryst.   s(20) = (    -1          1          0      )
                  (    -1          0          1      )
                  (    -1          0          0      )

 cart.    s(20) = ( -0.0000000  0.0000000  1.0000000 )
                  ( -0.0000000 -1.0000000 -0.0000000 )
                  ( -1.0000000 -0.0000000 -0.0000000 )


      isym = 21     inv. 180 deg rotation - cart. axis [0,1,1]   

 cryst.   s(21) = (    -1          0          0      )
                  (    -1          1          0      )
                  (    -1          0          1      )

 cart.    s(21) = (  1.0000000 -0.0000000  0.0000000 )
                  ( -0.0000000 -0.0000000 -1.0000000 )
                  ( -0.0000000 -1.0000000 -0.0000000 )


      isym = 22     inv. 180 deg rotation - cart. axis [0,1,-1]  

 cryst.   s(22) = (     1          0          0      )
                  (     0          0          1      )
                  (     0          1          0      )

 cart.    s(22) = (  1.0000000  0.0000000 -0.0000000 )
                  ( -0.0000000  0.0000000  1.0000000 )
                  ( -0.0000000  1.0000000  0.0000000 )


      isym = 23     inv.  90 deg rotation - cart. axis [-1,0,0]  

 cryst.   s(23) = (     0          1         -1      )
                  (     0          0         -1      )
                  (     1          0         -1      )

 cart.    s(23) = ( -1.0000000  0.0000000  0.0000000 )
                  (  0.0000000  0.0000000 -1.0000000 )
                  (  0.0000000  1.0000000 -0.0000000 )


      isym = 24     inv.  90 deg rotation - cart. axis [1,0,0]   

 cryst.   s(24) = (     0         -1          1      )
                  (     1         -1          0      )
                  (     0         -1          0      )

 cart.    s(24) = ( -1.0000000 -0.0000000 -0.0000000 )
                  (  0.0000000 -0.0000000  1.0000000 )
                  (  0.0000000 -1.0000000  0.0000000 )


   Cartesian axes

     site n.     atom                  positions (alat units)
         1           Mn  tau(   1) = (   0.7071068   0.0000000   0.0000000  )
         2           Al  tau(   2) = (   0.3535534   0.3535534   0.3535534  )
         3           Fe  tau(   3) = (   0.0000000   0.0000000   0.0000000  )
         4           Fe  tau(   4) = (   0.3535534   0.3535534   1.0606602  )

   Crystallographic axes

     site n.     atom                  positions (cryst. coord.)
         1           Mn  tau(   1) = ( -0.5000000  0.5000000  0.5000000  )
         2           Al  tau(   2) = (  0.2500000  0.2500000  0.2500000  )
         3           Fe  tau(   3) = (  0.0000000  0.0000000  0.0000000  )
         4           Fe  tau(   4) = (  0.7500000  0.7500000 -0.2500000  )

     number of k points=    84  Marzari-Vanderbilt smearing, width (Ry)=  0.0100
                       cart. coord. in units 2pi/alat
        k(    1) = (   0.0000000   0.0000000   0.0000000), wk =   0.0004552
        k(    2) = (   0.0543928   0.0543928  -0.0543928), wk =   0.0036413
        k(    3) = (   0.1087857   0.1087857  -0.1087857), wk =   0.0036413
        k(    4) = (   0.1631785   0.1631785  -0.1631785), wk =   0.0036413
        k(    5) = (   0.2175713   0.2175713  -0.2175713), wk =   0.0036413
        k(    6) = (   0.2719641   0.2719641  -0.2719641), wk =   0.0036413
        k(    7) = (   0.3263570   0.3263570  -0.3263570), wk =   0.0036413
        k(    8) = (   0.1087857  -0.0000000   0.0000000), wk =   0.0027310
        k(    9) = (   0.1631785   0.0543928  -0.0543928), wk =   0.0109240
        k(   10) = (   0.2175713   0.1087857  -0.1087857), wk =   0.0109240
        k(   11) = (   0.2719641   0.1631785  -0.1631785), wk =   0.0109240
        k(   12) = (   0.3263570   0.2175713  -0.2175713), wk =   0.0109240
        k(   13) = (   0.3807498   0.2719641  -0.2719641), wk =   0.0109240
        k(   14) = (  -0.2719641  -0.3807498   0.3807498), wk =   0.0109240
        k(   15) = (  -0.2175713  -0.3263570   0.3263570), wk =   0.0109240
        k(   16) = (  -0.1631785  -0.2719641   0.2719641), wk =   0.0109240
        k(   17) = (  -0.1087857  -0.2175713   0.2175713), wk =   0.0109240
        k(   18) = (  -0.0543928  -0.1631785   0.1631785), wk =   0.0109240
        k(   19) = (   0.0000000  -0.1087857   0.1087857), wk =   0.0054620
        k(   20) = (   0.2175713  -0.0000000   0.0000000), wk =   0.0027310
        k(   21) = (   0.2719641   0.0543928  -0.0543928), wk =   0.0109240
        k(   22) = (   0.3263570   0.1087857  -0.1087857), wk =   0.0109240
        k(   23) = (   0.3807498   0.1631785  -0.1631785), wk =   0.0109240
        k(   24) = (   0.4351426   0.2175713  -0.2175713), wk =   0.0109240
        k(   25) = (  -0.2175713  -0.4351426   0.4351426), wk =   0.0109240
        k(   26) = (  -0.1631785  -0.3807498   0.3807498), wk =   0.0109240
        k(   27) = (  -0.1087857  -0.3263570   0.3263570), wk =   0.0109240
        k(   28) = (  -0.0543928  -0.2719641   0.2719641), wk =   0.0109240
        k(   29) = (   0.0000000  -0.2175713   0.2175713), wk =   0.0054620
        k(   30) = (   0.3263570  -0.0000000   0.0000000), wk =   0.0027310
        k(   31) = (   0.3807498   0.0543928  -0.0543928), wk =   0.0109240
        k(   32) = (   0.4351426   0.1087857  -0.1087857), wk =   0.0109240
        k(   33) = (   0.4895355   0.1631785  -0.1631785), wk =   0.0109240
        k(   34) = (  -0.1631785  -0.4895355   0.4895355), wk =   0.0109240
        k(   35) = (  -0.1087857  -0.4351426   0.4351426), wk =   0.0109240
        k(   36) = (  -0.0543928  -0.3807498   0.3807498), wk =   0.0109240
        k(   37) = (   0.0000000  -0.3263570   0.3263570), wk =   0.0054620
        k(   38) = (   0.4351426  -0.0000000   0.0000000), wk =   0.0027310
        k(   39) = (   0.4895355   0.0543928  -0.0543928), wk =   0.0109240
        k(   40) = (   0.5439283   0.1087857  -0.1087857), wk =   0.0109240
        k(   41) = (  -0.1087857  -0.5439283   0.5439283), wk =   0.0109240
        k(   42) = (  -0.0543928  -0.4895355   0.4895355), wk =   0.0109240
        k(   43) = (   0.0000000  -0.4351426   0.4351426), wk =   0.0054620
        k(   44) = (   0.5439283  -0.0000000   0.0000000), wk =   0.0027310
        k(   45) = (   0.5983211   0.0543928  -0.0543928), wk =   0.0109240
        k(   46) = (  -0.0543928  -0.5983211   0.5983211), wk =   0.0109240
        k(   47) = (   0.0000000  -0.5439283   0.5439283), wk =   0.0054620
        k(   48) = (   0.6527140  -0.0000000   0.0000000), wk =   0.0027310
        k(   49) = (   0.0000000  -0.6527140   0.6527140), wk =   0.0054620
        k(   50) = (   0.2175713   0.1087857   0.0000000), wk =   0.0109240
        k(   51) = (   0.2719641   0.1631785  -0.0543928), wk =   0.0218480
        k(   52) = (   0.3263570   0.2175713  -0.1087857), wk =   0.0218480
        k(   53) = (   0.3807498   0.2719641  -0.1631785), wk =   0.0218480
        k(   54) = (  -0.2719641  -0.3807498   0.4895355), wk =   0.0218480
        k(   55) = (   0.3263570   0.1087857   0.0000000), wk =   0.0109240
        k(   56) = (   0.3807498   0.1631785  -0.0543928), wk =   0.0218480
        k(   57) = (   0.4351426   0.2175713  -0.1087857), wk =   0.0218480
        k(   58) = (  -0.2175713  -0.4351426   0.5439283), wk =   0.0218480
        k(   59) = (  -0.1631785  -0.3807498   0.4895355), wk =   0.0218480
        k(   60) = (  -0.1087857  -0.3263570   0.4351426), wk =   0.0218480
        k(   61) = (  -0.0543928  -0.2719641   0.3807498), wk =   0.0218480
        k(   62) = (   0.0000000  -0.2175713   0.3263570), wk =   0.0109240
        k(   63) = (   0.4351426   0.1087857   0.0000000), wk =   0.0109240
        k(   64) = (   0.4895355   0.1631785  -0.0543928), wk =   0.0218480
        k(   65) = (  -0.1631785  -0.4895355   0.5983211), wk =   0.0218480
        k(   66) = (  -0.1087857  -0.4351426   0.5439283), wk =   0.0218480
        k(   67) = (  -0.0543928  -0.3807498   0.4895355), wk =   0.0218480
        k(   68) = (   0.0000000  -0.3263570   0.4351426), wk =   0.0109240
        k(   69) = (   0.5439283   0.1087857   0.0000000), wk =   0.0109240
        k(   70) = (  -0.1087857  -0.5439283   0.6527140), wk =   0.0218480
        k(   71) = (  -0.0543928  -0.4895355   0.5983211), wk =   0.0218480
        k(   72) = (   0.0000000  -0.4351426   0.5439283), wk =   0.0109240
        k(   73) = (  -0.0543928  -0.5983211   0.7071068), wk =   0.0109240
        k(   74) = (   0.0000000  -0.5439283   0.6527140), wk =   0.0109240
        k(   75) = (   0.4351426   0.2175713   0.0000000), wk =   0.0109240
        k(   76) = (  -0.2175713  -0.4351426   0.6527140), wk =   0.0218480
        k(   77) = (  -0.1631785  -0.3807498   0.5983211), wk =   0.0218480
        k(   78) = (  -0.1631785  -0.4895355   0.7071068), wk =   0.0109240
        k(   79) = (  -0.1087857  -0.4351426   0.6527140), wk =   0.0218480
        k(   80) = (  -0.0543928  -0.3807498   0.5983211), wk =   0.0218480
        k(   81) = (   0.0000000  -0.3263570   0.5439283), wk =   0.0109240
        k(   82) = (  -0.0543928  -0.4895355   0.7071068), wk =   0.0109240
        k(   83) = (   0.0000000  -0.4351426   0.6527140), wk =   0.0109240
        k(   84) = (  -0.0543928  -0.3807498   0.7071068), wk =   0.0109240

                       cryst. coord.
        k(    1) = (   0.0000000   0.0000000   0.0000000), wk =   0.0004552
        k(    2) = (  -0.0000000  -0.0000000   0.0769231), wk =   0.0036413
        k(    3) = (  -0.0000000  -0.0000000   0.1538462), wk =   0.0036413
        k(    4) = (  -0.0000000  -0.0000000   0.2307692), wk =   0.0036413
        k(    5) = (  -0.0000000  -0.0000000   0.3076923), wk =   0.0036413
        k(    6) = (   0.0000000   0.0000000   0.3846154), wk =   0.0036413
        k(    7) = (  -0.0000000  -0.0000000   0.4615385), wk =   0.0036413
        k(    8) = (  -0.0000000   0.0769231   0.0769231), wk =   0.0027310
        k(    9) = (  -0.0000000   0.0769231   0.1538462), wk =   0.0109240
        k(   10) = (  -0.0000000   0.0769231   0.2307692), wk =   0.0109240
        k(   11) = (  -0.0000000   0.0769231   0.3076923), wk =   0.0109240
        k(   12) = (  -0.0000000   0.0769231   0.3846154), wk =   0.0109240
        k(   13) = (   0.0000000   0.0769231   0.4615385), wk =   0.0109240
        k(   14) = (   0.0000000   0.0769231  -0.4615385), wk =   0.0109240
        k(   15) = (   0.0000000   0.0769231  -0.3846154), wk =   0.0109240
        k(   16) = (  -0.0000000   0.0769231  -0.3076923), wk =   0.0109240
        k(   17) = (  -0.0000000   0.0769231  -0.2307692), wk =   0.0109240
        k(   18) = (   0.0000000   0.0769231  -0.1538462), wk =   0.0109240
        k(   19) = (  -0.0000000   0.0769231  -0.0769231), wk =   0.0054620
        k(   20) = (  -0.0000000   0.1538462   0.1538462), wk =   0.0027310
        k(   21) = (  -0.0000000   0.1538462   0.2307692), wk =   0.0109240
        k(   22) = (  -0.0000000   0.1538462   0.3076923), wk =   0.0109240
        k(   23) = (  -0.0000000   0.1538462   0.3846154), wk =   0.0109240
        k(   24) = (  -0.0000000   0.1538462   0.4615385), wk =   0.0109240
        k(   25) = (   0.0000000   0.1538462  -0.4615385), wk =   0.0109240
        k(   26) = (   0.0000000   0.1538462  -0.3846154), wk =   0.0109240
        k(   27) = (   0.0000000   0.1538462  -0.3076923), wk =   0.0109240
        k(   28) = (   0.0000000   0.1538462  -0.2307692), wk =   0.0109240
        k(   29) = (   0.0000000   0.1538462  -0.1538462), wk =   0.0054620
        k(   30) = (   0.0000000   0.2307692   0.2307692), wk =   0.0027310
        k(   31) = (   0.0000000   0.2307692   0.3076923), wk =   0.0109240
        k(   32) = (  -0.0000000   0.2307692   0.3846154), wk =   0.0109240
        k(   33) = (  -0.0000000   0.2307692   0.4615385), wk =   0.0109240
        k(   34) = (  -0.0000000   0.2307692  -0.4615385), wk =   0.0109240
        k(   35) = (   0.0000000   0.2307692  -0.3846154), wk =   0.0109240
        k(   36) = (   0.0000000   0.2307692  -0.3076923), wk =   0.0109240
        k(   37) = (   0.0000000   0.2307692  -0.2307692), wk =   0.0054620
        k(   38) = (  -0.0000000   0.3076923   0.3076923), wk =   0.0027310
        k(   39) = (  -0.0000000   0.3076923   0.3846154), wk =   0.0109240
        k(   40) = (  -0.0000000   0.3076923   0.4615385), wk =   0.0109240
        k(   41) = (  -0.0000000   0.3076923  -0.4615385), wk =   0.0109240
        k(   42) = (   0.0000000   0.3076923  -0.3846154), wk =   0.0109240
        k(   43) = (   0.0000000   0.3076923  -0.3076923), wk =   0.0054620
        k(   44) = (  -0.0000000   0.3846154   0.3846154), wk =   0.0027310
        k(   45) = (  -0.0000000   0.3846154   0.4615385), wk =   0.0109240
        k(   46) = (  -0.0000000   0.3846154  -0.4615385), wk =   0.0109240
        k(   47) = (  -0.0000000   0.3846154  -0.3846154), wk =   0.0054620
        k(   48) = (   0.0000000   0.4615385   0.4615385), wk =   0.0027310
        k(   49) = (   0.0000000   0.4615385  -0.4615385), wk =   0.0054620
        k(   50) = (   0.0769231   0.1538462   0.2307692), wk =   0.0109240
        k(   51) = (   0.0769231   0.1538462   0.3076923), wk =   0.0218480
        k(   52) = (   0.0769231   0.1538462   0.3846154), wk =   0.0218480
        k(   53) = (   0.0769231   0.1538462   0.4615385), wk =   0.0218480
        k(   54) = (   0.0769231   0.1538462  -0.4615385), wk =   0.0218480
        k(   55) = (   0.0769231   0.2307692   0.3076923), wk =   0.0109240
        k(   56) = (   0.0769231   0.2307692   0.3846154), wk =   0.0218480
        k(   57) = (   0.0769231   0.2307692   0.4615385), wk =   0.0218480
        k(   58) = (   0.0769231   0.2307692  -0.4615385), wk =   0.0218480
        k(   59) = (   0.0769231   0.2307692  -0.3846154), wk =   0.0218480
        k(   60) = (   0.0769231   0.2307692  -0.3076923), wk =   0.0218480
        k(   61) = (   0.0769231   0.2307692  -0.2307692), wk =   0.0218480
        k(   62) = (   0.0769231   0.2307692  -0.1538462), wk =   0.0109240
        k(   63) = (   0.0769231   0.3076923   0.3846154), wk =   0.0109240
        k(   64) = (   0.0769231   0.3076923   0.4615385), wk =   0.0218480
        k(   65) = (   0.0769231   0.3076923  -0.4615385), wk =   0.0218480
        k(   66) = (   0.0769231   0.3076923  -0.3846154), wk =   0.0218480
        k(   67) = (   0.0769231   0.3076923  -0.3076923), wk =   0.0218480
        k(   68) = (   0.0769231   0.3076923  -0.2307692), wk =   0.0109240
        k(   69) = (   0.0769231   0.3846154   0.4615385), wk =   0.0109240
        k(   70) = (   0.0769231   0.3846154  -0.4615385), wk =   0.0218480
        k(   71) = (   0.0769231   0.3846154  -0.3846154), wk =   0.0218480
        k(   72) = (   0.0769231   0.3846154  -0.3076923), wk =   0.0109240
        k(   73) = (   0.0769231   0.4615385  -0.4615385), wk =   0.0109240
        k(   74) = (   0.0769231   0.4615385  -0.3846154), wk =   0.0109240
        k(   75) = (   0.1538462   0.3076923   0.4615385), wk =   0.0109240
        k(   76) = (   0.1538462   0.3076923  -0.4615385), wk =   0.0218480
        k(   77) = (   0.1538462   0.3076923  -0.3846154), wk =   0.0218480
        k(   78) = (   0.1538462   0.3846154  -0.4615385), wk =   0.0109240
        k(   79) = (   0.1538462   0.3846154  -0.3846154), wk =   0.0218480
        k(   80) = (   0.1538462   0.3846154  -0.3076923), wk =   0.0218480
        k(   81) = (   0.1538462   0.3846154  -0.2307692), wk =   0.0109240
        k(   82) = (   0.1538462   0.4615385  -0.3846154), wk =   0.0109240
        k(   83) = (   0.1538462   0.4615385  -0.3076923), wk =   0.0109240
        k(   84) = (   0.2307692   0.4615385  -0.3076923), wk =   0.0109240

     Dense  grid:   182543 G-vectors     FFT dimensions: (  80,  80,  80)

     Smooth grid:    35053 G-vectors     FFT dimensions: (  45,  45,  45)

     Dynamical RAM for                 wfc:       2.01 MB

     Dynamical RAM for     wfc (w. buffer):     339.39 MB

     Dynamical RAM for           str. fact:       8.36 MB

     Dynamical RAM for           local pot:       0.00 MB

     Dynamical RAM for          nlocal pot:       4.82 MB

     Dynamical RAM for                qrad:       7.91 MB

     Dynamical RAM for          rho,v,vnew:      40.15 MB

     Dynamical RAM for               rhoin:      13.38 MB

     Dynamical RAM for            rho*nmix:      89.13 MB

     Dynamical RAM for           G-vectors:      10.71 MB

     Dynamical RAM for          h,s,v(r/c):       0.16 MB

     Dynamical RAM for          <psi|beta>:       0.03 MB

     Dynamical RAM for                 psi:       4.02 MB

     Dynamical RAM for                hpsi:       4.02 MB

     Dynamical RAM for                spsi:       4.02 MB

     Dynamical RAM for      wfcinit/wfcrot:       4.04 MB

     Dynamical RAM for           addusdens:     526.44 MB

     Dynamical RAM for          addusforce:     532.02 MB

     Dynamical RAM for         addusstress:     564.04 MB

     Estimated static dynamical RAM per process >     459.29 MB

     Estimated max dynamical RAM per process >       1.09 GB

     Atomic positions and unit cell read from directory:
     ./out/aiida.save/
 

     Check: negative core charge=   -0.000009
     Generating pointlists ...
     new r_m :   0.2526 (alat units)  1.9071 (a.u.) for type    1
     new r_m :   0.2526 (alat units)  1.9071 (a.u.) for type    2
     new r_m :   0.2526 (alat units)  1.9071 (a.u.) for type    3

     The initial density is read from file :
     ./out/aiida.save/charge-density


     negative rho (up, down):  0.000E+00 4.225E-05
     Starting wfcs from file
     Checking if some PAW data can be deallocated... 

     total cpu time spent up to now is        5.5 secs

     per-process dynamical memory:   492.3 Mb

     Self-consistent Calculation
[tb_dev] Currently allocated     3.05E-05 Mbytes, locked:    0 /   2
[tb_pin] Currently allocated     0.00E+00 Mbytes, locked:    0 /   0

     iteration #  1     ecut=    90.00 Ry     beta= 0.10
     Davidson diagonalization with overlap

---- Real-time Memory Report at c_bands before calling an iterative solver
           816 MiB given to the printing process from OS
           492 MiB allocation reported by mallinfo(arena+hblkhd)
         51566 MiB available memory on the node where the printing process lives
     GPU memory used/free/total (MiB): 768 / 15512 / 16280
------------------
     ethr =  1.00E-05,  avg # of iterations =  1.6

     Threshold (ethr) on eigenvalues was too large:
     Diagonalizing with lowered threshold

     Davidson diagonalization with overlap

---- Real-time Memory Report at c_bands before calling an iterative solver
          1504 MiB given to the printing process from OS
          1136 MiB allocation reported by mallinfo(arena+hblkhd)
         50178 MiB available memory on the node where the printing process lives
     GPU memory used/free/total (MiB): 1646 / 14634 / 16280
------------------
     ethr =  1.76E-08,  avg # of iterations =  5.7

     negative rho (up, down):  0.000E+00 4.224E-05

     total cpu time spent up to now is       17.2 secs

     total energy              =    -903.45567916 Ry
     estimated scf accuracy    <       0.00000350 Ry

     total magnetization       =     6.13 Bohr mag/cell
     absolute magnetization    =     6.49 Bohr mag/cell
[tb_dev] Currently allocated     3.05E+00 Mbytes, locked:    0 /  10
[tb_pin] Currently allocated     0.00E+00 Mbytes, locked:    0 /   0

     iteration #  2     ecut=    90.00 Ry     beta= 0.10
     Davidson diagonalization with overlap

---- Real-time Memory Report at c_bands before calling an iterative solver
          1710 MiB given to the printing process from OS
          1163 MiB allocation reported by mallinfo(arena+hblkhd)
         50163 MiB available memory on the node where the printing process lives
     GPU memory used/free/total (MiB): 1650 / 14630 / 16280
------------------
     ethr =  7.00E-09,  avg # of iterations =  1.3

     negative rho (up, down):  0.000E+00 4.223E-05

     total cpu time spent up to now is       21.5 secs

     total energy              =    -903.45567945 Ry
     estimated scf accuracy    <       0.00000270 Ry

     total magnetization       =     6.13 Bohr mag/cell
     absolute magnetization    =     6.49 Bohr mag/cell
[tb_dev] Currently allocated     3.05E+00 Mbytes, locked:    0 /  10
[tb_pin] Currently allocated     0.00E+00 Mbytes, locked:    0 /   0

     iteration #  3     ecut=    90.00 Ry     beta= 0.10
     Davidson diagonalization with overlap

---- Real-time Memory Report at c_bands before calling an iterative solver
          1876 MiB given to the printing process from OS
          1172 MiB allocation reported by mallinfo(arena+hblkhd)
         50156 MiB available memory on the node where the printing process lives
     GPU memory used/free/total (MiB): 1650 / 14630 / 16280
------------------
     ethr =  5.40E-09,  avg # of iterations =  1.0

     negative rho (up, down):  0.000E+00 4.220E-05

     total cpu time spent up to now is       25.6 secs

     total energy              =    -903.45568003 Ry
     estimated scf accuracy    <       0.00000212 Ry

     total magnetization       =     6.12 Bohr mag/cell
     absolute magnetization    =     6.49 Bohr mag/cell
[tb_dev] Currently allocated     3.05E+00 Mbytes, locked:    0 /  10
[tb_pin] Currently allocated     0.00E+00 Mbytes, locked:    0 /   0

     iteration #  4     ecut=    90.00 Ry     beta= 0.10
     Davidson diagonalization with overlap

---- Real-time Memory Report at c_bands before calling an iterative solver
          1945 MiB given to the printing process from OS
          1181 MiB allocation reported by mallinfo(arena+hblkhd)
         50146 MiB available memory on the node where the printing process lives
     GPU memory used/free/total (MiB): 1650 / 14630 / 16280
------------------
     ethr =  4.24E-09,  avg # of iterations =  1.1

     negative rho (up, down):  0.000E+00 4.214E-05

     total cpu time spent up to now is       29.8 secs

     total energy              =    -903.45568080 Ry
     estimated scf accuracy    <       0.00000155 Ry

     total magnetization       =     6.12 Bohr mag/cell
     absolute magnetization    =     6.49 Bohr mag/cell
[tb_dev] Currently allocated     3.05E+00 Mbytes, locked:    0 /  10
[tb_pin] Currently allocated     0.00E+00 Mbytes, locked:    0 /   0

     iteration #  5     ecut=    90.00 Ry     beta= 0.10
     Davidson diagonalization with overlap

---- Real-time Memory Report at c_bands before calling an iterative solver
          2014 MiB given to the printing process from OS
          1191 MiB allocation reported by mallinfo(arena+hblkhd)
         50136 MiB available memory on the node where the printing process lives
     GPU memory used/free/total (MiB): 1650 / 14630 / 16280
------------------
     ethr =  3.11E-09,  avg # of iterations =  1.6

     negative rho (up, down):  0.000E+00 4.200E-05

     total cpu time spent up to now is       34.3 secs

     total energy              =    -903.45568169 Ry
     estimated scf accuracy    <       0.00000128 Ry

     total magnetization       =     6.12 Bohr mag/cell
     absolute magnetization    =     6.48 Bohr mag/cell
[tb_dev] Currently allocated     3.05E+00 Mbytes, locked:    0 /  10
[tb_pin] Currently allocated     0.00E+00 Mbytes, locked:    0 /   0

     iteration #  6     ecut=    90.00 Ry     beta= 0.10
     Davidson diagonalization with overlap

---- Real-time Memory Report at c_bands before calling an iterative solver
          2081 MiB given to the printing process from OS
          1202 MiB allocation reported by mallinfo(arena+hblkhd)
         50124 MiB available memory on the node where the printing process lives
     GPU memory used/free/total (MiB): 1650 / 14630 / 16280
------------------
     ethr =  2.55E-09,  avg # of iterations =  3.5

     negative rho (up, down):  0.000E+00 4.195E-05

     total cpu time spent up to now is       39.9 secs

     total energy              =    -903.45568329 Ry
     estimated scf accuracy    <       0.00000098 Ry

     total magnetization       =     6.11 Bohr mag/cell
     absolute magnetization    =     6.47 Bohr mag/cell
[tb_dev] Currently allocated     3.05E+00 Mbytes, locked:    0 /  10
[tb_pin] Currently allocated     0.00E+00 Mbytes, locked:    0 /   0

     iteration #  7     ecut=    90.00 Ry     beta= 0.10
     Davidson diagonalization with overlap

---- Real-time Memory Report at c_bands before calling an iterative solver
          2101 MiB given to the printing process from OS
          1210 MiB allocation reported by mallinfo(arena+hblkhd)
         50117 MiB available memory on the node where the printing process lives
     GPU memory used/free/total (MiB): 1650 / 14630 / 16280
------------------
     ethr =  1.95E-09,  avg # of iterations =  3.4

     negative rho (up, down):  0.000E+00 4.150E-05

     total cpu time spent up to now is       45.6 secs

     total energy              =    -903.45567348 Ry
     estimated scf accuracy    <       0.00000282 Ry

     total magnetization       =     6.10 Bohr mag/cell
     absolute magnetization    =     6.47 Bohr mag/cell
[tb_dev] Currently allocated     3.05E+00 Mbytes, locked:    0 /  10
[tb_pin] Currently allocated     0.00E+00 Mbytes, locked:    0 /   0

     iteration #  8     ecut=    90.00 Ry     beta= 0.10
     Davidson diagonalization with overlap

---- Real-time Memory Report at c_bands before calling an iterative solver
          2110 MiB given to the printing process from OS
          1220 MiB allocation reported by mallinfo(arena+hblkhd)
         50109 MiB available memory on the node where the printing process lives
     GPU memory used/free/total (MiB): 1650 / 14630 / 16280
------------------
     ethr =  1.95E-09,  avg # of iterations =  6.2

     negative rho (up, down):  0.000E+00 4.150E-05

     total cpu time spent up to now is       53.6 secs

     total energy              =    -903.45568752 Ry
     estimated scf accuracy    <       0.00000095 Ry

     total magnetization       =     6.07 Bohr mag/cell
     absolute magnetization    =     6.43 Bohr mag/cell
[tb_dev] Currently allocated     3.05E+00 Mbytes, locked:    0 /  10
[tb_pin] Currently allocated     0.00E+00 Mbytes, locked:    0 /   0

     iteration #  9     ecut=    90.00 Ry     beta= 0.10
     Davidson diagonalization with overlap

---- Real-time Memory Report at c_bands before calling an iterative solver
          2120 MiB given to the printing process from OS
          1229 MiB allocation reported by mallinfo(arena+hblkhd)
         50099 MiB available memory on the node where the printing process lives
     GPU memory used/free/total (MiB): 1650 / 14630 / 16280
------------------
     ethr =  1.91E-09,  avg # of iterations =  1.8

     negative rho (up, down):  0.000E+00 4.143E-05

     total cpu time spent up to now is       58.5 secs

     total energy              =    -903.45568765 Ry
     estimated scf accuracy    <       0.00000122 Ry

     total magnetization       =     6.06 Bohr mag/cell
     absolute magnetization    =     6.43 Bohr mag/cell
[tb_dev] Currently allocated     3.05E+00 Mbytes, locked:    0 /  10
[tb_pin] Currently allocated     0.00E+00 Mbytes, locked:    0 /   0

     iteration # 10     ecut=    90.00 Ry     beta= 0.10
     Davidson diagonalization with overlap

---- Real-time Memory Report at c_bands before calling an iterative solver
          2130 MiB given to the printing process from OS
          1240 MiB allocation reported by mallinfo(arena+hblkhd)
         50089 MiB available memory on the node where the printing process lives
     GPU memory used/free/total (MiB): 1650 / 14630 / 16280
------------------
     ethr =  1.91E-09,  avg # of iterations =  2.7

     negative rho (up, down):  0.000E+00 4.119E-05

     total cpu time spent up to now is       63.6 secs

     total energy              =    -903.45568461 Ry
     estimated scf accuracy    <       0.00000121 Ry

     total magnetization       =     6.06 Bohr mag/cell
     absolute magnetization    =     6.42 Bohr mag/cell
[tb_dev] Currently allocated     3.05E+00 Mbytes, locked:    0 /  10
[tb_pin] Currently allocated     0.00E+00 Mbytes, locked:    0 /   0

     iteration # 11     ecut=    90.00 Ry     beta= 0.10
     Davidson diagonalization with overlap

---- Real-time Memory Report at c_bands before calling an iterative solver
          2139 MiB given to the printing process from OS
          1245 MiB allocation reported by mallinfo(arena+hblkhd)
         50078 MiB available memory on the node where the printing process lives
     GPU memory used/free/total (MiB): 1650 / 14630 / 16280
------------------
     ethr =  1.91E-09,  avg # of iterations =  5.3

     negative rho (up, down):  0.000E+00 4.108E-05

     total cpu time spent up to now is       71.0 secs

     total energy              =    -903.45568879 Ry
     estimated scf accuracy    <       0.00000030 Ry

     total magnetization       =     6.04 Bohr mag/cell
     absolute magnetization    =     6.40 Bohr mag/cell
[tb_dev] Currently allocated     3.05E+00 Mbytes, locked:    0 /  10
[tb_pin] Currently allocated     0.00E+00 Mbytes, locked:    0 /   0

     iteration # 12     ecut=    90.00 Ry     beta= 0.10
     Davidson diagonalization with overlap

---- Real-time Memory Report at c_bands before calling an iterative solver
          2145 MiB given to the printing process from OS
          1251 MiB allocation reported by mallinfo(arena+hblkhd)
         50074 MiB available memory on the node where the printing process lives
     GPU memory used/free/total (MiB): 1650 / 14630 / 16280
------------------
     ethr =  6.04E-10,  avg # of iterations =  4.6

     negative rho (up, down):  0.000E+00 4.187E-05

     total cpu time spent up to now is       77.7 secs

     total energy              =    -903.45563972 Ry
     estimated scf accuracy    <       0.00000029 Ry

     total magnetization       =     6.03 Bohr mag/cell
     absolute magnetization    =     6.39 Bohr mag/cell
[tb_dev] Currently allocated     3.05E+00 Mbytes, locked:    0 /  10
[tb_pin] Currently allocated     0.00E+00 Mbytes, locked:    0 /   0

     iteration # 13     ecut=    90.00 Ry     beta= 0.10
     Davidson diagonalization with overlap

---- Real-time Memory Report at c_bands before calling an iterative solver
          2151 MiB given to the printing process from OS
          1257 MiB allocation reported by mallinfo(arena+hblkhd)
         50072 MiB available memory on the node where the printing process lives
     GPU memory used/free/total (MiB): 1650 / 14630 / 16280
------------------
     ethr =  5.72E-10,  avg # of iterations =  8.7

     negative rho (up, down):  0.000E+00 4.225E-05

     total cpu time spent up to now is       87.9 secs

     total energy              =    -903.45567022 Ry
     estimated scf accuracy    <       0.00000071 Ry

     total magnetization       =     6.10 Bohr mag/cell
     absolute magnetization    =     6.46 Bohr mag/cell
[tb_dev] Currently allocated     3.05E+00 Mbytes, locked:    0 /  10
[tb_pin] Currently allocated     0.00E+00 Mbytes, locked:    0 /   0

     iteration # 14     ecut=    90.00 Ry     beta= 0.10
     Davidson diagonalization with overlap

---- Real-time Memory Report at c_bands before calling an iterative solver
          2156 MiB given to the printing process from OS
          1263 MiB allocation reported by mallinfo(arena+hblkhd)
         50063 MiB available memory on the node where the printing process lives
     GPU memory used/free/total (MiB): 1650 / 14630 / 16280
------------------
     ethr =  5.72E-10,  avg # of iterations =  7.2

     negative rho (up, down):  0.000E+00 4.027E-05

     total cpu time spent up to now is       96.9 secs

     total energy              =    -903.45542264 Ry
     estimated scf accuracy    <       0.00000222 Ry

     total magnetization       =     6.13 Bohr mag/cell
     absolute magnetization    =     6.49 Bohr mag/cell
[tb_dev] Currently allocated     3.05E+00 Mbytes, locked:    0 /  10
[tb_pin] Currently allocated     0.00E+00 Mbytes, locked:    0 /   0

     iteration # 15     ecut=    90.00 Ry     beta= 0.10
     Davidson diagonalization with overlap

---- Real-time Memory Report at c_bands before calling an iterative solver
          2162 MiB given to the printing process from OS
          1269 MiB allocation reported by mallinfo(arena+hblkhd)
         50054 MiB available memory on the node where the printing process lives
     GPU memory used/free/total (MiB): 1650 / 14630 / 16280
------------------
     ethr =  5.72E-10,  avg # of iterations = 11.9

     negative rho (up, down):  0.000E+00 4.119E-05

     total cpu time spent up to now is      110.1 secs

     total energy              =    -903.45562528 Ry
     estimated scf accuracy    <       0.00000317 Ry

     total magnetization       =     5.95 Bohr mag/cell
     absolute magnetization    =     6.31 Bohr mag/cell
[tb_dev] Currently allocated     3.05E+00 Mbytes, locked:    0 /  10
[tb_pin] Currently allocated     0.00E+00 Mbytes, locked:    0 /   0

     iteration # 16     ecut=    90.00 Ry     beta= 0.10
     Davidson diagonalization with overlap

---- Real-time Memory Report at c_bands before calling an iterative solver
          2171 MiB given to the printing process from OS
          1275 MiB allocation reported by mallinfo(arena+hblkhd)
         50050 MiB available memory on the node where the printing process lives
     GPU memory used/free/total (MiB): 1650 / 14630 / 16280
------------------
     ethr =  5.72E-10,  avg # of iterations =  9.4

     negative rho (up, down):  0.000E+00 4.127E-05

     total cpu time spent up to now is      120.9 secs

     total energy              =    -903.45568864 Ry
     estimated scf accuracy    <       0.00000028 Ry

     total magnetization       =     6.04 Bohr mag/cell
     absolute magnetization    =     6.40 Bohr mag/cell
[tb_dev] Currently allocated     3.05E+00 Mbytes, locked:    0 /  10
[tb_pin] Currently allocated     0.00E+00 Mbytes, locked:    0 /   0

     iteration # 17     ecut=    90.00 Ry     beta= 0.10
     Davidson diagonalization with overlap

---- Real-time Memory Report at c_bands before calling an iterative solver
          2177 MiB given to the printing process from OS
          1281 MiB allocation reported by mallinfo(arena+hblkhd)
         50044 MiB available memory on the node where the printing process lives
     GPU memory used/free/total (MiB): 1650 / 14630 / 16280
------------------
     ethr =  5.54E-10,  avg # of iterations =  4.1

     negative rho (up, down):  0.000E+00 4.152E-05

     total cpu time spent up to now is      127.2 secs

     total energy              =    -903.45568335 Ry
     estimated scf accuracy    <       0.00000015 Ry

     total magnetization       =     6.04 Bohr mag/cell
     absolute magnetization    =     6.40 Bohr mag/cell
[tb_dev] Currently allocated     3.05E+00 Mbytes, locked:    0 /  10
[tb_pin] Currently allocated     0.00E+00 Mbytes, locked:    0 /   0

     iteration # 18     ecut=    90.00 Ry     beta= 0.10
     Davidson diagonalization with overlap

---- Real-time Memory Report at c_bands before calling an iterative solver
          2183 MiB given to the printing process from OS
          1287 MiB allocation reported by mallinfo(arena+hblkhd)
         50037 MiB available memory on the node where the printing process lives
     GPU memory used/free/total (MiB): 1650 / 14630 / 16280
------------------
     ethr =  3.07E-10,  avg # of iterations =  7.1

     negative rho (up, down):  0.000E+00 4.126E-05

     total cpu time spent up to now is      135.9 secs

     total energy              =    -903.45568417 Ry
     estimated scf accuracy    <       0.00000034 Ry

     total magnetization       =     6.06 Bohr mag/cell
     absolute magnetization    =     6.43 Bohr mag/cell
[tb_dev] Currently allocated     3.05E+00 Mbytes, locked:    0 /  10
[tb_pin] Currently allocated     0.00E+00 Mbytes, locked:    0 /   0

     iteration # 19     ecut=    90.00 Ry     beta= 0.10
     Davidson diagonalization with overlap

---- Real-time Memory Report at c_bands before calling an iterative solver
          2190 MiB given to the printing process from OS
          1293 MiB allocation reported by mallinfo(arena+hblkhd)
         50032 MiB available memory on the node where the printing process lives
     GPU memory used/free/total (MiB): 1650 / 14630 / 16280
------------------
     ethr =  3.07E-10,  avg # of iterations =  6.8

     negative rho (up, down):  0.000E+00 4.143E-05

     total cpu time spent up to now is      144.4 secs

     total energy              =    -903.45568622 Ry
     estimated scf accuracy    <       0.00000022 Ry

     total magnetization       =     6.04 Bohr mag/cell
     absolute magnetization    =     6.40 Bohr mag/cell
[tb_dev] Currently allocated     3.05E+00 Mbytes, locked:    0 /  10
[tb_pin] Currently allocated     0.00E+00 Mbytes, locked:    0 /   0

     iteration # 20     ecut=    90.00 Ry     beta= 0.10
     Davidson diagonalization with overlap

---- Real-time Memory Report at c_bands before calling an iterative solver
          2196 MiB given to the printing process from OS
          1299 MiB allocation reported by mallinfo(arena+hblkhd)
         56718 MiB available memory on the node where the printing process lives
     GPU memory used/free/total (MiB): 1650 / 14630 / 16280
------------------
     ethr =  3.07E-10,  avg # of iterations =  5.9

     negative rho (up, down):  0.000E+00 4.136E-05

     total cpu time spent up to now is      152.1 secs

     total energy              =    -903.45568831 Ry
     estimated scf accuracy    <       0.00000041 Ry

     total magnetization       =     6.06 Bohr mag/cell
     absolute magnetization    =     6.42 Bohr mag/cell
[tb_dev] Currently allocated     3.05E+00 Mbytes, locked:    0 /  10
[tb_pin] Currently allocated     0.00E+00 Mbytes, locked:    0 /   0

     iteration # 21     ecut=    90.00 Ry     beta= 0.10
     Davidson diagonalization with overlap

---- Real-time Memory Report at c_bands before calling an iterative solver
          2202 MiB given to the printing process from OS
          1305 MiB allocation reported by mallinfo(arena+hblkhd)
         56720 MiB available memory on the node where the printing process lives
     GPU memory used/free/total (MiB): 1650 / 14630 / 16280
------------------
     ethr =  3.07E-10,  avg # of iterations =  3.7

     negative rho (up, down):  0.000E+00 4.143E-05

     total cpu time spent up to now is      158.1 secs

     total energy              =    -903.45568790 Ry
     estimated scf accuracy    <       0.00000032 Ry

     total magnetization       =     6.05 Bohr mag/cell
     absolute magnetization    =     6.41 Bohr mag/cell
[tb_dev] Currently allocated     3.05E+00 Mbytes, locked:    0 /  10
[tb_pin] Currently allocated     0.00E+00 Mbytes, locked:    0 /   0

     iteration # 22     ecut=    90.00 Ry     beta= 0.10
     Davidson diagonalization with overlap

---- Real-time Memory Report at c_bands before calling an iterative solver
          2208 MiB given to the printing process from OS
          1311 MiB allocation reported by mallinfo(arena+hblkhd)
         56715 MiB available memory on the node where the printing process lives
     GPU memory used/free/total (MiB): 1650 / 14630 / 16280
------------------
     ethr =  3.07E-10,  avg # of iterations =  3.7

     negative rho (up, down):  0.000E+00 4.141E-05

     total cpu time spent up to now is      164.1 secs

     total energy              =    -903.45568833 Ry
     estimated scf accuracy    <       0.00000042 Ry

     total magnetization       =     6.06 Bohr mag/cell
     absolute magnetization    =     6.42 Bohr mag/cell
[tb_dev] Currently allocated     3.05E+00 Mbytes, locked:    0 /  10
[tb_pin] Currently allocated     0.00E+00 Mbytes, locked:    0 /   0

     iteration # 23     ecut=    90.00 Ry     beta= 0.10
     Davidson diagonalization with overlap

---- Real-time Memory Report at c_bands before calling an iterative solver
          2213 MiB given to the printing process from OS
          1316 MiB allocation reported by mallinfo(arena+hblkhd)
         56711 MiB available memory on the node where the printing process lives
     GPU memory used/free/total (MiB): 1650 / 14630 / 16280
------------------
     ethr =  3.07E-10,  avg # of iterations =  1.5

     negative rho (up, down):  0.000E+00 4.070E-05

     total cpu time spent up to now is      168.5 secs

     total energy              =    -903.45565376 Ry
     estimated scf accuracy    <       0.00000040 Ry

     total magnetization       =     6.05 Bohr mag/cell
     absolute magnetization    =     6.42 Bohr mag/cell
[tb_dev] Currently allocated     3.05E+00 Mbytes, locked:    0 /  10
[tb_pin] Currently allocated     0.00E+00 Mbytes, locked:    0 /   0

     iteration # 24     ecut=    90.00 Ry     beta= 0.10
     Davidson diagonalization with overlap

---- Real-time Memory Report at c_bands before calling an iterative solver
          2219 MiB given to the printing process from OS
          1322 MiB allocation reported by mallinfo(arena+hblkhd)
         56707 MiB available memory on the node where the printing process lives
     GPU memory used/free/total (MiB): 1650 / 14630 / 16280
------------------
     ethr =  3.07E-10,  avg # of iterations =  9.5

     negative rho (up, down):  0.000E+00 4.044E-05

     total cpu time spent up to now is      179.5 secs

     total energy              =    -903.45568614 Ry
     estimated scf accuracy    <       0.00000009 Ry

     total magnetization       =     5.99 Bohr mag/cell
     absolute magnetization    =     6.35 Bohr mag/cell
[tb_dev] Currently allocated     3.05E+00 Mbytes, locked:    0 /  10
[tb_pin] Currently allocated     0.00E+00 Mbytes, locked:    0 /   0

     iteration # 25     ecut=    90.00 Ry     beta= 0.10
     Davidson diagonalization with overlap

---- Real-time Memory Report at c_bands before calling an iterative solver
          2225 MiB given to the printing process from OS
          1328 MiB allocation reported by mallinfo(arena+hblkhd)
         56702 MiB available memory on the node where the printing process lives
     GPU memory used/free/total (MiB): 1650 / 14630 / 16280
------------------
     ethr =  1.80E-10,  avg # of iterations =  8.2

     negative rho (up, down):  0.000E+00 4.143E-05

     total cpu time spent up to now is      189.1 secs

     total energy              =    -903.45561191 Ry
     estimated scf accuracy    <       0.00000011 Ry

     total magnetization       =     5.96 Bohr mag/cell
     absolute magnetization    =     6.32 Bohr mag/cell
[tb_dev] Currently allocated     3.05E+00 Mbytes, locked:    0 /  10
[tb_pin] Currently allocated     0.00E+00 Mbytes, locked:    0 /   0

     iteration # 26     ecut=    90.00 Ry     beta= 0.10
     Davidson diagonalization with overlap

---- Real-time Memory Report at c_bands before calling an iterative solver
          2231 MiB given to the printing process from OS
          1334 MiB allocation reported by mallinfo(arena+hblkhd)
         56692 MiB available memory on the node where the printing process lives
     GPU memory used/free/total (MiB): 1650 / 14630 / 16280
------------------
     ethr =  1.80E-10,  avg # of iterations = 11.8

     negative rho (up, down):  0.000E+00 4.121E-05

     total cpu time spent up to now is      202.3 secs

     total energy              =    -903.45568530 Ry
     estimated scf accuracy    <       0.00000031 Ry

     total magnetization       =     6.06 Bohr mag/cell
     absolute magnetization    =     6.42 Bohr mag/cell
[tb_dev] Currently allocated     3.05E+00 Mbytes, locked:    0 /  10
[tb_pin] Currently allocated     0.00E+00 Mbytes, locked:    0 /   0

     iteration # 27     ecut=    90.00 Ry     beta= 0.10
     Davidson diagonalization with overlap

---- Real-time Memory Report at c_bands before calling an iterative solver
          2237 MiB given to the printing process from OS
          1340 MiB allocation reported by mallinfo(arena+hblkhd)
         56690 MiB available memory on the node where the printing process lives
     GPU memory used/free/total (MiB): 1650 / 14630 / 16280
------------------
     ethr =  1.80E-10,  avg # of iterations =  7.4

     negative rho (up, down):  0.000E+00 4.120E-05

     total cpu time spent up to now is      211.2 secs

     total energy              =    -903.45568935 Ry
     estimated scf accuracy    <       0.00000014 Ry

     total magnetization       =     6.04 Bohr mag/cell
     absolute magnetization    =     6.40 Bohr mag/cell
[tb_dev] Currently allocated     3.05E+00 Mbytes, locked:    0 /  10
[tb_pin] Currently allocated     0.00E+00 Mbytes, locked:    0 /   0

     iteration # 28     ecut=    90.00 Ry     beta= 0.10
     Davidson diagonalization with overlap

---- Real-time Memory Report at c_bands before calling an iterative solver
          2243 MiB given to the printing process from OS
          1346 MiB allocation reported by mallinfo(arena+hblkhd)
         56683 MiB available memory on the node where the printing process lives
     GPU memory used/free/total (MiB): 1650 / 14630 / 16280
------------------
     ethr =  1.80E-10,  avg # of iterations =  1.0

     negative rho (up, down):  0.000E+00 4.132E-05

     total cpu time spent up to now is      215.4 secs

     total energy              =    -903.45568769 Ry
     estimated scf accuracy    <       0.00000013 Ry

     total magnetization       =     6.03 Bohr mag/cell
     absolute magnetization    =     6.40 Bohr mag/cell
[tb_dev] Currently allocated     3.05E+00 Mbytes, locked:    0 /  10
[tb_pin] Currently allocated     0.00E+00 Mbytes, locked:    0 /   0

     iteration # 29     ecut=    90.00 Ry     beta= 0.10
     Davidson diagonalization with overlap

---- Real-time Memory Report at c_bands before calling an iterative solver
          2251 MiB given to the printing process from OS
          1352 MiB allocation reported by mallinfo(arena+hblkhd)
         56679 MiB available memory on the node where the printing process lives
     GPU memory used/free/total (MiB): 1650 / 14630 / 16280
------------------
     ethr =  1.80E-10,  avg # of iterations =  5.9

     negative rho (up, down):  0.000E+00 4.130E-05

     total cpu time spent up to now is      222.9 secs

     total energy              =    -903.45568889 Ry
     estimated scf accuracy    <       0.00000025 Ry

     total magnetization       =     6.05 Bohr mag/cell
     absolute magnetization    =     6.41 Bohr mag/cell
[tb_dev] Currently allocated     3.05E+00 Mbytes, locked:    0 /  10
[tb_pin] Currently allocated     0.00E+00 Mbytes, locked:    0 /   0

     iteration # 30     ecut=    90.00 Ry     beta= 0.10
     Davidson diagonalization with overlap

---- Real-time Memory Report at c_bands before calling an iterative solver
          2257 MiB given to the printing process from OS
          1358 MiB allocation reported by mallinfo(arena+hblkhd)
         56669 MiB available memory on the node where the printing process lives
     GPU memory used/free/total (MiB): 1650 / 14630 / 16280
------------------
     ethr =  1.80E-10,  avg # of iterations =  2.1

     negative rho (up, down):  0.000E+00 4.136E-05

     total cpu time spent up to now is      227.7 secs

     total energy              =    -903.45568841 Ry
     estimated scf accuracy    <       0.00000023 Ry

     total magnetization       =     6.04 Bohr mag/cell
     absolute magnetization    =     6.41 Bohr mag/cell
[tb_dev] Currently allocated     3.05E+00 Mbytes, locked:    0 /  10
[tb_pin] Currently allocated     0.00E+00 Mbytes, locked:    0 /   0

     iteration # 31     ecut=    90.00 Ry     beta= 0.10
     Davidson diagonalization with overlap

---- Real-time Memory Report at c_bands before calling an iterative solver
          2263 MiB given to the printing process from OS
          1364 MiB allocation reported by mallinfo(arena+hblkhd)
         56668 MiB available memory on the node where the printing process lives
     GPU memory used/free/total (MiB): 1650 / 14630 / 16280
------------------
     ethr =  1.80E-10,  avg # of iterations =  4.1

     negative rho (up, down):  0.000E+00 4.075E-05

     total cpu time spent up to now is      234.0 secs

     total energy              =    -903.45566315 Ry
     estimated scf accuracy    <       0.00000025 Ry

     total magnetization       =     6.05 Bohr mag/cell
     absolute magnetization    =     6.41 Bohr mag/cell
[tb_dev] Currently allocated     3.05E+00 Mbytes, locked:    0 /  10
[tb_pin] Currently allocated     0.00E+00 Mbytes, locked:    0 /   0

     iteration # 32     ecut=    90.00 Ry     beta= 0.10
     Davidson diagonalization with overlap

---- Real-time Memory Report at c_bands before calling an iterative solver
          2269 MiB given to the printing process from OS
          1370 MiB allocation reported by mallinfo(arena+hblkhd)
         56659 MiB available memory on the node where the printing process lives
     GPU memory used/free/total (MiB): 1650 / 14630 / 16280
------------------
     ethr =  1.80E-10,  avg # of iterations =  9.8

     negative rho (up, down):  0.000E+00 4.060E-05

     total cpu time spent up to now is      245.2 secs

     total energy              =    -903.45568935 Ry
     estimated scf accuracy    <       0.00000007 Ry

     total magnetization       =     5.99 Bohr mag/cell
     absolute magnetization    =     6.35 Bohr mag/cell
[tb_dev] Currently allocated     3.05E+00 Mbytes, locked:    0 /  10
[tb_pin] Currently allocated     0.00E+00 Mbytes, locked:    0 /   0

     iteration # 33     ecut=    90.00 Ry     beta= 0.10
     Davidson diagonalization with overlap

---- Real-time Memory Report at c_bands before calling an iterative solver
          2275 MiB given to the printing process from OS
          1376 MiB allocation reported by mallinfo(arena+hblkhd)
         56651 MiB available memory on the node where the printing process lives
     GPU memory used/free/total (MiB): 1650 / 14630 / 16280
------------------
     ethr =  1.32E-10,  avg # of iterations =  7.0

     negative rho (up, down):  0.000E+00 4.033E-05

     total cpu time spent up to now is      253.9 secs

     total energy              =    -903.45568598 Ry
     estimated scf accuracy    <       0.00000007 Ry

     total magnetization       =     5.98 Bohr mag/cell
     absolute magnetization    =     6.34 Bohr mag/cell
[tb_dev] Currently allocated     3.05E+00 Mbytes, locked:    0 /  10
[tb_pin] Currently allocated     0.00E+00 Mbytes, locked:    0 /   0

     iteration # 34     ecut=    90.00 Ry     beta= 0.10
     Davidson diagonalization with overlap

---- Real-time Memory Report at c_bands before calling an iterative solver
          2282 MiB given to the printing process from OS
          1382 MiB allocation reported by mallinfo(arena+hblkhd)
         56647 MiB available memory on the node where the printing process lives
     GPU memory used/free/total (MiB): 1650 / 14630 / 16280
------------------
     ethr =  1.32E-10,  avg # of iterations =  8.5

     negative rho (up, down):  0.000E+00 4.043E-05

     total cpu time spent up to now is      263.8 secs

     total energy              =    -903.45569082 Ry
     estimated scf accuracy    <       0.00000013 Ry

     total magnetization       =     5.95 Bohr mag/cell
     absolute magnetization    =     6.31 Bohr mag/cell
[tb_dev] Currently allocated     3.05E+00 Mbytes, locked:    0 /  10
[tb_pin] Currently allocated     0.00E+00 Mbytes, locked:    0 /   0

     iteration # 35     ecut=    90.00 Ry     beta= 0.10
     Davidson diagonalization with overlap

---- Real-time Memory Report at c_bands before calling an iterative solver
          2285 MiB given to the printing process from OS
          1388 MiB allocation reported by mallinfo(arena+hblkhd)
         56642 MiB available memory on the node where the printing process lives
     GPU memory used/free/total (MiB): 1650 / 14630 / 16280
------------------
     ethr =  1.32E-10,  avg # of iterations =  5.8

     negative rho (up, down):  0.000E+00 4.106E-05

     total cpu time spent up to now is      271.5 secs

     total energy              =    -903.45565841 Ry
     estimated scf accuracy    <       0.00000010 Ry

     total magnetization       =     5.96 Bohr mag/cell
     absolute magnetization    =     6.32 Bohr mag/cell
[tb_dev] Currently allocated     3.05E+00 Mbytes, locked:    0 /  10
[tb_pin] Currently allocated     0.00E+00 Mbytes, locked:    0 /   0

     iteration # 36     ecut=    90.00 Ry     beta= 0.10
     Davidson diagonalization with overlap

---- Real-time Memory Report at c_bands before calling an iterative solver
          2291 MiB given to the printing process from OS
          1393 MiB allocation reported by mallinfo(arena+hblkhd)
         56637 MiB available memory on the node where the printing process lives
     GPU memory used/free/total (MiB): 1650 / 14630 / 16280
------------------
     ethr =  1.32E-10,  avg # of iterations = 11.1

     negative rho (up, down):  0.000E+00 4.113E-05

     total cpu time spent up to now is      284.1 secs

     total energy              =    -903.45568934 Ry
     estimated scf accuracy    <       0.00000012 Ry

     total magnetization       =     6.02 Bohr mag/cell
     absolute magnetization    =     6.38 Bohr mag/cell
[tb_dev] Currently allocated     3.05E+00 Mbytes, locked:    0 /  10
[tb_pin] Currently allocated     0.00E+00 Mbytes, locked:    0 /   0

     iteration # 37     ecut=    90.00 Ry     beta= 0.10
     Davidson diagonalization with overlap

---- Real-time Memory Report at c_bands before calling an iterative solver
          2297 MiB given to the printing process from OS
          1399 MiB allocation reported by mallinfo(arena+hblkhd)
         56628 MiB available memory on the node where the printing process lives
     GPU memory used/free/total (MiB): 1650 / 14630 / 16280
------------------
     ethr =  1.32E-10,  avg # of iterations =  5.1

     negative rho (up, down):  0.000E+00 4.135E-05

     total cpu time spent up to now is      291.2 secs

     total energy              =    -903.45568484 Ry
     estimated scf accuracy    <       0.00000014 Ry

     total magnetization       =     6.03 Bohr mag/cell
     absolute magnetization    =     6.39 Bohr mag/cell
[tb_dev] Currently allocated     3.05E+00 Mbytes, locked:    0 /  10
[tb_pin] Currently allocated     0.00E+00 Mbytes, locked:    0 /   0

     iteration # 38     ecut=    90.00 Ry     beta= 0.10
     Davidson diagonalization with overlap

---- Real-time Memory Report at c_bands before calling an iterative solver
          2303 MiB given to the printing process from OS
          1405 MiB allocation reported by mallinfo(arena+hblkhd)
         56624 MiB available memory on the node where the printing process lives
     GPU memory used/free/total (MiB): 1650 / 14630 / 16280
------------------
     ethr =  1.32E-10,  avg # of iterations =  8.0

     negative rho (up, down):  0.000E+00 4.134E-05

     total cpu time spent up to now is      300.6 secs

     total energy              =    -903.45568875 Ry
     estimated scf accuracy    <       0.00000028 Ry

     total magnetization       =     6.05 Bohr mag/cell
     absolute magnetization    =     6.41 Bohr mag/cell
[tb_dev] Currently allocated     3.05E+00 Mbytes, locked:    0 /  10
[tb_pin] Currently allocated     0.00E+00 Mbytes, locked:    0 /   0

     iteration # 39     ecut=    90.00 Ry     beta= 0.10
     Davidson diagonalization with overlap

---- Real-time Memory Report at c_bands before calling an iterative solver
          2309 MiB given to the printing process from OS
          1411 MiB allocation reported by mallinfo(arena+hblkhd)
         56620 MiB available memory on the node where the printing process lives
     GPU memory used/free/total (MiB): 1650 / 14630 / 16280
------------------
     ethr =  1.32E-10,  avg # of iterations =  1.7

     negative rho (up, down):  0.000E+00 4.128E-05

     total cpu time spent up to now is      305.1 secs

     total energy              =    -903.45568881 Ry
     estimated scf accuracy    <       0.00000027 Ry

     total magnetization       =     6.05 Bohr mag/cell
     absolute magnetization    =     6.41 Bohr mag/cell
[tb_dev] Currently allocated     3.05E+00 Mbytes, locked:    0 /  10
[tb_pin] Currently allocated     0.00E+00 Mbytes, locked:    0 /   0

     iteration # 40     ecut=    90.00 Ry     beta= 0.10
     Davidson diagonalization with overlap

---- Real-time Memory Report at c_bands before calling an iterative solver
          2318 MiB given to the printing process from OS
          1422 MiB allocation reported by mallinfo(arena+hblkhd)
         56610 MiB available memory on the node where the printing process lives
     GPU memory used/free/total (MiB): 1650 / 14630 / 16280
------------------
     ethr =  1.32E-10,  avg # of iterations =  4.5

     negative rho (up, down):  0.000E+00 4.117E-05

     total cpu time spent up to now is      311.8 secs

     total energy              =    -903.45568848 Ry
     estimated scf accuracy    <       0.00000021 Ry

     total magnetization       =     6.04 Bohr mag/cell
     absolute magnetization    =     6.40 Bohr mag/cell
[tb_dev] Currently allocated     3.05E+00 Mbytes, locked:    0 /  10
[tb_pin] Currently allocated     0.00E+00 Mbytes, locked:    0 /   0

     iteration # 41     ecut=    90.00 Ry     beta= 0.10
     Davidson diagonalization with overlap

---- Real-time Memory Report at c_bands before calling an iterative solver
          2324 MiB given to the printing process from OS
          1428 MiB allocation reported by mallinfo(arena+hblkhd)
         56602 MiB available memory on the node where the printing process lives
     GPU memory used/free/total (MiB): 1650 / 14630 / 16280
------------------
     ethr =  1.32E-10,  avg # of iterations =  6.5

     negative rho (up, down):  0.000E+00 4.128E-05

     total cpu time spent up to now is      319.9 secs

     total energy              =    -903.45568803 Ry
     estimated scf accuracy    <       0.00000014 Ry

     total magnetization       =     6.03 Bohr mag/cell
     absolute magnetization    =     6.39 Bohr mag/cell
[tb_dev] Currently allocated     3.05E+00 Mbytes, locked:    0 /  10
[tb_pin] Currently allocated     0.00E+00 Mbytes, locked:    0 /   0

     iteration # 42     ecut=    90.00 Ry     beta= 0.10
     Davidson diagonalization with overlap

---- Real-time Memory Report at c_bands before calling an iterative solver
          2331 MiB given to the printing process from OS
          1433 MiB allocation reported by mallinfo(arena+hblkhd)
         56597 MiB available memory on the node where the printing process lives
     GPU memory used/free/total (MiB): 1650 / 14630 / 16280
------------------
     ethr =  1.32E-10,  avg # of iterations =  6.4

     negative rho (up, down):  0.000E+00 4.102E-05

     total cpu time spent up to now is      328.0 secs

     total energy              =    -903.45568468 Ry
     estimated scf accuracy    <       0.00000021 Ry

     total magnetization       =     6.04 Bohr mag/cell
     absolute magnetization    =     6.40 Bohr mag/cell
[tb_dev] Currently allocated     3.05E+00 Mbytes, locked:    0 /  10
[tb_pin] Currently allocated     0.00E+00 Mbytes, locked:    0 /   0

     iteration # 43     ecut=    90.00 Ry     beta= 0.10
     Davidson diagonalization with overlap

---- Real-time Memory Report at c_bands before calling an iterative solver
          2338 MiB given to the printing process from OS
          1439 MiB allocation reported by mallinfo(arena+hblkhd)
         56589 MiB available memory on the node where the printing process lives
     GPU memory used/free/total (MiB): 1650 / 14630 / 16280
------------------
     ethr =  1.32E-10,  avg # of iterations =  8.3

     negative rho (up, down):  0.000E+00 4.048E-05

     total cpu time spent up to now is      337.7 secs

     total energy              =    -903.45566899 Ry
     estimated scf accuracy    <       0.00000011 Ry

     total magnetization       =     6.02 Bohr mag/cell
     absolute magnetization    =     6.38 Bohr mag/cell
[tb_dev] Currently allocated     3.05E+00 Mbytes, locked:    0 /  10
[tb_pin] Currently allocated     0.00E+00 Mbytes, locked:    0 /   0

     iteration # 44     ecut=    90.00 Ry     beta= 0.10
     Davidson diagonalization with overlap

---- Real-time Memory Report at c_bands before calling an iterative solver
          2344 MiB given to the printing process from OS
          1445 MiB allocation reported by mallinfo(arena+hblkhd)
         56586 MiB available memory on the node where the printing process lives
     GPU memory used/free/total (MiB): 1650 / 14630 / 16280
------------------
     ethr =  1.32E-10,  avg # of iterations = 10.7

     negative rho (up, down):  0.000E+00 4.101E-05

     total cpu time spent up to now is      349.9 secs

     total energy              =    -903.45566824 Ry
     estimated scf accuracy    <       0.00000011 Ry

     total magnetization       =     5.97 Bohr mag/cell
     absolute magnetization    =     6.33 Bohr mag/cell
[tb_dev] Currently allocated     3.05E+00 Mbytes, locked:    0 /  10
[tb_pin] Currently allocated     0.00E+00 Mbytes, locked:    0 /   0

     iteration # 45     ecut=    90.00 Ry     beta= 0.10
     Davidson diagonalization with overlap

---- Real-time Memory Report at c_bands before calling an iterative solver
          2350 MiB given to the printing process from OS
          1451 MiB allocation reported by mallinfo(arena+hblkhd)
         56575 MiB available memory on the node where the printing process lives
     GPU memory used/free/total (MiB): 1650 / 14630 / 16280
------------------
     ethr =  1.32E-10,  avg # of iterations = 10.2

     negative rho (up, down):  0.000E+00 4.097E-05

     total cpu time spent up to now is      361.5 secs

     total energy              =    -903.45569007 Ry
     estimated scf accuracy    <       0.00000014 Ry

     total magnetization       =     6.02 Bohr mag/cell
     absolute magnetization    =     6.38 Bohr mag/cell
[tb_dev] Currently allocated     3.05E+00 Mbytes, locked:    0 /  10
[tb_pin] Currently allocated     0.00E+00 Mbytes, locked:    0 /   0

     iteration # 46     ecut=    90.00 Ry     beta= 0.10
     Davidson diagonalization with overlap

---- Real-time Memory Report at c_bands before calling an iterative solver
          2356 MiB given to the printing process from OS
          1457 MiB allocation reported by mallinfo(arena+hblkhd)
         56574 MiB available memory on the node where the printing process lives
     GPU memory used/free/total (MiB): 1650 / 14630 / 16280
------------------
     ethr =  1.32E-10,  avg # of iterations =  3.1

     negative rho (up, down):  0.000E+00 4.048E-05

     total cpu time spent up to now is      367.0 secs

     total energy              =    -903.45567234 Ry
     estimated scf accuracy    <       0.00000012 Ry

     total magnetization       =     6.01 Bohr mag/cell
     absolute magnetization    =     6.37 Bohr mag/cell
[tb_dev] Currently allocated     3.05E+00 Mbytes, locked:    0 /  10
[tb_pin] Currently allocated     0.00E+00 Mbytes, locked:    0 /   0

     iteration # 47     ecut=    90.00 Ry     beta= 0.10
     Davidson diagonalization with overlap

---- Real-time Memory Report at c_bands before calling an iterative solver
          2363 MiB given to the printing process from OS
          1463 MiB allocation reported by mallinfo(arena+hblkhd)
         56564 MiB available memory on the node where the printing process lives
     GPU memory used/free/total (MiB): 1650 / 14630 / 16280
------------------
     ethr =  1.32E-10,  avg # of iterations = 10.4

     negative rho (up, down):  0.000E+00 4.020E-05

     total cpu time spent up to now is      378.8 secs

     total energy              =    -903.45568626 Ry
     estimated scf accuracy    <       0.00000009 Ry

     total magnetization       =     5.97 Bohr mag/cell
     absolute magnetization    =     6.33 Bohr mag/cell
[tb_dev] Currently allocated     3.05E+00 Mbytes, locked:    0 /  10
[tb_pin] Currently allocated     0.00E+00 Mbytes, locked:    0 /   0

     iteration # 48     ecut=    90.00 Ry     beta= 0.10
     Davidson diagonalization with overlap

---- Real-time Memory Report at c_bands before calling an iterative solver
          2369 MiB given to the printing process from OS
          1469 MiB allocation reported by mallinfo(arena+hblkhd)
         56557 MiB available memory on the node where the printing process lives
     GPU memory used/free/total (MiB): 1650 / 14630 / 16280
------------------
     ethr =  1.32E-10,  avg # of iterations =  8.4

     negative rho (up, down):  0.000E+00 4.127E-05

     total cpu time spent up to now is      388.7 secs

     total energy              =    -903.45559657 Ry
     estimated scf accuracy    <       0.00000022 Ry

     total magnetization       =     5.94 Bohr mag/cell
     absolute magnetization    =     6.30 Bohr mag/cell
[tb_dev] Currently allocated     3.05E+00 Mbytes, locked:    0 /  10
[tb_pin] Currently allocated     0.00E+00 Mbytes, locked:    0 /   0

     iteration # 49     ecut=    90.00 Ry     beta= 0.10
     Davidson diagonalization with overlap

---- Real-time Memory Report at c_bands before calling an iterative solver
          2376 MiB given to the printing process from OS
          1475 MiB allocation reported by mallinfo(arena+hblkhd)
         56554 MiB available memory on the node where the printing process lives
     GPU memory used/free/total (MiB): 1650 / 14630 / 16280
------------------
     c_bands:  1 eigenvalues not converged
     c_bands:  1 eigenvalues not converged
     c_bands:  1 eigenvalues not converged
     ethr =  1.32E-10,  avg # of iterations = 13.0

     negative rho (up, down):  0.000E+00 4.100E-05

     total cpu time spent up to now is      403.2 secs

     total energy              =    -903.45568463 Ry
     estimated scf accuracy    <       0.00000021 Ry

     total magnetization       =     6.04 Bohr mag/cell
     absolute magnetization    =     6.40 Bohr mag/cell
[tb_dev] Currently allocated     3.05E+00 Mbytes, locked:    0 /  10
[tb_pin] Currently allocated     0.00E+00 Mbytes, locked:    0 /   0

     iteration # 50     ecut=    90.00 Ry     beta= 0.10
     Davidson diagonalization with overlap

---- Real-time Memory Report at c_bands before calling an iterative solver
[...]
------------------
     ethr =  1.32E-10,  avg # of iterations =  7.7

     negative rho (up, down):  0.000E+00 4.153E-05

     total cpu time spent up to now is      568.9 secs

     total energy              =    -903.45568316 Ry
     estimated scf accuracy    <       0.00000021 Ry

     total magnetization       =     6.04 Bohr mag/cell
     absolute magnetization    =     6.40 Bohr mag/cell
[tb_dev] Currently allocated     3.05E+00 Mbytes, locked:    0 /  10
[tb_pin] Currently allocated     0.00E+00 Mbytes, locked:    0 /   0

     iteration # 66     ecut=    90.00 Ry     beta= 0.10
     Davidson diagonalization with overlap

---- Real-time Memory Report at c_bands before calling an iterative solver
          2484 MiB given to the printing process from OS
          1583 MiB allocation reported by mallinfo(arena+hblkhd)
         56445 MiB available memory on the node where the printing process lives
     GPU memory used/free/total (MiB): 1650 / 14630 / 16280
------------------
     ethr =  1.32E-10,  avg # of iterations =  8.3

     negative rho (up, down):  0.000E+00 4.148E-05

     total cpu time spent up to now is      578.6 secs

     total energy              =    -903.45568781 Ry
     estimated scf accuracy    <       0.00000045 Ry

     total magnetization       =     6.06 Bohr mag/cell
     absolute magnetization    =     6.43 Bohr mag/cell
[tb_dev] Currently allocated     3.05E+00 Mbytes, locked:    0 /  10
[tb_pin] Currently allocated     0.00E+00 Mbytes, locked:    0 /   0

     iteration # 67     ecut=    90.00 Ry     beta= 0.10
     Davidson diagonalization with overlap

---- Real-time Memory Report at c_bands before calling an iterative solver
          2489 MiB given to the printing process from OS
          1589 MiB allocation reported by mallinfo(arena+hblkhd)
         56439 MiB available memory on the node where the printing process lives
     GPU memory used/free/total (MiB): 1650 / 14630 / 16280
------------------
     ethr =  1.32E-10,  avg # of iterations =  4.1

     negative rho (up, down):  0.000E+00 4.134E-05

     total cpu time spent up to now is      584.9 secs

     total energy              =    -903.45568733 Ry
     estimated scf accuracy    <       0.00000037 Ry

     total magnetization       =     6.06 Bohr mag/cell
     absolute magnetization    =     6.42 Bohr mag/cell
[tb_dev] Currently allocated     3.05E+00 Mbytes, locked:    0 /  10
[tb_pin] Currently allocated     0.00E+00 Mbytes, locked:    0 /   0

     iteration # 68     ecut=    90.00 Ry     beta= 0.10
     Davidson diagonalization with overlap

---- Real-time Memory Report at c_bands before calling an iterative solver
          2496 MiB given to the printing process from OS
          1595 MiB allocation reported by mallinfo(arena+hblkhd)
         56434 MiB available memory on the node where the printing process lives
     GPU memory used/free/total (MiB): 1650 / 14630 / 16280
------------------
     ethr =  1.32E-10,  avg # of iterations =  6.5

     negative rho (up, down):  0.000E+00 4.129E-05

     total cpu time spent up to now is      593.0 secs

     total energy              =    -903.45568877 Ry
     estimated scf accuracy    <       0.00000025 Ry

     total magnetization       =     6.05 Bohr mag/cell
     absolute magnetization    =     6.41 Bohr mag/cell
[tb_dev] Currently allocated     3.05E+00 Mbytes, locked:    0 /  10
[tb_pin] Currently allocated     0.00E+00 Mbytes, locked:    0 /   0

     iteration # 69     ecut=    90.00 Ry     beta= 0.10
     Davidson diagonalization with overlap

---- Real-time Memory Report at c_bands before calling an iterative solver
          2502 MiB given to the printing process from OS
          1601 MiB allocation reported by mallinfo(arena+hblkhd)
         56426 MiB available memory on the node where the printing process lives
     GPU memory used/free/total (MiB): 1650 / 14630 / 16280
------------------
     ethr =  1.32E-10,  avg # of iterations =  4.8

     negative rho (up, down):  0.000E+00 4.136E-05

     total cpu time spent up to now is      599.9 secs

     total energy              =    -903.45568829 Ry
     estimated scf accuracy    <       0.00000021 Ry

     total magnetization       =     6.04 Bohr mag/cell
     absolute magnetization    =     6.40 Bohr mag/cell
[tb_dev] Currently allocated     3.05E+00 Mbytes, locked:    0 /  10
[tb_pin] Currently allocated     0.00E+00 Mbytes, locked:    0 /   0

     iteration # 70     ecut=    90.00 Ry     beta= 0.10
     Davidson diagonalization with overlap

---- Real-time Memory Report at c_bands before calling an iterative solver
          2510 MiB given to the printing process from OS
          1616 MiB allocation reported by mallinfo(arena+hblkhd)
         56418 MiB available memory on the node where the printing process lives
     GPU memory used/free/total (MiB): 1650 / 14630 / 16280
------------------
     ethr =  1.32E-10,  avg # of iterations =  4.8

     negative rho (up, down):  0.000E+00 4.141E-05

     total cpu time spent up to now is      606.8 secs

     total energy              =    -903.45568813 Ry
     estimated scf accuracy    <       0.00000026 Ry

     total magnetization       =     6.05 Bohr mag/cell
     absolute magnetization    =     6.41 Bohr mag/cell
[tb_dev] Currently allocated     3.05E+00 Mbytes, locked:    0 /  10
[tb_pin] Currently allocated     0.00E+00 Mbytes, locked:    0 /   0

     iteration # 71     ecut=    90.00 Ry     beta= 0.10
     Davidson diagonalization with overlap

---- Real-time Memory Report at c_bands before calling an iterative solver
          2516 MiB given to the printing process from OS
          1622 MiB allocation reported by mallinfo(arena+hblkhd)
         56411 MiB available memory on the node where the printing process lives
     GPU memory used/free/total (MiB): 1650 / 14630 / 16280
------------------
     ethr =  1.32E-10,  avg # of iterations =  4.8

     negative rho (up, down):  0.000E+00 4.062E-05

     total cpu time spent up to now is      613.6 secs

     total energy              =    -903.45564286 Ry
     estimated scf accuracy    <       0.00000031 Ry

     total magnetization       =     6.05 Bohr mag/cell
     absolute magnetization    =     6.42 Bohr mag/cell
[tb_dev] Currently allocated     3.05E+00 Mbytes, locked:    0 /  10
[tb_pin] Currently allocated     0.00E+00 Mbytes, locked:    0 /   0

     iteration # 72     ecut=    90.00 Ry     beta= 0.10
     Davidson diagonalization with overlap

---- Real-time Memory Report at c_bands before calling an iterative solver
          2524 MiB given to the printing process from OS
          1628 MiB allocation reported by mallinfo(arena+hblkhd)
         56408 MiB available memory on the node where the printing process lives
     GPU memory used/free/total (MiB): 1650 / 14630 / 16280
------------------
     c_bands:  1 eigenvalues not converged
     ethr =  1.32E-10,  avg # of iterations = 11.5

     negative rho (up, down):  0.000E+00 4.077E-05

     total cpu time spent up to now is      626.7 secs

     total energy              =    -903.45568902 Ry
     estimated scf accuracy    <       0.00000007 Ry

     total magnetization       =     5.98 Bohr mag/cell
     absolute magnetization    =     6.34 Bohr mag/cell
[tb_dev] Currently allocated     3.05E+00 Mbytes, locked:    0 /  10
[tb_pin] Currently allocated     0.00E+00 Mbytes, locked:    0 /   0

     iteration # 73     ecut=    90.00 Ry     beta= 0.10
     Davidson diagonalization with overlap

---- Real-time Memory Report at c_bands before calling an iterative solver
          2530 MiB given to the printing process from OS
          1634 MiB allocation reported by mallinfo(arena+hblkhd)
         56402 MiB available memory on the node where the printing process lives
     GPU memory used/free/total (MiB): 1650 / 14630 / 16280
------------------
     ethr =  1.32E-10,  avg # of iterations =  6.5

     negative rho (up, down):  0.000E+00 4.069E-05

     total cpu time spent up to now is      634.8 secs

     total energy              =    -903.45569045 Ry
     estimated scf accuracy    <       0.00000007 Ry

     total magnetization       =     5.99 Bohr mag/cell
     absolute magnetization    =     6.35 Bohr mag/cell
[tb_dev] Currently allocated     3.05E+00 Mbytes, locked:    0 /  10
[tb_pin] Currently allocated     0.00E+00 Mbytes, locked:    0 /   0

     iteration # 74     ecut=    90.00 Ry     beta= 0.10
     Davidson diagonalization with overlap

---- Real-time Memory Report at c_bands before calling an iterative solver
          2537 MiB given to the printing process from OS
          1640 MiB allocation reported by mallinfo(arena+hblkhd)
         56390 MiB available memory on the node where the printing process lives
     GPU memory used/free/total (MiB): 1650 / 14630 / 16280
------------------
     ethr =  1.32E-10,  avg # of iterations =  5.2

     negative rho (up, down):  0.000E+00 4.052E-05

     total cpu time spent up to now is      642.1 secs

     total energy              =    -903.45568930 Ry
     estimated scf accuracy    <       0.00000007 Ry

     total magnetization       =     5.99 Bohr mag/cell
     absolute magnetization    =     6.35 Bohr mag/cell
[tb_dev] Currently allocated     3.05E+00 Mbytes, locked:    0 /  10
[tb_pin] Currently allocated     0.00E+00 Mbytes, locked:    0 /   0

     iteration # 75     ecut=    90.00 Ry     beta= 0.10
     Davidson diagonalization with overlap

---- Real-time Memory Report at c_bands before calling an iterative solver
          2544 MiB given to the printing process from OS
          1646 MiB allocation reported by mallinfo(arena+hblkhd)
         56381 MiB available memory on the node where the printing process lives
     GPU memory used/free/total (MiB): 1650 / 14630 / 16280
------------------
     ethr =  1.32E-10,  avg # of iterations =  7.4

     negative rho (up, down):  0.000E+00 4.031E-05

     total cpu time spent up to now is      651.0 secs

     total energy              =    -903.45568840 Ry
     estimated scf accuracy    <       0.00000009 Ry

     total magnetization       =     5.97 Bohr mag/cell
     absolute magnetization    =     6.33 Bohr mag/cell
[tb_dev] Currently allocated     3.05E+00 Mbytes, locked:    0 /  10
[tb_pin] Currently allocated     0.00E+00 Mbytes, locked:    0 /   0

     iteration # 76     ecut=    90.00 Ry     beta= 0.10
     Davidson diagonalization with overlap

---- Real-time Memory Report at c_bands before calling an iterative solver
          2551 MiB given to the printing process from OS
          1651 MiB allocation reported by mallinfo(arena+hblkhd)
         56377 MiB available memory on the node where the printing process lives
     GPU memory used/free/total (MiB): 1650 / 14630 / 16280
------------------
     ethr =  1.32E-10,  avg # of iterations =  8.0

     negative rho (up, down):  0.000E+00 4.094E-05

     total cpu time spent up to now is      660.4 secs

     total energy              =    -903.45565745 Ry
     estimated scf accuracy    <       0.00000014 Ry

     total magnetization       =     5.95 Bohr mag/cell
     absolute magnetization    =     6.31 Bohr mag/cell
[tb_dev] Currently allocated     3.05E+00 Mbytes, locked:    0 /  10
[tb_pin] Currently allocated     0.00E+00 Mbytes, locked:    0 /   0

     iteration # 77     ecut=    90.00 Ry     beta= 0.10
     Davidson diagonalization with overlap

---- Real-time Memory Report at c_bands before calling an iterative solver
          2559 MiB given to the printing process from OS
          1657 MiB allocation reported by mallinfo(arena+hblkhd)
         56373 MiB available memory on the node where the printing process lives
     GPU memory used/free/total (MiB): 1650 / 14630 / 16280
------------------
     ethr =  1.32E-10,  avg # of iterations = 11.2

     negative rho (up, down):  0.000E+00 4.106E-05

     total cpu time spent up to now is      672.9 secs

     total energy              =    -903.45568884 Ry
     estimated scf accuracy    <       0.00000008 Ry

     total magnetization       =     6.01 Bohr mag/cell
     absolute magnetization    =     6.37 Bohr mag/cell
[tb_dev] Currently allocated     3.05E+00 Mbytes, locked:    0 /  10
[tb_pin] Currently allocated     0.00E+00 Mbytes, locked:    0 /   0

     iteration # 78     ecut=    90.00 Ry     beta= 0.10
     Davidson diagonalization with overlap

---- Real-time Memory Report at c_bands before calling an iterative solver
          2563 MiB given to the printing process from OS
          1663 MiB allocation reported by mallinfo(arena+hblkhd)
         56363 MiB available memory on the node where the printing process lives
     GPU memory used/free/total (MiB): 1650 / 14630 / 16280
------------------
     ethr =  1.32E-10,  avg # of iterations =  6.5

     negative rho (up, down):  0.000E+00 4.123E-05

     total cpu time spent up to now is      681.0 secs

     total energy              =    -903.45568713 Ry
     estimated scf accuracy    <       0.00000010 Ry

     total magnetization       =     6.02 Bohr mag/cell
     absolute magnetization    =     6.38 Bohr mag/cell
[tb_dev] Currently allocated     3.05E+00 Mbytes, locked:    0 /  10
[tb_pin] Currently allocated     0.00E+00 Mbytes, locked:    0 /   0

     iteration # 79     ecut=    90.00 Ry     beta= 0.10
     Davidson diagonalization with overlap

---- Real-time Memory Report at c_bands before calling an iterative solver
          2568 MiB given to the printing process from OS
          1669 MiB allocation reported by mallinfo(arena+hblkhd)
         56358 MiB available memory on the node where the printing process lives
     GPU memory used/free/total (MiB): 1650 / 14630 / 16280
------------------
     ethr =  1.32E-10,  avg # of iterations =  7.2

     negative rho (up, down):  0.000E+00 4.137E-05

     total cpu time spent up to now is      689.7 secs

     total energy              =    -903.45568716 Ry
     estimated scf accuracy    <       0.00000017 Ry

     total magnetization       =     6.04 Bohr mag/cell
     absolute magnetization    =     6.40 Bohr mag/cell
[tb_dev] Currently allocated     3.05E+00 Mbytes, locked:    0 /  10
[tb_pin] Currently allocated     0.00E+00 Mbytes, locked:    0 /   0

     iteration # 80     ecut=    90.00 Ry     beta= 0.10
     Davidson diagonalization with overlap

---- Real-time Memory Report at c_bands before calling an iterative solver
          2575 MiB given to the printing process from OS
          1675 MiB allocation reported by mallinfo(arena+hblkhd)
         56354 MiB available memory on the node where the printing process lives
     GPU memory used/free/total (MiB): 1650 / 14630 / 16280
------------------
     ethr =  1.32E-10,  avg # of iterations =  6.9

     negative rho (up, down):  0.000E+00 4.131E-05

     total cpu time spent up to now is      698.3 secs

     total energy              =    -903.45568865 Ry
     estimated scf accuracy    <       0.00000027 Ry

     total magnetization       =     6.05 Bohr mag/cell
     absolute magnetization    =     6.41 Bohr mag/cell

     End of self-consistent calculation

     convergence NOT achieved after  80 iterations: stopping

     Writing config to output data dir ./out/aiida.save/
 
     init_run     :     28.91s CPU      4.46s WALL (       1 calls)
     electrons    :   1631.06s CPU    692.84s WALL (       1 calls)

     Called by init_run:
     wfcinit      :      0.26s CPU      0.26s WALL (       1 calls)
                                        0.26s GPU  (       1 calls)
     potinit      :     15.11s CPU      1.55s WALL (       1 calls)
     hinit0       :      8.13s CPU      1.88s WALL (       1 calls)

     Called by electrons:
     c_bands      :    581.69s CPU    549.41s WALL (      81 calls)
     sum_band     :     44.94s CPU     51.95s WALL (      81 calls)
     v_of_rho     :     33.71s CPU      3.07s WALL (      81 calls)
     v_h          :      4.84s CPU      0.43s WALL (      81 calls)
     v_xc         :     28.86s CPU      2.64s WALL (      81 calls)
     newd         :     58.72s CPU      5.72s WALL (      81 calls)
                                        5.72s GPU  (      81 calls)
     PAW_pot      :    892.53s CPU     80.86s WALL (      81 calls)
     mix_rho      :     21.68s CPU      2.22s WALL (      81 calls)

     Called by c_bands:
     init_us_2    :     27.78s CPU     28.51s WALL (   27216 calls)
     init_us_2:gp :     27.27s CPU     28.05s WALL (   27216 calls)
     cegterg      :    533.84s CPU    505.74s WALL (   13608 calls)

     Called by sum_band:
     sum_band:wei :      0.45s CPU      0.45s WALL (      81 calls)
                                        0.45s GPU  (      81 calls)
     sum_band:loo :     35.70s CPU     42.41s WALL (      81 calls)
                                       42.41s GPU  (      81 calls)
     sum_band:buf :      7.44s CPU      8.73s WALL (   13608 calls)
                                        8.65s GPU  (   13608 calls)
     sum_band:ini :     11.18s CPU     13.98s WALL (   13608 calls)
                                       13.90s GPU  (   13608 calls)
     sum_band:cal :      0.42s CPU      1.25s WALL (   13608 calls)
                                        1.02s GPU  (   13608 calls)
     sum_band:bec :      2.17s CPU      2.68s WALL (   13608 calls)
                                        2.59s GPU  (   13608 calls)
     addusdens    :      6.85s CPU      7.08s WALL (      81 calls)
                                        7.08s GPU  (      81 calls)
     addusd:skk   :      0.01s CPU      0.02s WALL (     243 calls)
                                        0.02s GPU  (     243 calls)

     Called by *egterg:
     cdiaghg      :    255.83s CPU    252.09s WALL (  104657 calls)
                                      251.40s GPU  (  104657 calls)
     cegterg:over :     13.76s CPU     13.00s WALL (   91385 calls)
     cegterg:upda :     27.93s CPU     26.46s WALL (   91385 calls)
     cegterg:last :      7.34s CPU      7.16s WALL (   52361 calls)
     h_psi        :    181.72s CPU    165.55s WALL (  104993 calls)
                                      164.97s GPU  (  104993 calls)
     s_psi        :      9.58s CPU     13.95s WALL (  104993 calls)
                                       12.97s GPU  (  104993 calls)
     g_psi        :      0.69s CPU      2.12s WALL (   91385 calls)
                                        1.54s GPU  (   91385 calls)

     Called by h_psi:
     h_psi:calbec :      3.81s CPU      9.83s WALL (  104993 calls)
                                        9.20s GPU  (  104993 calls)
     vloc_psi     :    146.93s CPU    134.11s WALL (  104993 calls)
                                      133.50s GPU  (  104993 calls)
     add_vuspsi   :     12.43s CPU     15.00s WALL (  104993 calls)
                                       14.38s GPU  (  104993 calls)

     General routines
     calbec       :      3.19s CPU      3.00s WALL (  118601 calls)
     fft          :      2.76s CPU      0.52s WALL (    2025 calls)
                                        0.42s GPU  (    1863 calls)
     ffts         :      0.06s CPU      0.03s WALL (     324 calls)
                                        0.01s GPU  (     162 calls)
     fftw         :      7.14s CPU     87.86s WALL (  330246 calls)
                                       86.05s GPU  (  330246 calls)
     interpolate  :      3.58s CPU      0.32s WALL (     162 calls)
     davcio       :      0.59s CPU      0.57s WALL (     354 calls)
 
     Parallel routines

     PAW routines
     PAW_pot      :    892.53s CPU     80.86s WALL (      81 calls)
     PAW_symme    :      1.10s CPU      0.18s WALL (     161 calls)
 
     PWSCF        :  27m43.72s CPU  11m38.67s WALL

 
   This run was terminated on:  20: 2:25  23Oct2023            

=------------------------------------------------------------------------------=
   JOB DONE.
=------------------------------------------------------------------------------=
