
     Program PWSCF v.7.2 starts on 22Oct2023 at 23:48:16 

     This program is part of the open-source Quantum ESPRESSO suite
     for quantum simulation of materials; please cite
         "P. Giannozzi et al., J. Phys.:Condens. Matter 21 395502 (2009);
         "P. Giannozzi et al., J. Phys.:Condens. Matter 29 465901 (2017);
         "P. Giannozzi et al., J. Chem. Phys. 152 154105 (2020);
          URL http://www.quantum-espresso.org", 
     in publications or presentations arising from this work. More details at
     http://www.quantum-espresso.org/quote

     Parallel version (MPI & OpenMP), running on      12 processor cores
     Number of MPI processes:                 1
     Threads/MPI process:                    12

     MPI processes distributed on     1 nodes
     60520 MiB available memory on the printing compute node when the environment starts
 
     Reading input from aiida.in

     Current dimensions of program PWSCF are:
     Max number of different atomic species (ntypx) = 10
     Max number of k-points (npk) =  40000
     Max angular momentum in pseudopotentials (lmaxx) =  4
     file Ba.pbesol-spn-kjpaw_psl.1.0.0.UPF: wavefunction(s)  5S 6S renormalized
     file Fe.pbesol-spn-kjpaw_psl.0.2.1.UPF: wavefunction(s)  3D renormalized
     file O.pbesol-n-kjpaw_psl.0.1.UPF: wavefunction(s)  2P renormalized
     Message from routine setup:
     using ibrav=0 with symmetry is DISCOURAGED, use correct ibrav instead
 
     Subspace diagonalization in iterative solution of the eigenvalue problem:
     a serial algorithm will be used

 
     G-vector sticks info
     --------------------
     sticks:   dense  smooth     PW     G-vecs:    dense   smooth      PW
     Sum        4941    1649    465              1008567   194201   28525
 
     Using Slab Decomposition
 


     bravais-lattice index     =            0
     lattice parameter (alat)  =       7.5797  a.u.
     unit-cell volume          =    1682.8043 (a.u.)^3
     number of atoms/cell      =           14
     number of atomic types    =            4
     number of electrons       =       122.00
     number of Kohn-Sham states=           73
     kinetic-energy cutoff     =      90.0000  Ry
     charge density cutoff     =    1080.0000  Ry
     scf convergence threshold =      2.8E-09
     mixing beta               =       0.4000
     number of iterations used =            8  plain     mixing
     Exchange-correlation= SLA  PW   PSX  PSC
                           (   1   4  10   8   0   0   0)

     GPU acceleration is ACTIVE.


     GPU used by master process:

        Device Number: 0
        Device name: Tesla P100-PCIE-16GB
        Compute capability : 60
        Ratio of single to double precision performance  : 2
        Memory Clock Rate (KHz): 715000
        Memory Bus Width (bits): 4096
        Peak Memory Bandwidth (GB/s): 732.16

     celldm(1)=   7.579691  celldm(2)=   0.000000  celldm(3)=   0.000000
     celldm(4)=   0.000000  celldm(5)=   0.000000  celldm(6)=   0.000000

     crystal axes: (cart. coord. in units of alat)
               a(1) = (   1.000000   0.000000   0.000000 )  
               a(2) = (   0.000000   1.000000   0.000000 )  
               a(3) = (   0.000000   0.000000   3.864373 )  

     reciprocal axes: (cart. coord. in units 2 pi/alat)
               b(1) = (  1.000000  0.000000  0.000000 )  
               b(2) = (  0.000000  1.000000  0.000000 )  
               b(3) = (  0.000000  0.000000  0.258774 )  


     PseudoPot. # 1 for Ba read from file:
     ./pseudo/Ba.pbesol-spn-kjpaw_psl.1.0.0.UPF
     MD5 check sum: f28c4a63d325c1a0d00fd3a4f19b8d73
     Pseudo is Projector augmented-wave + core cor, Zval = 10.0
     Generated using "atomic" code by A. Dal Corso  v.6.0 svn rev. 13079
     Shape of augmentation charge: PSQ
     Using radial grid of 1251 points,  7 beta functions with: 
                l(1) =   0
                l(2) =   0
                l(3) =   0
                l(4) =   1
                l(5) =   1
                l(6) =   2
                l(7) =   2
     Q(r) pseudized with 0 coefficients 


     PseudoPot. # 2 for Br read from file:
     ./pseudo/br_pbesol_v1.4.uspp.F.UPF
     MD5 check sum: 7bf6084e715f6bfd1944787c04c43e72
     Pseudo is Ultrasoft + core correction, Zval =  7.0
     Generated by new atomic code, or converted to UPF format
     Using radial grid of  879 points,  6 beta functions with: 
                l(1) =   0
                l(2) =   0
                l(3) =   1
                l(4) =   1
                l(5) =   2
                l(6) =   2
     Q(r) pseudized with  8 coefficients,  rinner =    1.200   1.200   1.200
                                                       1.200   1.200

     PseudoPot. # 3 for Fe read from file:
     ./pseudo/Fe.pbesol-spn-kjpaw_psl.0.2.1.UPF
     MD5 check sum: 4d7ec5aa2156491519a4322664fbbf52
     Pseudo is Projector augmented-wave + core cor, Zval = 16.0
     Generated using "atomic" code by A. Dal Corso  v.6.0 svn rev. 13079
     Shape of augmentation charge: PSQ
     Using radial grid of 1191 points,  6 beta functions with: 
                l(1) =   0
                l(2) =   0
                l(3) =   1
                l(4) =   1
                l(5) =   2
                l(6) =   2
     Q(r) pseudized with 0 coefficients 


     PseudoPot. # 4 for O  read from file:
     ./pseudo/O.pbesol-n-kjpaw_psl.0.1.UPF
     MD5 check sum: 81d73d1479e654e5638b0319f0d6c2c7
     Pseudo is Projector augmented-wave + core cor, Zval =  6.0
     Generated using "atomic" code by A. Dal Corso  v.6.0 svn rev. 13079
     Shape of augmentation charge: BESSEL
     Using radial grid of 1095 points,  4 beta functions with: 
                l(1) =   0
                l(2) =   0
                l(3) =   1
                l(4) =   1
     Q(r) pseudized with 0 coefficients 


     atomic species   valence    mass     pseudopotential
        Ba            10.00   137.32700     Ba( 1.00)
        Br             7.00    79.90400     Br( 1.00)
        Fe            16.00    55.84500     Fe( 1.00)
        O              6.00    15.99940     O ( 1.00)

     Starting magnetic structure 
     atomic species   magnetization
        Ba           0.100
        Br           0.100
        Fe           0.313
        O            0.100

      8 Sym. Ops. (no inversion) found


                                    s                        frac. trans.

      isym =  1     identity                                     

 cryst.   s( 1) = (     1          0          0      )
                  (     0          1          0      )
                  (     0          0          1      )

 cart.    s( 1) = (  1.0000000  0.0000000  0.0000000 )
                  (  0.0000000  1.0000000  0.0000000 )
                  (  0.0000000  0.0000000  1.0000000 )


      isym =  2     180 deg rotation - cart. axis [0,0,1]        

 cryst.   s( 2) = (    -1          0          0      )
                  (     0         -1          0      )
                  (     0          0          1      )

 cart.    s( 2) = ( -1.0000000  0.0000000  0.0000000 )
                  (  0.0000000 -1.0000000  0.0000000 )
                  (  0.0000000  0.0000000  1.0000000 )


      isym =  3      90 deg rotation - cart. axis [0,0,-1]       

 cryst.   s( 3) = (     0         -1          0      )
                  (     1          0          0      )
                  (     0          0          1      )

 cart.    s( 3) = (  0.0000000  1.0000000  0.0000000 )
                  ( -1.0000000  0.0000000  0.0000000 )
                  (  0.0000000  0.0000000  1.0000000 )


      isym =  4      90 deg rotation - cart. axis [0,0,1]        

 cryst.   s( 4) = (     0          1          0      )
                  (    -1          0          0      )
                  (     0          0          1      )

 cart.    s( 4) = (  0.0000000 -1.0000000  0.0000000 )
                  (  1.0000000  0.0000000  0.0000000 )
                  (  0.0000000  0.0000000  1.0000000 )


      isym =  5     inv. 180 deg rotation - cart. axis [0,1,0]   

 cryst.   s( 5) = (     1          0          0      )
                  (     0         -1          0      )
                  (     0          0          1      )

 cart.    s( 5) = (  1.0000000  0.0000000  0.0000000 )
                  (  0.0000000 -1.0000000  0.0000000 )
                  (  0.0000000  0.0000000  1.0000000 )


      isym =  6     inv. 180 deg rotation - cart. axis [1,0,0]   

 cryst.   s( 6) = (    -1          0          0      )
                  (     0          1          0      )
                  (     0          0          1      )

 cart.    s( 6) = ( -1.0000000  0.0000000  0.0000000 )
                  (  0.0000000  1.0000000  0.0000000 )
                  (  0.0000000  0.0000000  1.0000000 )


      isym =  7     inv. 180 deg rotation - cart. axis [1,1,0]   

 cryst.   s( 7) = (     0         -1          0      )
                  (    -1          0          0      )
                  (     0          0          1      )

 cart.    s( 7) = (  0.0000000 -1.0000000  0.0000000 )
                  ( -1.0000000  0.0000000  0.0000000 )
                  (  0.0000000  0.0000000  1.0000000 )


      isym =  8     inv. 180 deg rotation - cart. axis [1,-1,0]  

 cryst.   s( 8) = (     0          1          0      )
                  (     1          0          0      )
                  (     0          0          1      )

 cart.    s( 8) = (  0.0000000  1.0000000  0.0000000 )
                  (  1.0000000  0.0000000  0.0000000 )
                  (  0.0000000  0.0000000  1.0000000 )


   Cartesian axes

     site n.     atom                  positions (alat units)
         1           Ba  tau(   1) = (   0.5000000   0.5000000   0.3149464  )
         2           Ba  tau(   2) = (   0.5000000   0.5000000   1.2447145  )
         3           Ba  tau(   3) = (   0.0000000   0.0000000   1.9688980  )
         4           Ba  tau(   4) = (   0.0000000   0.0000000   2.9601097  )
         5           Fe  tau(   5) = (   0.5000000   0.5000000   2.4403515  )
         6           Fe  tau(   6) = (   0.0000000   0.0000000   0.8227250  )
         7           Br  tau(   7) = (   0.5000000   0.5000000   3.3048118  )
         8           Br  tau(   8) = (   0.0000000   0.0000000   0.0000000  )
         9           O   tau(   9) = (   0.0000000   0.5000000   0.7384817  )
        10           O   tau(  10) = (   0.5000000   0.0000000   0.7384817  )
        11           O   tau(  11) = (   0.0000000   0.5000000   2.5466218  )
        12           O   tau(  12) = (   0.5000000   0.0000000   2.5466218  )
        13           O   tau(  13) = (   0.5000000   0.5000000   1.9611693  )
        14           O   tau(  14) = (   0.0000000   0.0000000   1.3606457  )

   Crystallographic axes

     site n.     atom                  positions (cryst. coord.)
         1           Ba  tau(   1) = (  0.5000000  0.5000000  0.0815000  )
         2           Ba  tau(   2) = (  0.5000000  0.5000000  0.3221000  )
         3           Ba  tau(   3) = (  0.0000000  0.0000000  0.5095000  )
         4           Ba  tau(   4) = (  0.0000000  0.0000000  0.7660000  )
         5           Fe  tau(   5) = (  0.5000000  0.5000000  0.6315000  )
         6           Fe  tau(   6) = (  0.0000000  0.0000000  0.2129000  )
         7           Br  tau(   7) = (  0.5000000  0.5000000  0.8552000  )
         8           Br  tau(   8) = (  0.0000000  0.0000000  0.0000000  )
         9           O   tau(   9) = (  0.0000000  0.5000000  0.1911000  )
        10           O   tau(  10) = (  0.5000000  0.0000000  0.1911000  )
        11           O   tau(  11) = (  0.0000000  0.5000000  0.6590000  )
        12           O   tau(  12) = (  0.5000000  0.0000000  0.6590000  )
        13           O   tau(  13) = (  0.5000000  0.5000000  0.5075000  )
        14           O   tau(  14) = (  0.0000000  0.0000000  0.3521000  )

     number of k points=    42  Marzari-Vanderbilt smearing, width (Ry)=  0.0100
                       cart. coord. in units 2pi/alat
        k(    1) = (   0.0000000   0.0000000   0.0000000), wk =   0.0027548
        k(    2) = (   0.0000000   0.0000000   0.0862581), wk =   0.0055096
        k(    3) = (   0.0000000   0.0909091   0.0000000), wk =   0.0110193
        k(    4) = (   0.0000000   0.0909091   0.0862581), wk =   0.0220386
        k(    5) = (   0.0000000   0.1818182   0.0000000), wk =   0.0110193
        k(    6) = (   0.0000000   0.1818182   0.0862581), wk =   0.0220386
        k(    7) = (   0.0000000   0.2727273   0.0000000), wk =   0.0110193
        k(    8) = (   0.0000000   0.2727273   0.0862581), wk =   0.0220386
        k(    9) = (   0.0000000   0.3636364   0.0000000), wk =   0.0110193
        k(   10) = (   0.0000000   0.3636364   0.0862581), wk =   0.0220386
        k(   11) = (   0.0000000   0.4545455   0.0000000), wk =   0.0110193
        k(   12) = (   0.0000000   0.4545455   0.0862581), wk =   0.0220386
        k(   13) = (   0.0909091   0.0909091   0.0000000), wk =   0.0110193
        k(   14) = (   0.0909091   0.0909091   0.0862581), wk =   0.0220386
        k(   15) = (   0.0909091   0.1818182   0.0000000), wk =   0.0220386
        k(   16) = (   0.0909091   0.1818182   0.0862581), wk =   0.0440771
        k(   17) = (   0.0909091   0.2727273   0.0000000), wk =   0.0220386
        k(   18) = (   0.0909091   0.2727273   0.0862581), wk =   0.0440771
        k(   19) = (   0.0909091   0.3636364   0.0000000), wk =   0.0220386
        k(   20) = (   0.0909091   0.3636364   0.0862581), wk =   0.0440771
        k(   21) = (   0.0909091   0.4545455   0.0000000), wk =   0.0220386
        k(   22) = (   0.0909091   0.4545455   0.0862581), wk =   0.0440771
        k(   23) = (   0.1818182   0.1818182   0.0000000), wk =   0.0110193
        k(   24) = (   0.1818182   0.1818182   0.0862581), wk =   0.0220386
        k(   25) = (   0.1818182   0.2727273   0.0000000), wk =   0.0220386
        k(   26) = (   0.1818182   0.2727273   0.0862581), wk =   0.0440771
        k(   27) = (   0.1818182   0.3636364   0.0000000), wk =   0.0220386
        k(   28) = (   0.1818182   0.3636364   0.0862581), wk =   0.0440771
        k(   29) = (   0.1818182   0.4545455   0.0000000), wk =   0.0220386
        k(   30) = (   0.1818182   0.4545455   0.0862581), wk =   0.0440771
        k(   31) = (   0.2727273   0.2727273   0.0000000), wk =   0.0110193
        k(   32) = (   0.2727273   0.2727273   0.0862581), wk =   0.0220386
        k(   33) = (   0.2727273   0.3636364   0.0000000), wk =   0.0220386
        k(   34) = (   0.2727273   0.3636364   0.0862581), wk =   0.0440771
        k(   35) = (   0.2727273   0.4545455   0.0000000), wk =   0.0220386
        k(   36) = (   0.2727273   0.4545455   0.0862581), wk =   0.0440771
        k(   37) = (   0.3636364   0.3636364   0.0000000), wk =   0.0110193
        k(   38) = (   0.3636364   0.3636364   0.0862581), wk =   0.0220386
        k(   39) = (   0.3636364   0.4545455   0.0000000), wk =   0.0220386
        k(   40) = (   0.3636364   0.4545455   0.0862581), wk =   0.0440771
        k(   41) = (   0.4545455   0.4545455   0.0000000), wk =   0.0110193
        k(   42) = (   0.4545455   0.4545455   0.0862581), wk =   0.0220386

                       cryst. coord.
        k(    1) = (   0.0000000   0.0000000   0.0000000), wk =   0.0027548
        k(    2) = (   0.0000000   0.0000000   0.3333333), wk =   0.0055096
        k(    3) = (   0.0000000   0.0909091   0.0000000), wk =   0.0110193
        k(    4) = (   0.0000000   0.0909091   0.3333333), wk =   0.0220386
        k(    5) = (   0.0000000   0.1818182   0.0000000), wk =   0.0110193
        k(    6) = (   0.0000000   0.1818182   0.3333333), wk =   0.0220386
        k(    7) = (   0.0000000   0.2727273   0.0000000), wk =   0.0110193
        k(    8) = (   0.0000000   0.2727273   0.3333333), wk =   0.0220386
        k(    9) = (   0.0000000   0.3636364   0.0000000), wk =   0.0110193
        k(   10) = (   0.0000000   0.3636364   0.3333333), wk =   0.0220386
        k(   11) = (   0.0000000   0.4545455   0.0000000), wk =   0.0110193
        k(   12) = (   0.0000000   0.4545455   0.3333333), wk =   0.0220386
        k(   13) = (   0.0909091   0.0909091   0.0000000), wk =   0.0110193
        k(   14) = (   0.0909091   0.0909091   0.3333333), wk =   0.0220386
        k(   15) = (   0.0909091   0.1818182   0.0000000), wk =   0.0220386
        k(   16) = (   0.0909091   0.1818182   0.3333333), wk =   0.0440771
        k(   17) = (   0.0909091   0.2727273   0.0000000), wk =   0.0220386
        k(   18) = (   0.0909091   0.2727273   0.3333333), wk =   0.0440771
        k(   19) = (   0.0909091   0.3636364   0.0000000), wk =   0.0220386
        k(   20) = (   0.0909091   0.3636364   0.3333333), wk =   0.0440771
        k(   21) = (   0.0909091   0.4545455   0.0000000), wk =   0.0220386
        k(   22) = (   0.0909091   0.4545455   0.3333333), wk =   0.0440771
        k(   23) = (   0.1818182   0.1818182   0.0000000), wk =   0.0110193
        k(   24) = (   0.1818182   0.1818182   0.3333333), wk =   0.0220386
        k(   25) = (   0.1818182   0.2727273   0.0000000), wk =   0.0220386
        k(   26) = (   0.1818182   0.2727273   0.3333333), wk =   0.0440771
        k(   27) = (   0.1818182   0.3636364   0.0000000), wk =   0.0220386
        k(   28) = (   0.1818182   0.3636364   0.3333333), wk =   0.0440771
        k(   29) = (   0.1818182   0.4545455   0.0000000), wk =   0.0220386
        k(   30) = (   0.1818182   0.4545455   0.3333333), wk =   0.0440771
        k(   31) = (   0.2727273   0.2727273   0.0000000), wk =   0.0110193
        k(   32) = (   0.2727273   0.2727273   0.3333333), wk =   0.0220386
        k(   33) = (   0.2727273   0.3636364   0.0000000), wk =   0.0220386
        k(   34) = (   0.2727273   0.3636364   0.3333333), wk =   0.0440771
        k(   35) = (   0.2727273   0.4545455   0.0000000), wk =   0.0220386
        k(   36) = (   0.2727273   0.4545455   0.3333333), wk =   0.0440771
        k(   37) = (   0.3636364   0.3636364   0.0000000), wk =   0.0110193
        k(   38) = (   0.3636364   0.3636364   0.3333333), wk =   0.0220386
        k(   39) = (   0.3636364   0.4545455   0.0000000), wk =   0.0220386
        k(   40) = (   0.3636364   0.4545455   0.3333333), wk =   0.0440771
        k(   41) = (   0.4545455   0.4545455   0.0000000), wk =   0.0110193
        k(   42) = (   0.4545455   0.4545455   0.3333333), wk =   0.0220386

     Dense  grid:  1008567 G-vectors     FFT dimensions: (  80,  80, 320)

     Smooth grid:   194201 G-vectors     FFT dimensions: (  45,  45, 180)

     Dynamical RAM for                 wfc:      27.03 MB

     Dynamical RAM for     wfc (w. buffer):    2297.24 MB

     Dynamical RAM for           str. fact:      61.56 MB

     Dynamical RAM for           local pot:       0.00 MB

     Dynamical RAM for          nlocal pot:      72.56 MB

     Dynamical RAM for                qrad:      14.06 MB

     Dynamical RAM for          rho,v,vnew:     186.09 MB

     Dynamical RAM for               rhoin:      62.03 MB

     Dynamical RAM for            rho*nmix:     492.46 MB

     Dynamical RAM for           G-vectors:      59.19 MB

     Dynamical RAM for          h,s,v(r/c):       0.98 MB

     Dynamical RAM for          <psi|beta>:       0.22 MB

     Dynamical RAM for                 psi:      54.05 MB

     Dynamical RAM for                hpsi:      54.05 MB

     Dynamical RAM for                spsi:      54.05 MB

     Dynamical RAM for      wfcinit/wfcrot:      57.89 MB

     Dynamical RAM for           addusdens:    3262.58 MB

     Dynamical RAM for          addusforce:    3416.52 MB

     Dynamical RAM for         addusstress:    3408.78 MB

     Estimated static dynamical RAM per process >       2.85 GB

     Estimated max dynamical RAM per process >       6.67 GB

     Check: negative core charge=   -0.000002
     Generating pointlists ...
     new r_m :   0.2509 (alat units)  1.9018 (a.u.) for type    1
     new r_m :   0.3193 (alat units)  2.4202 (a.u.) for type    2
     new r_m :   0.1977 (alat units)  1.4982 (a.u.) for type    3
     new r_m :   0.1977 (alat units)  1.4982 (a.u.) for type    4

     Initial potential from superposition of free atoms

     starting charge     121.9364, renormalised to     122.0000
     Starting wfcs are   78 randomized atomic wfcs
     Checking if some PAW data can be deallocated... 

     total cpu time spent up to now is       18.2 secs

     Self-consistent Calculation
[tb_dev] Currently allocated     6.51E+00 Mbytes, locked:    0 /   8
[tb_pin] Currently allocated     0.00E+00 Mbytes, locked:    0 /   0

     iteration #  1     ecut=    90.00 Ry     beta= 0.40
     Davidson diagonalization with overlap

---- Real-time Memory Report at c_bands before calling an iterative solver
          4246 MiB given to the printing process from OS
          -520 MiB allocation reported by mallinfo(arena+hblkhd)
         55535 MiB available memory on the node where the printing process lives
     GPU memory used/free/total (MiB): 2284 / 13996 / 16280
------------------
     ethr =  1.00E-02,  avg # of iterations =  8.6

     negative rho (up, down):  8.200E-01 9.271E-01

     total cpu time spent up to now is       40.0 secs

     total energy              =   -2700.47052437 Ry
     estimated scf accuracy    <      19.06016939 Ry

     total magnetization       =    10.00 Bohr mag/cell
     absolute magnetization    =    20.87 Bohr mag/cell
[tb_dev] Currently allocated     6.51E+00 Mbytes, locked:    0 /   6
[tb_pin] Currently allocated     0.00E+00 Mbytes, locked:    0 /   0

     iteration #  2     ecut=    90.00 Ry     beta= 0.40
     Davidson diagonalization with overlap

---- Real-time Memory Report at c_bands before calling an iterative solver
          4556 MiB given to the printing process from OS
          -377 MiB allocation reported by mallinfo(arena+hblkhd)
         55391 MiB available memory on the node where the printing process lives
     GPU memory used/free/total (MiB): 6850 / 9430 / 16280
------------------
     ethr =  1.00E-02,  avg # of iterations =  2.0

     negative rho (up, down):  1.120E+00 1.074E+00

     total cpu time spent up to now is       54.5 secs

     total energy              =   -2696.08541420 Ry
     estimated scf accuracy    <      42.25445775 Ry

     total magnetization       =     4.58 Bohr mag/cell
     absolute magnetization    =    13.25 Bohr mag/cell
[tb_dev] Currently allocated     6.51E+00 Mbytes, locked:    0 /   6
[tb_pin] Currently allocated     0.00E+00 Mbytes, locked:    0 /   0

     iteration #  3     ecut=    90.00 Ry     beta= 0.40
     Davidson diagonalization with overlap

---- Real-time Memory Report at c_bands before calling an iterative solver
          4658 MiB given to the printing process from OS
          -299 MiB allocation reported by mallinfo(arena+hblkhd)
         55345 MiB available memory on the node where the printing process lives
     GPU memory used/free/total (MiB): 6850 / 9430 / 16280
------------------
     ethr =  1.00E-02,  avg # of iterations =  5.1

     negative rho (up, down):  1.293E+00 1.200E+00

     total cpu time spent up to now is       72.3 secs

     total energy              =   -2688.66345019 Ry
     estimated scf accuracy    <     294.86074097 Ry

     total magnetization       =     3.55 Bohr mag/cell
     absolute magnetization    =     7.57 Bohr mag/cell
[tb_dev] Currently allocated     6.51E+00 Mbytes, locked:    0 /   6
[tb_pin] Currently allocated     0.00E+00 Mbytes, locked:    0 /   0

     iteration #  4     ecut=    90.00 Ry     beta= 0.40
     Davidson diagonalization with overlap

---- Real-time Memory Report at c_bands before calling an iterative solver
          4714 MiB given to the printing process from OS
          -263 MiB allocation reported by mallinfo(arena+hblkhd)
         55312 MiB available memory on the node where the printing process lives
     GPU memory used/free/total (MiB): 6850 / 9430 / 16280
------------------
     ethr =  1.00E-02,  avg # of iterations =  6.6

     negative rho (up, down):  1.252E+00 1.347E+00

     total cpu time spent up to now is       91.7 secs

     total energy              =   -2699.29978563 Ry
     estimated scf accuracy    <      53.69420915 Ry

     total magnetization       =     1.60 Bohr mag/cell
     absolute magnetization    =     5.46 Bohr mag/cell
[tb_dev] Currently allocated     6.51E+00 Mbytes, locked:    0 /   6
[tb_pin] Currently allocated     0.00E+00 Mbytes, locked:    0 /   0

     iteration #  5     ecut=    90.00 Ry     beta= 0.40
     Davidson diagonalization with overlap

---- Real-time Memory Report at c_bands before calling an iterative solver
          4756 MiB given to the printing process from OS
          -222 MiB allocation reported by mallinfo(arena+hblkhd)
         55272 MiB available memory on the node where the printing process lives
     GPU memory used/free/total (MiB): 6850 / 9430 / 16280
------------------
     ethr =  1.00E-02,  avg # of iterations =  3.6

     negative rho (up, down):  1.256E+00 1.386E+00

     total cpu time spent up to now is      107.8 secs

     total energy              =   -2700.64583278 Ry
     estimated scf accuracy    <      39.31347061 Ry

     total magnetization       =     2.37 Bohr mag/cell
     absolute magnetization    =     6.40 Bohr mag/cell
[tb_dev] Currently allocated     6.51E+00 Mbytes, locked:    0 /   6
[tb_pin] Currently allocated     0.00E+00 Mbytes, locked:    0 /   0

     iteration #  6     ecut=    90.00 Ry     beta= 0.40
     Davidson diagonalization with overlap

---- Real-time Memory Report at c_bands before calling an iterative solver
          4797 MiB given to the printing process from OS
          -181 MiB allocation reported by mallinfo(arena+hblkhd)
         55229 MiB available memory on the node where the printing process lives
     GPU memory used/free/total (MiB): 6850 / 9430 / 16280
------------------
     ethr =  1.00E-02,  avg # of iterations =  2.8

     negative rho (up, down):  1.681E+00 1.667E+00

     total cpu time spent up to now is      122.3 secs

     total energy              =   -2701.70641038 Ry
     estimated scf accuracy    <       6.88610117 Ry

     total magnetization       =     6.51 Bohr mag/cell
     absolute magnetization    =    13.65 Bohr mag/cell
[tb_dev] Currently allocated     6.51E+00 Mbytes, locked:    0 /   6
[tb_pin] Currently allocated     0.00E+00 Mbytes, locked:    0 /   0

     iteration #  7     ecut=    90.00 Ry     beta= 0.40
     Davidson diagonalization with overlap

---- Real-time Memory Report at c_bands before calling an iterative solver
          4833 MiB given to the printing process from OS
          -145 MiB allocation reported by mallinfo(arena+hblkhd)
         55195 MiB available memory on the node where the printing process lives
     GPU memory used/free/total (MiB): 6850 / 9430 / 16280
------------------
     ethr =  5.64E-03,  avg # of iterations =  3.3

     negative rho (up, down):  1.732E+00 1.816E+00

     total cpu time spent up to now is      137.3 secs

     total energy              =   -2702.17367426 Ry
     estimated scf accuracy    <       9.45996108 Ry

     total magnetization       =     6.52 Bohr mag/cell
     absolute magnetization    =    11.55 Bohr mag/cell
[tb_dev] Currently allocated     6.51E+00 Mbytes, locked:    0 /   6
[tb_pin] Currently allocated     0.00E+00 Mbytes, locked:    0 /   0

     iteration #  8     ecut=    90.00 Ry     beta= 0.40
     Davidson diagonalization with overlap

---- Real-time Memory Report at c_bands before calling an iterative solver
          4875 MiB given to the printing process from OS
          -104 MiB allocation reported by mallinfo(arena+hblkhd)
         55155 MiB available memory on the node where the printing process lives
     GPU memory used/free/total (MiB): 6850 / 9430 / 16280
------------------
     ethr =  5.64E-03,  avg # of iterations =  1.5

     negative rho (up, down):  1.705E+00 1.791E+00

     total cpu time spent up to now is      151.0 secs

     total energy              =   -2702.27854502 Ry
     estimated scf accuracy    <      11.12888366 Ry

     total magnetization       =     7.36 Bohr mag/cell
     absolute magnetization    =    14.11 Bohr mag/cell
[tb_dev] Currently allocated     6.51E+00 Mbytes, locked:    0 /   6
[tb_pin] Currently allocated     0.00E+00 Mbytes, locked:    0 /   0

     iteration #  9     ecut=    90.00 Ry     beta= 0.40
     Davidson diagonalization with overlap

---- Real-time Memory Report at c_bands before calling an iterative solver
          4909 MiB given to the printing process from OS
           -68 MiB allocation reported by mallinfo(arena+hblkhd)
         55120 MiB available memory on the node where the printing process lives
     GPU memory used/free/total (MiB): 6850 / 9430 / 16280
------------------
     ethr =  5.64E-03,  avg # of iterations =  1.5

     negative rho (up, down):  1.656E+00 1.714E+00

     total cpu time spent up to now is      164.7 secs

     total energy              =   -2702.17682627 Ry
     estimated scf accuracy    <      16.17285074 Ry

     total magnetization       =     7.26 Bohr mag/cell
     absolute magnetization    =    15.32 Bohr mag/cell
[tb_dev] Currently allocated     6.51E+00 Mbytes, locked:    0 /   6
[tb_pin] Currently allocated     0.00E+00 Mbytes, locked:    0 /   0

     iteration # 10     ecut=    90.00 Ry     beta= 0.40
     Davidson diagonalization with overlap

---- Real-time Memory Report at c_bands before calling an iterative solver
          4950 MiB given to the printing process from OS
           -27 MiB allocation reported by mallinfo(arena+hblkhd)
         55077 MiB available memory on the node where the printing process lives
     GPU memory used/free/total (MiB): 6850 / 9430 / 16280
------------------
     ethr =  5.64E-03,  avg # of iterations =  2.4

     negative rho (up, down):  1.538E+00 1.516E+00

     total cpu time spent up to now is      179.2 secs

     total energy              =   -2702.34047437 Ry
     estimated scf accuracy    <      16.43722038 Ry

     total magnetization       =     7.98 Bohr mag/cell
     absolute magnetization    =    15.69 Bohr mag/cell
[tb_dev] Currently allocated     6.51E+00 Mbytes, locked:    0 /   6
[tb_pin] Currently allocated     0.00E+00 Mbytes, locked:    0 /   0

     iteration # 11     ecut=    90.00 Ry     beta= 0.40
     Davidson diagonalization with overlap

---- Real-time Memory Report at c_bands before calling an iterative solver
          4981 MiB given to the printing process from OS
            -3 MiB allocation reported by mallinfo(arena+hblkhd)
         55056 MiB available memory on the node where the printing process lives
     GPU memory used/free/total (MiB): 6850 / 9430 / 16280
------------------
     ethr =  5.64E-03,  avg # of iterations =  1.5

     negative rho (up, down):  1.611E+00 1.589E+00

     total cpu time spent up to now is      193.0 secs

     total energy              =   -2702.36999091 Ry
     estimated scf accuracy    <      27.33871636 Ry

     total magnetization       =     8.08 Bohr mag/cell
     absolute magnetization    =    18.32 Bohr mag/cell
[tb_dev] Currently allocated     6.51E+00 Mbytes, locked:    0 /   6
[tb_pin] Currently allocated     0.00E+00 Mbytes, locked:    0 /   0

     iteration # 12     ecut=    90.00 Ry     beta= 0.40
     Davidson diagonalization with overlap

---- Real-time Memory Report at c_bands before calling an iterative solver
          5004 MiB given to the printing process from OS
            19 MiB allocation reported by mallinfo(arena+hblkhd)
         55032 MiB available memory on the node where the printing process lives
     GPU memory used/free/total (MiB): 6850 / 9430 / 16280
------------------
     ethr =  5.64E-03,  avg # of iterations =  1.1

     negative rho (up, down):  1.744E+00 1.738E+00

     total cpu time spent up to now is      206.4 secs

     total energy              =   -2702.14246543 Ry
     estimated scf accuracy    <      26.95718597 Ry

     total magnetization       =     7.92 Bohr mag/cell
     absolute magnetization    =    17.96 Bohr mag/cell
[tb_dev] Currently allocated     6.51E+00 Mbytes, locked:    0 /   6
[tb_pin] Currently allocated     0.00E+00 Mbytes, locked:    0 /   0

     iteration # 13     ecut=    90.00 Ry     beta= 0.40
     Davidson diagonalization with overlap

---- Real-time Memory Report at c_bands before calling an iterative solver
          5027 MiB given to the printing process from OS
            43 MiB allocation reported by mallinfo(arena+hblkhd)
         55007 MiB available memory on the node where the printing process lives
     GPU memory used/free/total (MiB): 6850 / 9430 / 16280
------------------
     ethr =  5.64E-03,  avg # of iterations =  1.6

     negative rho (up, down):  1.721E+00 1.741E+00

     total cpu time spent up to now is      220.2 secs

     total energy              =   -2702.28918242 Ry
     estimated scf accuracy    <      20.05877684 Ry

     total magnetization       =     7.52 Bohr mag/cell
     absolute magnetization    =    14.16 Bohr mag/cell
[tb_dev] Currently allocated     6.51E+00 Mbytes, locked:    0 /   6
[tb_pin] Currently allocated     0.00E+00 Mbytes, locked:    0 /   0

     iteration # 14     ecut=    90.00 Ry     beta= 0.40
     Davidson diagonalization with overlap

---- Real-time Memory Report at c_bands before calling an iterative solver
          5051 MiB given to the printing process from OS
            66 MiB allocation reported by mallinfo(arena+hblkhd)
         54984 MiB available memory on the node where the printing process lives
     GPU memory used/free/total (MiB): 6850 / 9430 / 16280
------------------
     ethr =  5.64E-03,  avg # of iterations =  1.0

     negative rho (up, down):  1.891E+00 1.909E+00

     total cpu time spent up to now is      233.5 secs

     total energy              =   -2702.11691153 Ry
     estimated scf accuracy    <      20.65207126 Ry

     total magnetization       =     7.58 Bohr mag/cell
     absolute magnetization    =    14.47 Bohr mag/cell
[tb_dev] Currently allocated     6.51E+00 Mbytes, locked:    0 /   6
[tb_pin] Currently allocated     0.00E+00 Mbytes, locked:    0 /   0

     iteration # 15     ecut=    90.00 Ry     beta= 0.40
     Davidson diagonalization with overlap

---- Real-time Memory Report at c_bands before calling an iterative solver
          5075 MiB given to the printing process from OS
            90 MiB allocation reported by mallinfo(arena+hblkhd)
         54960 MiB available memory on the node where the printing process lives
     GPU memory used/free/total (MiB): 6850 / 9430 / 16280
------------------
     ethr =  5.64E-03,  avg # of iterations =  2.2

     negative rho (up, down):  2.061E+00 2.012E+00

     total cpu time spent up to now is      247.8 secs

     total energy              =   -2702.08003599 Ry
     estimated scf accuracy    <      11.22924591 Ry

     total magnetization       =     7.20 Bohr mag/cell
     absolute magnetization    =    10.65 Bohr mag/cell
[tb_dev] Currently allocated     6.51E+00 Mbytes, locked:    0 /   6
[tb_pin] Currently allocated     0.00E+00 Mbytes, locked:    0 /   0

     iteration # 16     ecut=    90.00 Ry     beta= 0.40
     Davidson diagonalization with overlap

---- Real-time Memory Report at c_bands before calling an iterative solver
          5098 MiB given to the printing process from OS
           113 MiB allocation reported by mallinfo(arena+hblkhd)
         54936 MiB available memory on the node where the printing process lives
     GPU memory used/free/total (MiB): 6850 / 9430 / 16280
------------------
     ethr =  5.64E-03,  avg # of iterations =  2.0

     negative rho (up, down):  2.261E+00 2.075E+00

     total cpu time spent up to now is      262.0 secs

     total energy              =   -2702.19089549 Ry
     estimated scf accuracy    <       6.70957511 Ry

     total magnetization       =     7.63 Bohr mag/cell
     absolute magnetization    =    12.04 Bohr mag/cell
[tb_dev] Currently allocated     6.51E+00 Mbytes, locked:    0 /   6
[tb_pin] Currently allocated     0.00E+00 Mbytes, locked:    0 /   0

     iteration # 17     ecut=    90.00 Ry     beta= 0.40
     Davidson diagonalization with overlap

---- Real-time Memory Report at c_bands before calling an iterative solver
          5121 MiB given to the printing process from OS
           137 MiB allocation reported by mallinfo(arena+hblkhd)
         54915 MiB available memory on the node where the printing process lives
     GPU memory used/free/total (MiB): 6850 / 9430 / 16280
------------------
     ethr =  5.50E-03,  avg # of iterations =  2.0

     negative rho (up, down):  2.484E+00 2.226E+00

     total cpu time spent up to now is      276.2 secs

     total energy              =   -2702.38491988 Ry
     estimated scf accuracy    <      22.06730322 Ry

     total magnetization       =     4.95 Bohr mag/cell
     absolute magnetization    =     8.34 Bohr mag/cell
[tb_dev] Currently allocated     6.51E+00 Mbytes, locked:    0 /   6
[tb_pin] Currently allocated     0.00E+00 Mbytes, locked:    0 /   0

     iteration # 18     ecut=    90.00 Ry     beta= 0.40
     Davidson diagonalization with overlap

---- Real-time Memory Report at c_bands before calling an iterative solver
          5152 MiB given to the printing process from OS
           160 MiB allocation reported by mallinfo(arena+hblkhd)
         54892 MiB available memory on the node where the printing process lives
     GPU memory used/free/total (MiB): 6850 / 9430 / 16280
------------------
     ethr =  5.50E-03,  avg # of iterations =  2.1

     negative rho (up, down):  2.557E+00 2.285E+00

     total cpu time spent up to now is      290.3 secs

     total energy              =   -2702.69774784 Ry
     estimated scf accuracy    <      12.27161112 Ry

     total magnetization       =     8.73 Bohr mag/cell
     absolute magnetization    =    11.46 Bohr mag/cell
[tb_dev] Currently allocated     6.51E+00 Mbytes, locked:    0 /   6
[tb_pin] Currently allocated     0.00E+00 Mbytes, locked:    0 /   0

     iteration # 19     ecut=    90.00 Ry     beta= 0.40
     Davidson diagonalization with overlap

---- Real-time Memory Report at c_bands before calling an iterative solver
          5175 MiB given to the printing process from OS
           184 MiB allocation reported by mallinfo(arena+hblkhd)
         54868 MiB available memory on the node where the printing process lives
     GPU memory used/free/total (MiB): 6850 / 9430 / 16280
------------------
     ethr =  5.50E-03,  avg # of iterations =  5.2

     negative rho (up, down):  2.292E+00 2.178E+00

     total cpu time spent up to now is      306.3 secs

     total energy              =   -2702.11425339 Ry
     estimated scf accuracy    <      47.24006457 Ry

     total magnetization       =     8.65 Bohr mag/cell
     absolute magnetization    =    12.88 Bohr mag/cell
[tb_dev] Currently allocated     6.51E+00 Mbytes, locked:    0 /   6
[tb_pin] Currently allocated     0.00E+00 Mbytes, locked:    0 /   0

     iteration # 20     ecut=    90.00 Ry     beta= 0.40
     Davidson diagonalization with overlap

---- Real-time Memory Report at c_bands before calling an iterative solver
          5198 MiB given to the printing process from OS
           207 MiB allocation reported by mallinfo(arena+hblkhd)
         54845 MiB available memory on the node where the printing process lives
     GPU memory used/free/total (MiB): 6850 / 9430 / 16280
------------------
     ethr =  5.50E-03,  avg # of iterations =  2.6

     negative rho (up, down):  1.902E+00 1.878E+00

     total cpu time spent up to now is      320.8 secs

     total energy              =   -2702.13767391 Ry
     estimated scf accuracy    <      13.56279780 Ry

     total magnetization       =     8.59 Bohr mag/cell
     absolute magnetization    =    11.99 Bohr mag/cell
[tb_dev] Currently allocated     6.51E+00 Mbytes, locked:    0 /   6
[tb_pin] Currently allocated     0.00E+00 Mbytes, locked:    0 /   0

     iteration # 21     ecut=    90.00 Ry     beta= 0.40
     Davidson diagonalization with overlap

---- Real-time Memory Report at c_bands before calling an iterative solver
          5222 MiB given to the printing process from OS
           231 MiB allocation reported by mallinfo(arena+hblkhd)
         54820 MiB available memory on the node where the printing process lives
     GPU memory used/free/total (MiB): 6850 / 9430 / 16280
------------------
     ethr =  5.50E-03,  avg # of iterations =  2.6

     negative rho (up, down):  1.824E+00 1.824E+00

     total cpu time spent up to now is      335.3 secs

     total energy              =   -2701.85783677 Ry
     estimated scf accuracy    <      29.47828979 Ry

     total magnetization       =     8.21 Bohr mag/cell
     absolute magnetization    =    11.05 Bohr mag/cell
[tb_dev] Currently allocated     6.51E+00 Mbytes, locked:    0 /   6
[tb_pin] Currently allocated     0.00E+00 Mbytes, locked:    0 /   0

     iteration # 22     ecut=    90.00 Ry     beta= 0.40
     Davidson diagonalization with overlap

---- Real-time Memory Report at c_bands before calling an iterative solver
          5245 MiB given to the printing process from OS
           254 MiB allocation reported by mallinfo(arena+hblkhd)
         54798 MiB available memory on the node where the printing process lives
     GPU memory used/free/total (MiB): 6850 / 9430 / 16280
------------------
     ethr =  5.50E-03,  avg # of iterations =  2.0

     negative rho (up, down):  1.745E+00 1.811E+00

     total cpu time spent up to now is      349.5 secs

     total energy              =   -2701.94804928 Ry
     estimated scf accuracy    <      11.35754367 Ry

     total magnetization       =     8.30 Bohr mag/cell
     absolute magnetization    =    11.04 Bohr mag/cell
[tb_dev] Currently allocated     6.51E+00 Mbytes, locked:    0 /   6
[tb_pin] Currently allocated     0.00E+00 Mbytes, locked:    0 /   0

     iteration # 23     ecut=    90.00 Ry     beta= 0.40
     Davidson diagonalization with overlap

---- Real-time Memory Report at c_bands before calling an iterative solver
          5268 MiB given to the printing process from OS
           278 MiB allocation reported by mallinfo(arena+hblkhd)
         54773 MiB available memory on the node where the printing process lives
     GPU memory used/free/total (MiB): 6850 / 9430 / 16280
------------------
     ethr =  5.50E-03,  avg # of iterations =  2.0

     negative rho (up, down):  1.852E+00 1.899E+00

     total cpu time spent up to now is      363.6 secs

     total energy              =   -2702.04738392 Ry
     estimated scf accuracy    <       4.32662927 Ry

     total magnetization       =     7.76 Bohr mag/cell
     absolute magnetization    =    11.86 Bohr mag/cell
[tb_dev] Currently allocated     6.51E+00 Mbytes, locked:    0 /   6
[tb_pin] Currently allocated     0.00E+00 Mbytes, locked:    0 /   0

     iteration # 24     ecut=    90.00 Ry     beta= 0.40
     Davidson diagonalization with overlap

---- Real-time Memory Report at c_bands before calling an iterative solver
          5298 MiB given to the printing process from OS
           301 MiB allocation reported by mallinfo(arena+hblkhd)
         54750 MiB available memory on the node where the printing process lives
     GPU memory used/free/total (MiB): 6850 / 9430 / 16280
------------------
     ethr =  3.55E-03,  avg # of iterations =  2.8

     negative rho (up, down):  1.767E+00 1.882E+00

     total cpu time spent up to now is      378.3 secs

     total energy              =   -2702.12826390 Ry
     estimated scf accuracy    <       3.48662389 Ry

     total magnetization       =     8.27 Bohr mag/cell
     absolute magnetization    =    15.95 Bohr mag/cell
[tb_dev] Currently allocated     6.51E+00 Mbytes, locked:    0 /   6
[tb_pin] Currently allocated     0.00E+00 Mbytes, locked:    0 /   0

     iteration # 25     ecut=    90.00 Ry     beta= 0.40
     Davidson diagonalization with overlap

---- Real-time Memory Report at c_bands before calling an iterative solver
          5328 MiB given to the printing process from OS
           325 MiB allocation reported by mallinfo(arena+hblkhd)
         54727 MiB available memory on the node where the printing process lives
     GPU memory used/free/total (MiB): 6850 / 9430 / 16280
------------------
     ethr =  2.86E-03,  avg # of iterations =  1.9

     negative rho (up, down):  1.804E+00 1.920E+00

     total cpu time spent up to now is      392.3 secs

     total energy              =   -2702.18070713 Ry
     estimated scf accuracy    <       3.01517563 Ry

     total magnetization       =     8.28 Bohr mag/cell
     absolute magnetization    =    15.21 Bohr mag/cell
[tb_dev] Currently allocated     6.51E+00 Mbytes, locked:    0 /   6
[tb_pin] Currently allocated     0.00E+00 Mbytes, locked:    0 /   0

     iteration # 26     ecut=    90.00 Ry     beta= 0.40
     Davidson diagonalization with overlap

---- Real-time Memory Report at c_bands before calling an iterative solver
          5351 MiB given to the printing process from OS
           348 MiB allocation reported by mallinfo(arena+hblkhd)
         54703 MiB available memory on the node where the printing process lives
     GPU memory used/free/total (MiB): 6850 / 9430 / 16280
------------------
     ethr =  2.47E-03,  avg # of iterations =  1.2

     negative rho (up, down):  1.670E+00 1.744E+00

     total cpu time spent up to now is      405.8 secs

     total energy              =   -2701.91122816 Ry
     estimated scf accuracy    <       3.34406756 Ry

     total magnetization       =     8.14 Bohr mag/cell
     absolute magnetization    =    15.00 Bohr mag/cell
[tb_dev] Currently allocated     6.51E+00 Mbytes, locked:    0 /   6
[tb_pin] Currently allocated     0.00E+00 Mbytes, locked:    0 /   0

     iteration # 27     ecut=    90.00 Ry     beta= 0.40
     Davidson diagonalization with overlap

---- Real-time Memory Report at c_bands before calling an iterative solver
          5374 MiB given to the printing process from OS
           371 MiB allocation reported by mallinfo(arena+hblkhd)
         54680 MiB available memory on the node where the printing process lives
     GPU memory used/free/total (MiB): 6850 / 9430 / 16280
------------------
     ethr =  2.47E-03,  avg # of iterations =  4.1

     negative rho (up, down):  1.814E+00 2.002E+00

     total cpu time spent up to now is      421.4 secs

     total energy              =   -2701.75075694 Ry
     estimated scf accuracy    <       5.76086832 Ry

     total magnetization       =     7.45 Bohr mag/cell
     absolute magnetization    =    10.56 Bohr mag/cell
[tb_dev] Currently allocated     6.51E+00 Mbytes, locked:    0 /   6
[tb_pin] Currently allocated     0.00E+00 Mbytes, locked:    0 /   0

     iteration # 28     ecut=    90.00 Ry     beta= 0.40
     Davidson diagonalization with overlap

---- Real-time Memory Report at c_bands before calling an iterative solver
          5404 MiB given to the printing process from OS
           395 MiB allocation reported by mallinfo(arena+hblkhd)
         54655 MiB available memory on the node where the printing process lives
     GPU memory used/free/total (MiB): 6850 / 9430 / 16280
------------------
     ethr =  2.47E-03,  avg # of iterations =  4.8

     negative rho (up, down):  1.638E+00 1.883E+00

     total cpu time spent up to now is      437.4 secs

     total energy              =   -2702.07669912 Ry
     estimated scf accuracy    <      14.36647342 Ry

     total magnetization       =     5.83 Bohr mag/cell
     absolute magnetization    =    11.75 Bohr mag/cell
[tb_dev] Currently allocated     6.51E+00 Mbytes, locked:    0 /   6
[tb_pin] Currently allocated     0.00E+00 Mbytes, locked:    0 /   0

     iteration # 29     ecut=    90.00 Ry     beta= 0.40
     Davidson diagonalization with overlap

---- Real-time Memory Report at c_bands before calling an iterative solver
          5428 MiB given to the printing process from OS
           418 MiB allocation reported by mallinfo(arena+hblkhd)
         54632 MiB available memory on the node where the printing process lives
     GPU memory used/free/total (MiB): 6850 / 9430 / 16280
------------------
     ethr =  2.47E-03,  avg # of iterations =  2.2

     negative rho (up, down):  1.610E+00 1.877E+00

     total cpu time spent up to now is      451.6 secs

     total energy              =   -2702.14668073 Ry
     estimated scf accuracy    <       5.59723193 Ry

     total magnetization       =     8.42 Bohr mag/cell
     absolute magnetization    =    12.07 Bohr mag/cell
[tb_dev] Currently allocated     6.51E+00 Mbytes, locked:    0 /   6
[tb_pin] Currently allocated     0.00E+00 Mbytes, locked:    0 /   0

     iteration # 30     ecut=    90.00 Ry     beta= 0.40
     Davidson diagonalization with overlap

---- Real-time Memory Report at c_bands before calling an iterative solver
          5450 MiB given to the printing process from OS
           442 MiB allocation reported by mallinfo(arena+hblkhd)
         54608 MiB available memory on the node where the printing process lives
     GPU memory used/free/total (MiB): 6850 / 9430 / 16280
------------------
     ethr =  2.47E-03,  avg # of iterations =  1.7

     negative rho (up, down):  1.647E+00 1.888E+00

     total cpu time spent up to now is      465.4 secs

     total energy              =   -2702.20771364 Ry
     estimated scf accuracy    <       6.56955951 Ry

     total magnetization       =     8.99 Bohr mag/cell
     absolute magnetization    =    12.62 Bohr mag/cell
[tb_dev] Currently allocated     6.51E+00 Mbytes, locked:    0 /   6
[tb_pin] Currently allocated     0.00E+00 Mbytes, locked:    0 /   0

     iteration # 31     ecut=    90.00 Ry     beta= 0.40
     Davidson diagonalization with overlap

---- Real-time Memory Report at c_bands before calling an iterative solver
          5480 MiB given to the printing process from OS
           465 MiB allocation reported by mallinfo(arena+hblkhd)
         54571 MiB available memory on the node where the printing process lives
     GPU memory used/free/total (MiB): 6850 / 9430 / 16280
------------------
     ethr =  2.47E-03,  avg # of iterations =  1.8

     negative rho (up, down):  1.694E+00 1.873E+00

     total cpu time spent up to now is      479.4 secs

     total energy              =   -2702.25253051 Ry
     estimated scf accuracy    <       7.13795041 Ry

     total magnetization       =     8.82 Bohr mag/cell
     absolute magnetization    =    12.33 Bohr mag/cell
[tb_dev] Currently allocated     6.51E+00 Mbytes, locked:    0 /   6
[tb_pin] Currently allocated     0.00E+00 Mbytes, locked:    0 /   0

     iteration # 32     ecut=    90.00 Ry     beta= 0.40
     Davidson diagonalization with overlap

---- Real-time Memory Report at c_bands before calling an iterative solver
          5503 MiB given to the printing process from OS
           489 MiB allocation reported by mallinfo(arena+hblkhd)
         54547 MiB available memory on the node where the printing process lives
     GPU memory used/free/total (MiB): 6850 / 9430 / 16280
------------------
     ethr =  2.47E-03,  avg # of iterations =  1.7

     negative rho (up, down):  1.792E+00 1.825E+00

     total cpu time spent up to now is      493.2 secs

     total energy              =   -2702.16971634 Ry
     estimated scf accuracy    <      11.38370099 Ry

     total magnetization       =     6.46 Bohr mag/cell
     absolute magnetization    =    10.73 Bohr mag/cell
[tb_dev] Currently allocated     6.51E+00 Mbytes, locked:    0 /   6
[tb_pin] Currently allocated     0.00E+00 Mbytes, locked:    0 /   0

     iteration # 33     ecut=    90.00 Ry     beta= 0.40
     Davidson diagonalization with overlap

---- Real-time Memory Report at c_bands before calling an iterative solver
          5528 MiB given to the printing process from OS
           512 MiB allocation reported by mallinfo(arena+hblkhd)
         54525 MiB available memory on the node where the printing process lives
     GPU memory used/free/total (MiB): 6850 / 9430 / 16280
------------------
     ethr =  2.47E-03,  avg # of iterations =  1.1

     negative rho (up, down):  1.742E+00 1.835E+00

     total cpu time spent up to now is      506.6 secs

     total energy              =   -2702.25602184 Ry
     estimated scf accuracy    <       8.28199553 Ry

     total magnetization       =     8.95 Bohr mag/cell
     absolute magnetization    =    12.53 Bohr mag/cell
[tb_dev] Currently allocated     6.51E+00 Mbytes, locked:    0 /   6
[tb_pin] Currently allocated     0.00E+00 Mbytes, locked:    0 /   0

     iteration # 34     ecut=    90.00 Ry     beta= 0.40
     Davidson diagonalization with overlap

---- Real-time Memory Report at c_bands before calling an iterative solver
          5528 MiB given to the printing process from OS
           552 MiB allocation reported by mallinfo(arena+hblkhd)
         54484 MiB available memory on the node where the printing process lives
     GPU memory used/free/total (MiB): 6850 / 9430 / 16280
------------------
     ethr =  2.47E-03,  avg # of iterations =  1.0

     negative rho (up, down):  1.665E+00 1.901E+00

     total cpu time spent up to now is      519.9 secs

     total energy              =   -2702.29688819 Ry
     estimated scf accuracy    <       8.33858302 Ry

     total magnetization       =     8.96 Bohr mag/cell
     absolute magnetization    =    12.02 Bohr mag/cell
[tb_dev] Currently allocated     6.51E+00 Mbytes, locked:    0 /   6
[tb_pin] Currently allocated     0.00E+00 Mbytes, locked:    0 /   0

     iteration # 35     ecut=    90.00 Ry     beta= 0.40
     Davidson diagonalization with overlap

---- Real-time Memory Report at c_bands before calling an iterative solver
          5538 MiB given to the printing process from OS
           575 MiB allocation reported by mallinfo(arena+hblkhd)
         54463 MiB available memory on the node where the printing process lives
     GPU memory used/free/total (MiB): 6850 / 9430 / 16280
------------------
     ethr =  2.47E-03,  avg # of iterations =  2.8

     negative rho (up, down):  1.835E+00 1.703E+00

     total cpu time spent up to now is      534.5 secs

     total energy              =   -2702.08352860 Ry
     estimated scf accuracy    <      15.57652182 Ry

     total magnetization       =     8.96 Bohr mag/cell
     absolute magnetization    =    12.73 Bohr mag/cell
[tb_dev] Currently allocated     6.51E+00 Mbytes, locked:    0 /   6
[tb_pin] Currently allocated     0.00E+00 Mbytes, locked:    0 /   0

     iteration # 36     ecut=    90.00 Ry     beta= 0.40
     Davidson diagonalization with overlap

---- Real-time Memory Report at c_bands before calling an iterative solver
          5561 MiB given to the printing process from OS
           599 MiB allocation reported by mallinfo(arena+hblkhd)
         54437 MiB available memory on the node where the printing process lives
     GPU memory used/free/total (MiB): 6850 / 9430 / 16280
------------------
     ethr =  2.47E-03,  avg # of iterations =  2.6

     negative rho (up, down):  1.568E+00 1.626E+00

     total cpu time spent up to now is      549.0 secs

     total energy              =   -2701.97313744 Ry
     estimated scf accuracy    <       4.48400003 Ry

     total magnetization       =     8.99 Bohr mag/cell
     absolute magnetization    =    11.71 Bohr mag/cell
[tb_dev] Currently allocated     6.51E+00 Mbytes, locked:    0 /   6
[tb_pin] Currently allocated     0.00E+00 Mbytes, locked:    0 /   0

     iteration # 37     ecut=    90.00 Ry     beta= 0.40
     Davidson diagonalization with overlap

---- Real-time Memory Report at c_bands before calling an iterative solver
          5586 MiB given to the printing process from OS
           622 MiB allocation reported by mallinfo(arena+hblkhd)
         54414 MiB available memory on the node where the printing process lives
     GPU memory used/free/total (MiB): 6850 / 9430 / 16280
------------------
     ethr =  2.47E-03,  avg # of iterations =  2.0

     negative rho (up, down):  1.267E+00 1.680E+00

     total cpu time spent up to now is      563.2 secs

     total energy              =   -2702.02349017 Ry
     estimated scf accuracy    <       7.29273526 Ry

     total magnetization       =     8.23 Bohr mag/cell
     absolute magnetization    =    11.48 Bohr mag/cell
[tb_dev] Currently allocated     6.51E+00 Mbytes, locked:    0 /   6
[tb_pin] Currently allocated     0.00E+00 Mbytes, locked:    0 /   0

     iteration # 38     ecut=    90.00 Ry     beta= 0.40
     Davidson diagonalization with overlap

---- Real-time Memory Report at c_bands before calling an iterative solver
          5609 MiB given to the printing process from OS
           646 MiB allocation reported by mallinfo(arena+hblkhd)
         54392 MiB available memory on the node where the printing process lives
     GPU memory used/free/total (MiB): 6850 / 9430 / 16280
------------------
     ethr =  2.47E-03,  avg # of iterations =  1.5

     negative rho (up, down):  1.100E+00 1.615E+00

     total cpu time spent up to now is      576.9 secs

     total energy              =   -2702.21377722 Ry
     estimated scf accuracy    <      10.14370017 Ry

     total magnetization       =     9.30 Bohr mag/cell
     absolute magnetization    =    12.86 Bohr mag/cell
[tb_dev] Currently allocated     6.51E+00 Mbytes, locked:    0 /   6
[tb_pin] Currently allocated     0.00E+00 Mbytes, locked:    0 /   0

     iteration # 39     ecut=    90.00 Ry     beta= 0.40
     Davidson diagonalization with overlap

---- Real-time Memory Report at c_bands before calling an iterative solver
          5632 MiB given to the printing process from OS
           669 MiB allocation reported by mallinfo(arena+hblkhd)
         54368 MiB available memory on the node where the printing process lives
     GPU memory used/free/total (MiB): 6850 / 9430 / 16280
------------------
     ethr =  2.47E-03,  avg # of iterations =  2.0

     negative rho (up, down):  1.387E+00 1.579E+00

     total cpu time spent up to now is      591.1 secs

     total energy              =   -2702.37305415 Ry
     estimated scf accuracy    <      12.41830773 Ry

     total magnetization       =     9.24 Bohr mag/cell
     absolute magnetization    =    13.26 Bohr mag/cell
[tb_dev] Currently allocated     6.51E+00 Mbytes, locked:    0 /   6
[tb_pin] Currently allocated     0.00E+00 Mbytes, locked:    0 /   0

     iteration # 40     ecut=    90.00 Ry     beta= 0.40
     Davidson diagonalization with overlap

---- Real-time Memory Report at c_bands before calling an iterative solver
          5657 MiB given to the printing process from OS
           693 MiB allocation reported by mallinfo(arena+hblkhd)
         54344 MiB available memory on the node where the printing process lives
     GPU memory used/free/total (MiB): 6850 / 9430 / 16280
------------------
     ethr =  2.47E-03,  avg # of iterations =  2.8

     negative rho (up, down):  1.137E+00 1.748E+00

     total cpu time spent up to now is      605.6 secs

     total energy              =   -2702.50664817 Ry
     estimated scf accuracy    <      21.70972777 Ry

     total magnetization       =     8.58 Bohr mag/cell
     absolute magnetization    =    11.34 Bohr mag/cell
[tb_dev] Currently allocated     6.51E+00 Mbytes, locked:    0 /   6
[tb_pin] Currently allocated     0.00E+00 Mbytes, locked:    0 /   0

     iteration # 41     ecut=    90.00 Ry     beta= 0.40
     Davidson diagonalization with overlap

---- Real-time Memory Report at c_bands before calling an iterative solver
          5680 MiB given to the printing process from OS
           716 MiB allocation reported by mallinfo(arena+hblkhd)
         54319 MiB available memory on the node where the printing process lives
     GPU memory used/free/total (MiB): 6850 / 9430 / 16280
------------------
     ethr =  2.47E-03,  avg # of iterations =  3.5

     negative rho (up, down):  1.102E+00 1.781E+00

     total cpu time spent up to now is      620.6 secs

     total energy              =   -2702.61053889 Ry
     estimated scf accuracy    <      50.31643407 Ry

     total magnetization       =     8.09 Bohr mag/cell
     absolute magnetization    =    16.09 Bohr mag/cell
[tb_dev] Currently allocated     6.51E+00 Mbytes, locked:    0 /   6
[tb_pin] Currently allocated     0.00E+00 Mbytes, locked:    0 /   0

     iteration # 42     ecut=    90.00 Ry     beta= 0.40
     Davidson diagonalization with overlap

---- Real-time Memory Report at c_bands before calling an iterative solver
          5703 MiB given to the printing process from OS
           740 MiB allocation reported by mallinfo(arena+hblkhd)
         54296 MiB available memory on the node where the printing process lives
     GPU memory used/free/total (MiB): 6850 / 9430 / 16280
------------------
     ethr =  2.47E-03,  avg # of iterations =  1.6

     negative rho (up, down):  1.300E+00 1.820E+00

     total cpu time spent up to now is      634.4 secs

     total energy              =   -2702.62153301 Ry
     estimated scf accuracy    <      50.22352934 Ry

     total magnetization       =     8.09 Bohr mag/cell
     absolute magnetization    =    17.41 Bohr mag/cell
[tb_dev] Currently allocated     6.51E+00 Mbytes, locked:    0 /   6
[tb_pin] Currently allocated     0.00E+00 Mbytes, locked:    0 /   0

     iteration # 43     ecut=    90.00 Ry     beta= 0.40
     Davidson diagonalization with overlap

---- Real-time Memory Report at c_bands before calling an iterative solver
          5726 MiB given to the printing process from OS
           763 MiB allocation reported by mallinfo(arena+hblkhd)
         54273 MiB available memory on the node where the printing process lives
     GPU memory used/free/total (MiB): 6850 / 9430 / 16280
------------------
     ethr =  2.47E-03,  avg # of iterations =  3.7

     negative rho (up, down):  1.229E+00 1.715E+00

     total cpu time spent up to now is      649.7 secs

     total energy              =   -2702.40786395 Ry
     estimated scf accuracy    <      59.35244383 Ry

     total magnetization       =     8.48 Bohr mag/cell
     absolute magnetization    =    18.53 Bohr mag/cell
[tb_dev] Currently allocated     6.51E+00 Mbytes, locked:    0 /   6
[tb_pin] Currently allocated     0.00E+00 Mbytes, locked:    0 /   0

     iteration # 44     ecut=    90.00 Ry     beta= 0.40
     Davidson diagonalization with overlap

---- Real-time Memory Report at c_bands before calling an iterative solver
          5751 MiB given to the printing process from OS
           802 MiB allocation reported by mallinfo(arena+hblkhd)
         54234 MiB available memory on the node where the printing process lives
     GPU memory used/free/total (MiB): 6850 / 9430 / 16280
------------------
     ethr =  2.47E-03,  avg # of iterations =  3.5

     negative rho (up, down):  1.213E+00 2.158E+00

     total cpu time spent up to now is      664.7 secs

     total energy              =   -2702.26742839 Ry
     estimated scf accuracy    <      44.10608384 Ry

     total magnetization       =     8.19 Bohr mag/cell
     absolute magnetization    =    17.00 Bohr mag/cell
[tb_dev] Currently allocated     6.51E+00 Mbytes, locked:    0 /   6
[tb_pin] Currently allocated     0.00E+00 Mbytes, locked:    0 /   0

     iteration # 45     ecut=    90.00 Ry     beta= 0.40
     Davidson diagonalization with overlap

---- Real-time Memory Report at c_bands before calling an iterative solver
          5774 MiB given to the printing process from OS
           825 MiB allocation reported by mallinfo(arena+hblkhd)
         54210 MiB available memory on the node where the printing process lives
     GPU memory used/free/total (MiB): 6850 / 9430 / 16280
------------------
     ethr =  2.47E-03,  avg # of iterations =  3.5

     negative rho (up, down):  1.062E+00 2.226E+00

     total cpu time spent up to now is      679.8 secs

     total energy              =   -2702.25384772 Ry
     estimated scf accuracy    <      28.73999978 Ry

     total magnetization       =     8.10 Bohr mag/cell
     absolute magnetization    =    18.50 Bohr mag/cell
[tb_dev] Currently allocated     6.51E+00 Mbytes, locked:    0 /   6
[tb_pin] Currently allocated     0.00E+00 Mbytes, locked:    0 /   0

     iteration # 46     ecut=    90.00 Ry     beta= 0.40
     Davidson diagonalization with overlap

---- Real-time Memory Report at c_bands before calling an iterative solver
          5796 MiB given to the printing process from OS
           849 MiB allocation reported by mallinfo(arena+hblkhd)
         54197 MiB available memory on the node where the printing process lives
     GPU memory used/free/total (MiB): 6850 / 9430 / 16280
------------------
     ethr =  2.47E-03,  avg # of iterations =  1.9

     negative rho (up, down):  7.974E-01 1.971E+00

     total cpu time spent up to now is      693.8 secs

     total energy              =   -2702.04123868 Ry
     estimated scf accuracy    <      25.70373814 Ry

     total magnetization       =     8.43 Bohr mag/cell
     absolute magnetization    =    17.76 Bohr mag/cell
[tb_dev] Currently allocated     6.51E+00 Mbytes, locked:    0 /   6
[tb_pin] Currently allocated     0.00E+00 Mbytes, locked:    0 /   0

     iteration # 47     ecut=    90.00 Ry     beta= 0.40
     Davidson diagonalization with overlap

---- Real-time Memory Report at c_bands before calling an iterative solver
          5822 MiB given to the printing process from OS
           872 MiB allocation reported by mallinfo(arena+hblkhd)
         54176 MiB available memory on the node where the printing process lives
     GPU memory used/free/total (MiB): 6850 / 9430 / 16280
------------------
     ethr =  2.47E-03,  avg # of iterations =  3.0

     negative rho (up, down):  6.061E-01 1.925E+00

     total cpu time spent up to now is      708.4 secs

     total energy              =   -2701.78528490 Ry
     estimated scf accuracy    <      12.07202664 Ry

     total magnetization       =     7.78 Bohr mag/cell
     absolute magnetization    =    13.99 Bohr mag/cell
[tb_dev] Currently allocated     6.51E+00 Mbytes, locked:    0 /   6
[tb_pin] Currently allocated     0.00E+00 Mbytes, locked:    0 /   0

     iteration # 48     ecut=    90.00 Ry     beta= 0.40
     Davidson diagonalization with overlap

---- Real-time Memory Report at c_bands before calling an iterative solver
          5844 MiB given to the printing process from OS
           896 MiB allocation reported by mallinfo(arena+hblkhd)
         54152 MiB available memory on the node where the printing process lives
     GPU memory used/free/total (MiB): 6850 / 9430 / 16280
------------------
     ethr =  2.47E-03,  avg # of iterations =  1.6

     negative rho (up, down):  1.563E-01 1.985E+00

     total cpu time spent up to now is      722.4 secs

     total energy              =   -2701.62313838 Ry
     estimated scf accuracy    <       7.22001716 Ry

     total magnetization       =     9.30 Bohr mag/cell
     absolute magnetization    =    14.49 Bohr mag/cell
[tb_dev] Currently allocated     6.51E+00 Mbytes, locked:    0 /   6
[tb_pin] Currently allocated     0.00E+00 Mbytes, locked:    0 /   0

     iteration # 49     ecut=    90.00 Ry     beta= 0.40
     Davidson diagonalization with overlap

---- Real-time Memory Report at c_bands before calling an iterative solver
          5867 MiB given to the printing process from OS
           919 MiB allocation reported by mallinfo(arena+hblkhd)
         54123 MiB available memory on the node where the printing process lives
     GPU memory used/free/total (MiB): 6850 / 9430 / 16280
------------------
     ethr =  2.47E-03,  avg # of iterations =  5.1

     negative rho (up, down):  2.317E-01 2.124E+00

     total cpu time spent up to now is      738.7 secs

     total energy              =   -2702.16711129 Ry
     estimated scf accuracy    <      14.11709860 Ry

     total magnetization       =     9.41 Bohr mag/cell
     absolute magnetization    =    13.90 Bohr mag/cell
[tb_dev] Currently allocated     6.51E+00 Mbytes, locked:    0 /   6
[tb_pin] Currently allocated     0.00E+00 Mbytes, locked:    0 /   0

     iteration # 50     ecut=    90.00 Ry     beta= 0.40
     Davidson diagonalization with overlap

---- Real-time Memory Report at c_bands before calling an iterative solver
          5890 MiB given to the printing process from OS
           943 MiB allocation reported by mallinfo(arena+hblkhd)
         54104 MiB available memory on the node where the printing process lives
     GPU memory used/free/total (MiB): 6850 / 9430 / 16280
------------------
     ethr =  2.47E-03,  avg # of iterations =  1.0

     negative rho (up, down):  5.977E-01 2.042E+00

     total cpu time spent up to now is      752.2 secs

     total energy              =   -2701.75426921 Ry
     estimated scf accuracy    <      12.97215188 Ry

     total magnetization       =     9.25 Bohr mag/cell
     absolute magnetization    =    13.37 Bohr mag/cell
[tb_dev] Currently allocated     6.51E+00 Mbytes, locked:    0 /   6
[tb_pin] Currently allocated     0.00E+00 Mbytes, locked:    0 /   0

     iteration # 51     ecut=    90.00 Ry     beta= 0.40
     Davidson diagonalization with overlap

---- Real-time Memory Report at c_bands before calling an iterative solver
          5915 MiB given to the printing process from OS
           966 MiB allocation reported by mallinfo(arena+hblkhd)
         54083 MiB available memory on the node where the printing process lives
     GPU memory used/free/total (MiB): 6850 / 9430 / 16280
------------------
     ethr =  2.47E-03,  avg # of iterations =  4.6

     negative rho (up, down):  2.631E-01 1.968E+00

     total cpu time spent up to now is      768.4 secs

     total energy              =   -2701.92536551 Ry
     estimated scf accuracy    <       4.11545279 Ry

     total magnetization       =     9.43 Bohr mag/cell
     absolute magnetization    =    16.78 Bohr mag/cell
[tb_dev] Currently allocated     6.51E+00 Mbytes, locked:    0 /   6
[tb_pin] Currently allocated     0.00E+00 Mbytes, locked:    0 /   0

     iteration # 52     ecut=    90.00 Ry     beta= 0.40
     Davidson diagonalization with overlap

---- Real-time Memory Report at c_bands before calling an iterative solver
          5938 MiB given to the printing process from OS
           990 MiB allocation reported by mallinfo(arena+hblkhd)
         54058 MiB available memory on the node where the printing process lives
     GPU memory used/free/total (MiB): 6850 / 9430 / 16280
------------------
     ethr =  2.47E-03,  avg # of iterations =  3.3

     negative rho (up, down):  1.552E-01 1.891E+00

     total cpu time spent up to now is      783.4 secs

     total energy              =   -2702.03478818 Ry
     estimated scf accuracy    <       6.38659236 Ry

     total magnetization       =     9.34 Bohr mag/cell
     absolute magnetization    =    14.13 Bohr mag/cell
[tb_dev] Currently allocated     6.51E+00 Mbytes, locked:    0 /   6
[tb_pin] Currently allocated     0.00E+00 Mbytes, locked:    0 /   0

     iteration # 53     ecut=    90.00 Ry     beta= 0.40
     Davidson diagonalization with overlap

---- Real-time Memory Report at c_bands before calling an iterative solver
          5965 MiB given to the printing process from OS
          1013 MiB allocation reported by mallinfo(arena+hblkhd)
         54035 MiB available memory on the node where the printing process lives
     GPU memory used/free/total (MiB): 6850 / 9430 / 16280
------------------
     ethr =  2.47E-03,  avg # of iterations =  1.9

     negative rho (up, down):  1.079E+00 2.535E+00

     total cpu time spent up to now is      797.4 secs

     total energy              =   -2702.01914409 Ry
     estimated scf accuracy    <       6.25964521 Ry

     total magnetization       =     9.44 Bohr mag/cell
     absolute magnetization    =    12.39 Bohr mag/cell
[tb_dev] Currently allocated     6.51E+00 Mbytes, locked:    0 /   6
[tb_pin] Currently allocated     0.00E+00 Mbytes, locked:    0 /   0

     iteration # 54     ecut=    90.00 Ry     beta= 0.40
     Davidson diagonalization with overlap

---- Real-time Memory Report at c_bands before calling an iterative solver
          5997 MiB given to the printing process from OS
          1037 MiB allocation reported by mallinfo(arena+hblkhd)
         54011 MiB available memory on the node where the printing process lives
     GPU memory used/free/total (MiB): 6850 / 9430 / 16280
------------------
     ethr =  2.47E-03,  avg # of iterations =  3.5

     negative rho (up, down):  6.980E-01 1.951E+00

     total cpu time spent up to now is      812.6 secs

     total energy              =   -2701.75051068 Ry
     estimated scf accuracy    <      19.43275441 Ry

     total magnetization       =     9.18 Bohr mag/cell
     absolute magnetization    =    13.49 Bohr mag/cell
[tb_dev] Currently allocated     6.51E+00 Mbytes, locked:    0 /   6
[tb_pin] Currently allocated     0.00E+00 Mbytes, locked:    0 /   0

     iteration # 55     ecut=    90.00 Ry     beta= 0.40
     Davidson diagonalization with overlap

---- Real-time Memory Report at c_bands before calling an iterative solver
          6020 MiB given to the printing process from OS
          1060 MiB allocation reported by mallinfo(arena+hblkhd)
         53988 MiB available memory on the node where the printing process lives
     GPU memory used/free/total (MiB): 6850 / 9430 / 16280
------------------
     ethr =  2.47E-03,  avg # of iterations =  4.8

     negative rho (up, down):  5.349E-01 2.027E+00

     total cpu time spent up to now is      828.9 secs

     total energy              =   -2700.76145028 Ry
     estimated scf accuracy    <      43.60825448 Ry

     total magnetization       =     2.44 Bohr mag/cell
     absolute magnetization    =    11.24 Bohr mag/cell
[tb_dev] Currently allocated     6.51E+00 Mbytes, locked:    0 /   6
[tb_pin] Currently allocated     0.00E+00 Mbytes, locked:    0 /   0

     iteration # 56     ecut=    90.00 Ry     beta= 0.40
     Davidson diagonalization with overlap

---- Real-time Memory Report at c_bands before calling an iterative solver
          6042 MiB given to the printing process from OS
          1084 MiB allocation reported by mallinfo(arena+hblkhd)
         53965 MiB available memory on the node where the printing process lives
     GPU memory used/free/total (MiB): 6850 / 9430 / 16280
------------------
     ethr =  2.47E-03,  avg # of iterations =  3.1

     negative rho (up, down):  4.035E-01 1.920E+00

     total cpu time spent up to now is      843.8 secs

     total energy              =   -2701.97829794 Ry
     estimated scf accuracy    <       2.59586453 Ry

     total magnetization       =     9.23 Bohr mag/cell
     absolute magnetization    =    11.73 Bohr mag/cell
[tb_dev] Currently allocated     6.51E+00 Mbytes, locked:    0 /   6
[tb_pin] Currently allocated     0.00E+00 Mbytes, locked:    0 /   0

     iteration # 57     ecut=    90.00 Ry     beta= 0.40
     Davidson diagonalization with overlap

---- Real-time Memory Report at c_bands before calling an iterative solver
          6072 MiB given to the printing process from OS
          1107 MiB allocation reported by mallinfo(arena+hblkhd)
         53941 MiB available memory on the node where the printing process lives
     GPU memory used/free/total (MiB): 6850 / 9430 / 16280
------------------
     ethr =  2.13E-03,  avg # of iterations =  2.5

     negative rho (up, down):  4.269E-01 1.906E+00

     total cpu time spent up to now is      858.3 secs

     total energy              =   -2702.03920010 Ry
     estimated scf accuracy    <       0.98019756 Ry

     total magnetization       =     9.18 Bohr mag/cell
     absolute magnetization    =    11.37 Bohr mag/cell
[tb_dev] Currently allocated     6.51E+00 Mbytes, locked:    0 /   6
[tb_pin] Currently allocated     0.00E+00 Mbytes, locked:    0 /   0

     iteration # 58     ecut=    90.00 Ry     beta= 0.40
     Davidson diagonalization with overlap

---- Real-time Memory Report at c_bands before calling an iterative solver
          6096 MiB given to the printing process from OS
          1131 MiB allocation reported by mallinfo(arena+hblkhd)
         53918 MiB available memory on the node where the printing process lives
     GPU memory used/free/total (MiB): 6850 / 9430 / 16280
------------------
     ethr =  8.03E-04,  avg # of iterations =  1.9

     negative rho (up, down):  4.468E-01 1.868E+00

     total cpu time spent up to now is      872.4 secs

     total energy              =   -2702.03272941 Ry
     estimated scf accuracy    <       1.10683108 Ry

     total magnetization       =     9.18 Bohr mag/cell
     absolute magnetization    =    11.08 Bohr mag/cell
[tb_dev] Currently allocated     6.51E+00 Mbytes, locked:    0 /   6
[tb_pin] Currently allocated     0.00E+00 Mbytes, locked:    0 /   0

     iteration # 59     ecut=    90.00 Ry     beta= 0.40
     Davidson diagonalization with overlap

---- Real-time Memory Report at c_bands before calling an iterative solver
          6119 MiB given to the printing process from OS
          1154 MiB allocation reported by mallinfo(arena+hblkhd)
         53894 MiB available memory on the node where the printing process lives
     GPU memory used/free/total (MiB): 6850 / 9430 / 16280
------------------
     ethr =  8.03E-04,  avg # of iterations =  2.5

     negative rho (up, down):  4.722E-01 1.760E+00

     total cpu time spent up to now is      886.8 secs

     total energy              =   -2702.00260213 Ry
     estimated scf accuracy    <       1.90152267 Ry

     total magnetization       =     9.10 Bohr mag/cell
     absolute magnetization    =    11.31 Bohr mag/cell
[tb_dev] Currently allocated     6.51E+00 Mbytes, locked:    0 /   6
[tb_pin] Currently allocated     0.00E+00 Mbytes, locked:    0 /   0

     iteration # 60     ecut=    90.00 Ry     beta= 0.40
     Davidson diagonalization with overlap

---- Real-time Memory Report at c_bands before calling an iterative solver
          6148 MiB given to the printing process from OS
          1178 MiB allocation reported by mallinfo(arena+hblkhd)
         53871 MiB available memory on the node where the printing process lives
     GPU memory used/free/total (MiB): 6850 / 9430 / 16280
------------------
     ethr =  8.03E-04,  avg # of iterations =  4.0

     negative rho (up, down):  4.435E-01 1.719E+00

     total cpu time spent up to now is      902.3 secs

     total energy              =   -2702.06904129 Ry
     estimated scf accuracy    <       2.87455017 Ry

     total magnetization       =     8.93 Bohr mag/cell
     absolute magnetization    =    13.25 Bohr mag/cell
[tb_dev] Currently allocated     6.51E+00 Mbytes, locked:    0 /   6
[tb_pin] Currently allocated     0.00E+00 Mbytes, locked:    0 /   0

     iteration # 61     ecut=    90.00 Ry     beta= 0.40
     Davidson diagonalization with overlap

---- Real-time Memory Report at c_bands before calling an iterative solver
          6171 MiB given to the printing process from OS
          1201 MiB allocation reported by mallinfo(arena+hblkhd)
         53842 MiB available memory on the node where the printing process lives
     GPU memory used/free/total (MiB): 6850 / 9430 / 16280
------------------
     ethr =  8.03E-04,  avg # of iterations =  1.1

     negative rho (up, down):  3.851E-01 1.802E+00

     total cpu time spent up to now is      915.7 secs

     total energy              =   -2701.97424110 Ry
     estimated scf accuracy    <       2.62108739 Ry

     total magnetization       =     8.91 Bohr mag/cell
[...]
     estimated scf accuracy    <       5.19645055 Ry

     total magnetization       =     6.48 Bohr mag/cell
     absolute magnetization    =     9.09 Bohr mag/cell
[tb_dev] Currently allocated     6.51E+00 Mbytes, locked:    0 /   6
[tb_pin] Currently allocated     0.00E+00 Mbytes, locked:    0 /   0

     iteration # 66     ecut=    90.00 Ry     beta= 0.40
     Davidson diagonalization with overlap

---- Real-time Memory Report at c_bands before calling an iterative solver
          6296 MiB given to the printing process from OS
          1324 MiB allocation reported by mallinfo(arena+hblkhd)
         53719 MiB available memory on the node where the printing process lives
     GPU memory used/free/total (MiB): 6850 / 9430 / 16280
------------------
     ethr =  8.03E-04,  avg # of iterations =  2.0

     negative rho (up, down):  4.561E-01 1.775E+00

     total cpu time spent up to now is      989.1 secs

     total energy              =   -2702.06408416 Ry
     estimated scf accuracy    <       2.26441966 Ry

     total magnetization       =     8.92 Bohr mag/cell
     absolute magnetization    =    11.60 Bohr mag/cell
[tb_dev] Currently allocated     6.51E+00 Mbytes, locked:    0 /   6
[tb_pin] Currently allocated     0.00E+00 Mbytes, locked:    0 /   0

     iteration # 67     ecut=    90.00 Ry     beta= 0.40
     Davidson diagonalization with overlap

---- Real-time Memory Report at c_bands before calling an iterative solver
          6325 MiB given to the printing process from OS
          1350 MiB allocation reported by mallinfo(arena+hblkhd)
         53695 MiB available memory on the node where the printing process lives
     GPU memory used/free/total (MiB): 6850 / 9430 / 16280
------------------
     ethr =  8.03E-04,  avg # of iterations =  1.4

     negative rho (up, down):  4.235E-01 1.760E+00

     total cpu time spent up to now is     1002.7 secs

     total energy              =   -2702.01248096 Ry
     estimated scf accuracy    <       1.64540192 Ry

     total magnetization       =     9.00 Bohr mag/cell
     absolute magnetization    =    11.59 Bohr mag/cell
[tb_dev] Currently allocated     6.51E+00 Mbytes, locked:    0 /   6
[tb_pin] Currently allocated     0.00E+00 Mbytes, locked:    0 /   0

     iteration # 68     ecut=    90.00 Ry     beta= 0.40
     Davidson diagonalization with overlap

---- Real-time Memory Report at c_bands before calling an iterative solver
          6350 MiB given to the printing process from OS
          1373 MiB allocation reported by mallinfo(arena+hblkhd)
         53669 MiB available memory on the node where the printing process lives
     GPU memory used/free/total (MiB): 6850 / 9430 / 16280
------------------
     ethr =  8.03E-04,  avg # of iterations =  1.6

     negative rho (up, down):  4.273E-01 1.749E+00

     total cpu time spent up to now is     1016.6 secs

     total energy              =   -2702.03683137 Ry
     estimated scf accuracy    <       0.75122242 Ry

     total magnetization       =     9.01 Bohr mag/cell
     absolute magnetization    =    11.10 Bohr mag/cell
[tb_dev] Currently allocated     6.51E+00 Mbytes, locked:    0 /   6
[tb_pin] Currently allocated     0.00E+00 Mbytes, locked:    0 /   0

     iteration # 69     ecut=    90.00 Ry     beta= 0.40
     Davidson diagonalization with overlap

---- Real-time Memory Report at c_bands before calling an iterative solver
          6373 MiB given to the printing process from OS
          1412 MiB allocation reported by mallinfo(arena+hblkhd)
         53635 MiB available memory on the node where the printing process lives
     GPU memory used/free/total (MiB): 6850 / 9430 / 16280
------------------
     ethr =  6.16E-04,  avg # of iterations =  1.4

     negative rho (up, down):  4.254E-01 1.782E+00

     total cpu time spent up to now is     1030.3 secs

     total energy              =   -2702.03411372 Ry
     estimated scf accuracy    <       0.78201442 Ry

     total magnetization       =     9.00 Bohr mag/cell
     absolute magnetization    =    11.33 Bohr mag/cell
[tb_dev] Currently allocated     6.51E+00 Mbytes, locked:    0 /   6
[tb_pin] Currently allocated     0.00E+00 Mbytes, locked:    0 /   0

     iteration # 70     ecut=    90.00 Ry     beta= 0.40
     Davidson diagonalization with overlap

---- Real-time Memory Report at c_bands before calling an iterative solver
          6401 MiB given to the printing process from OS
          1436 MiB allocation reported by mallinfo(arena+hblkhd)
         53613 MiB available memory on the node where the printing process lives
     GPU memory used/free/total (MiB): 6850 / 9430 / 16280
------------------
     ethr =  6.16E-04,  avg # of iterations =  1.5

     negative rho (up, down):  5.466E-01 1.692E+00

     total cpu time spent up to now is     1044.0 secs

     total energy              =   -2702.03060915 Ry
     estimated scf accuracy    <       0.68228943 Ry

     total magnetization       =     9.00 Bohr mag/cell
     absolute magnetization    =    10.84 Bohr mag/cell
[tb_dev] Currently allocated     6.51E+00 Mbytes, locked:    0 /   6
[tb_pin] Currently allocated     0.00E+00 Mbytes, locked:    0 /   0

     iteration # 71     ecut=    90.00 Ry     beta= 0.40
     Davidson diagonalization with overlap

---- Real-time Memory Report at c_bands before calling an iterative solver
          6430 MiB given to the printing process from OS
          1459 MiB allocation reported by mallinfo(arena+hblkhd)
         53590 MiB available memory on the node where the printing process lives
     GPU memory used/free/total (MiB): 6850 / 9430 / 16280
------------------
     ethr =  5.59E-04,  avg # of iterations =  3.4

     negative rho (up, down):  5.834E-01 1.680E+00

     total cpu time spent up to now is     1058.9 secs

     total energy              =   -2702.07092152 Ry
     estimated scf accuracy    <       1.21583619 Ry

     total magnetization       =     8.93 Bohr mag/cell
     absolute magnetization    =    12.02 Bohr mag/cell
[tb_dev] Currently allocated     6.51E+00 Mbytes, locked:    0 /   6
[tb_pin] Currently allocated     0.00E+00 Mbytes, locked:    0 /   0

     iteration # 72     ecut=    90.00 Ry     beta= 0.40
     Davidson diagonalization with overlap

---- Real-time Memory Report at c_bands before calling an iterative solver
          6454 MiB given to the printing process from OS
          1483 MiB allocation reported by mallinfo(arena+hblkhd)
         53549 MiB available memory on the node where the printing process lives
     GPU memory used/free/total (MiB): 6850 / 9430 / 16280
------------------
     ethr =  5.59E-04,  avg # of iterations =  2.8

     negative rho (up, down):  5.249E-01 1.679E+00

     total cpu time spent up to now is     1073.4 secs

     total energy              =   -2702.07169100 Ry
     estimated scf accuracy    <       2.35437568 Ry

     total magnetization       =     8.94 Bohr mag/cell
     absolute magnetization    =    13.40 Bohr mag/cell
[tb_dev] Currently allocated     6.51E+00 Mbytes, locked:    0 /   6
[tb_pin] Currently allocated     0.00E+00 Mbytes, locked:    0 /   0

     iteration # 73     ecut=    90.00 Ry     beta= 0.40
     Davidson diagonalization with overlap

---- Real-time Memory Report at c_bands before calling an iterative solver
          6477 MiB given to the printing process from OS
          1506 MiB allocation reported by mallinfo(arena+hblkhd)
         53531 MiB available memory on the node where the printing process lives
     GPU memory used/free/total (MiB): 6850 / 9430 / 16280
------------------
     ethr =  5.59E-04,  avg # of iterations =  1.6

     negative rho (up, down):  4.573E-01 1.712E+00

     total cpu time spent up to now is     1087.2 secs

     total energy              =   -2702.09290581 Ry
     estimated scf accuracy    <       2.13892209 Ry

     total magnetization       =     8.96 Bohr mag/cell
     absolute magnetization    =    12.88 Bohr mag/cell
[tb_dev] Currently allocated     6.51E+00 Mbytes, locked:    0 /   6
[tb_pin] Currently allocated     0.00E+00 Mbytes, locked:    0 /   0

     iteration # 74     ecut=    90.00 Ry     beta= 0.40
     Davidson diagonalization with overlap

---- Real-time Memory Report at c_bands before calling an iterative solver
          6506 MiB given to the printing process from OS
          1530 MiB allocation reported by mallinfo(arena+hblkhd)
         53509 MiB available memory on the node where the printing process lives
     GPU memory used/free/total (MiB): 6850 / 9430 / 16280
------------------
     ethr =  5.59E-04,  avg # of iterations =  2.0

     negative rho (up, down):  5.855E-01 1.668E+00

     total cpu time spent up to now is     1101.4 secs

     total energy              =   -2702.10711890 Ry
     estimated scf accuracy    <       3.71040686 Ry

     total magnetization       =     8.97 Bohr mag/cell
     absolute magnetization    =    12.99 Bohr mag/cell
[tb_dev] Currently allocated     6.51E+00 Mbytes, locked:    0 /   6
[tb_pin] Currently allocated     0.00E+00 Mbytes, locked:    0 /   0

     iteration # 75     ecut=    90.00 Ry     beta= 0.40
     Davidson diagonalization with overlap

---- Real-time Memory Report at c_bands before calling an iterative solver
          6530 MiB given to the printing process from OS
          1553 MiB allocation reported by mallinfo(arena+hblkhd)
         53485 MiB available memory on the node where the printing process lives
     GPU memory used/free/total (MiB): 6850 / 9430 / 16280
------------------
     ethr =  5.59E-04,  avg # of iterations =  1.5

     negative rho (up, down):  5.946E-01 1.674E+00

     total cpu time spent up to now is     1115.3 secs

     total energy              =   -2702.10033887 Ry
     estimated scf accuracy    <       4.10375965 Ry

     total magnetization       =     9.15 Bohr mag/cell
     absolute magnetization    =    13.26 Bohr mag/cell
[tb_dev] Currently allocated     6.51E+00 Mbytes, locked:    0 /   6
[tb_pin] Currently allocated     0.00E+00 Mbytes, locked:    0 /   0

     iteration # 76     ecut=    90.00 Ry     beta= 0.40
     Davidson diagonalization with overlap

---- Real-time Memory Report at c_bands before calling an iterative solver
          6553 MiB given to the printing process from OS
          1582 MiB allocation reported by mallinfo(arena+hblkhd)
         53458 MiB available memory on the node where the printing process lives
     GPU memory used/free/total (MiB): 6850 / 9430 / 16280
------------------
     ethr =  5.59E-04,  avg # of iterations =  1.0

     negative rho (up, down):  6.170E-01 1.677E+00

     total cpu time spent up to now is     1128.7 secs

     total energy              =   -2702.11066909 Ry
     estimated scf accuracy    <       3.80647083 Ry

     total magnetization       =     8.93 Bohr mag/cell
     absolute magnetization    =    13.04 Bohr mag/cell
[tb_dev] Currently allocated     6.51E+00 Mbytes, locked:    0 /   6
[tb_pin] Currently allocated     0.00E+00 Mbytes, locked:    0 /   0

     iteration # 77     ecut=    90.00 Ry     beta= 0.40
     Davidson diagonalization with overlap

---- Real-time Memory Report at c_bands before calling an iterative solver
          6582 MiB given to the printing process from OS
          1607 MiB allocation reported by mallinfo(arena+hblkhd)
         53432 MiB available memory on the node where the printing process lives
     GPU memory used/free/total (MiB): 6850 / 9430 / 16280
------------------
     ethr =  5.59E-04,  avg # of iterations =  1.2

     negative rho (up, down):  5.241E-01 1.666E+00

     total cpu time spent up to now is     1142.2 secs

     total energy              =   -2702.10188523 Ry
     estimated scf accuracy    <       3.80828689 Ry

     total magnetization       =     8.96 Bohr mag/cell
     absolute magnetization    =    13.03 Bohr mag/cell
[tb_dev] Currently allocated     6.51E+00 Mbytes, locked:    0 /   6
[tb_pin] Currently allocated     0.00E+00 Mbytes, locked:    0 /   0

     iteration # 78     ecut=    90.00 Ry     beta= 0.40
     Davidson diagonalization with overlap

---- Real-time Memory Report at c_bands before calling an iterative solver
          6608 MiB given to the printing process from OS
          1631 MiB allocation reported by mallinfo(arena+hblkhd)
         53410 MiB available memory on the node where the printing process lives
     GPU memory used/free/total (MiB): 6850 / 9430 / 16280
------------------
     ethr =  5.59E-04,  avg # of iterations =  1.4

     negative rho (up, down):  5.464E-01 1.679E+00

     total cpu time spent up to now is     1156.0 secs

     total energy              =   -2702.09670619 Ry
     estimated scf accuracy    <       4.12927352 Ry

     total magnetization       =     9.01 Bohr mag/cell
     absolute magnetization    =    12.62 Bohr mag/cell
[tb_dev] Currently allocated     6.51E+00 Mbytes, locked:    0 /   6
[tb_pin] Currently allocated     0.00E+00 Mbytes, locked:    0 /   0

     iteration # 79     ecut=    90.00 Ry     beta= 0.40
     Davidson diagonalization with overlap

---- Real-time Memory Report at c_bands before calling an iterative solver
          6631 MiB given to the printing process from OS
          1669 MiB allocation reported by mallinfo(arena+hblkhd)
         53377 MiB available memory on the node where the printing process lives
     GPU memory used/free/total (MiB): 6850 / 9430 / 16280
------------------
     ethr =  5.59E-04,  avg # of iterations =  1.3

     negative rho (up, down):  6.879E-01 1.656E+00

     total cpu time spent up to now is     1169.6 secs

     total energy              =   -2702.12236523 Ry
     estimated scf accuracy    <       3.66082213 Ry

     total magnetization       =     9.03 Bohr mag/cell
     absolute magnetization    =    12.42 Bohr mag/cell
[tb_dev] Currently allocated     6.51E+00 Mbytes, locked:    0 /   6
[tb_pin] Currently allocated     0.00E+00 Mbytes, locked:    0 /   0

     iteration # 80     ecut=    90.00 Ry     beta= 0.40
     Davidson diagonalization with overlap

---- Real-time Memory Report at c_bands before calling an iterative solver
          6658 MiB given to the printing process from OS
          1693 MiB allocation reported by mallinfo(arena+hblkhd)
         53352 MiB available memory on the node where the printing process lives
     GPU memory used/free/total (MiB): 6850 / 9430 / 16280
------------------
     ethr =  5.59E-04,  avg # of iterations =  2.9

     negative rho (up, down):  6.328E-01 1.652E+00

     total cpu time spent up to now is     1184.2 secs

     total energy              =   -2702.14024827 Ry
     estimated scf accuracy    <       7.12350388 Ry

     total magnetization       =     8.97 Bohr mag/cell
     absolute magnetization    =    14.07 Bohr mag/cell

     End of self-consistent calculation

     convergence NOT achieved after  80 iterations: stopping

     Writing config to output data dir ./out/aiida.save/
 
     init_run     :     61.87s CPU     16.98s WALL (       1 calls)
     electrons    :   3541.32s CPU   1166.15s WALL (       1 calls)

     Called by init_run:
     wfcinit      :      6.52s CPU      8.10s WALL (       1 calls)
                                        8.10s GPU  (       1 calls)
     wfcinit:atom :      0.04s CPU      0.16s WALL (      84 calls)
                                        0.16s GPU  (      84 calls)
     wfcinit:wfcr :      3.30s CPU      3.95s WALL (      84 calls)
                                        3.95s GPU  (      84 calls)
     potinit      :     38.01s CPU      3.47s WALL (       1 calls)
     hinit0       :     10.00s CPU      3.75s WALL (       1 calls)

     Called by electrons:
     c_bands      :    658.99s CPU    692.39s WALL (      80 calls)
     sum_band     :    193.12s CPU    200.76s WALL (      80 calls)
     v_of_rho     :    105.33s CPU     12.95s WALL (      81 calls)
     v_h          :     28.77s CPU      2.83s WALL (      81 calls)
     v_xc         :     76.55s CPU     10.13s WALL (      81 calls)
     newd         :    193.22s CPU     39.71s WALL (      81 calls)
                                       39.71s GPU  (      81 calls)
     PAW_pot      :   2263.31s CPU    205.86s WALL (      81 calls)
     mix_rho      :    117.60s CPU     12.14s WALL (      80 calls)

     Called by c_bands:
     init_us_2    :     25.22s CPU     32.99s WALL (   13524 calls)
     init_us_2:gp :     24.94s CPU     32.72s WALL (   13524 calls)
     cegterg      :    515.20s CPU    538.85s WALL (    6720 calls)

     Called by sum_band:
     sum_band:wei :      0.44s CPU      0.45s WALL (      80 calls)
                                        0.44s GPU  (      80 calls)
     sum_band:loo :    147.97s CPU    154.80s WALL (      80 calls)
                                      154.80s GPU  (      80 calls)
     sum_band:buf :     59.03s CPU     59.80s WALL (    6720 calls)
                                       59.75s GPU  (    6720 calls)
     sum_band:ini :     11.96s CPU     14.66s WALL (    6720 calls)
                                       14.62s GPU  (    6720 calls)
     sum_band:cal :      0.29s CPU      7.98s WALL (    6720 calls)
                                        6.77s GPU  (    6720 calls)
     sum_band:bec :      2.88s CPU      3.03s WALL (    6720 calls)
                                        2.99s GPU  (    6720 calls)
     addusdens    :     35.55s CPU     35.92s WALL (      80 calls)
                                       35.92s GPU  (      80 calls)
     addusd:skk   :      0.11s CPU      0.11s WALL (     320 calls)
                                        0.10s GPU  (     320 calls)

     Called by *egterg:
     cdiaghg      :    111.48s CPU    128.47s WALL (   23826 calls)
                                      128.30s GPU  (   23826 calls)
     cegterg:over :     14.64s CPU     15.13s WALL (   17106 calls)
     cegterg:upda :     14.27s CPU     14.71s WALL (   17106 calls)
     cegterg:last :     14.87s CPU     15.02s WALL (   11432 calls)
     h_psi        :    323.52s CPU    329.13s WALL (   23910 calls)
                                      328.28s GPU  (   23910 calls)
     s_psi        :      5.61s CPU     21.60s WALL (   23910 calls)
                                       19.89s GPU  (   23910 calls)
     g_psi        :      0.13s CPU      1.65s WALL (   17106 calls)
                                        1.54s GPU  (   17106 calls)

     Called by h_psi:
     h_psi:calbec :      0.88s CPU     17.83s WALL (   23910 calls)
                                       17.68s GPU  (   23910 calls)
     vloc_psi     :    280.08s CPU    284.61s WALL (   23910 calls)
                                      284.46s GPU  (   23910 calls)
     add_vuspsi   :      7.75s CPU     22.73s WALL (   23910 calls)
                                       22.58s GPU  (   23910 calls)

     General routines
     calbec       :      0.88s CPU      0.92s WALL (   30630 calls)
     fft          :      6.21s CPU      1.46s WALL (    2023 calls)
                                        1.06s GPU  (    1861 calls)
     ffts         :      0.18s CPU      0.09s WALL (     322 calls)
                                        0.02s GPU  (     160 calls)
     fftw         :      3.70s CPU    257.21s WALL (  190504 calls)
                                      255.33s GPU  (  190504 calls)
     interpolate  :     20.21s CPU      1.81s WALL (     162 calls)
     davcio       :      0.07s CPU      1.68s WALL (     102 calls)
 
     Parallel routines

     PAW routines
     PAW_pot      :   2263.31s CPU    205.86s WALL (      81 calls)
     PAW_symme    :      0.85s CPU      0.14s WALL (     161 calls)
 
     PWSCF        :      1h 0m CPU  19m46.54s WALL

 
   This run was terminated on:   0: 8: 2  23Oct2023            

=------------------------------------------------------------------------------=
   JOB DONE.
=------------------------------------------------------------------------------=
