
     Program PWSCF v.7.2 starts on 23Oct2023 at 17:42:56 

     This program is part of the open-source Quantum ESPRESSO suite
     for quantum simulation of materials; please cite
         "P. Giannozzi et al., J. Phys.:Condens. Matter 21 395502 (2009);
         "P. Giannozzi et al., J. Phys.:Condens. Matter 29 465901 (2017);
         "P. Giannozzi et al., J. Chem. Phys. 152 154105 (2020);
          URL http://www.quantum-espresso.org", 
     in publications or presentations arising from this work. More details at
     http://www.quantum-espresso.org/quote

     Parallel version (MPI & OpenMP), running on      12 processor cores
     Number of MPI processes:                 1
     Threads/MPI process:                    12

     MPI processes distributed on     1 nodes
     60523 MiB available memory on the printing compute node when the environment starts
 
     Reading input from aiida.in

     Current dimensions of program PWSCF are:
     Max number of different atomic species (ntypx) = 10
     Max number of k-points (npk) =  40000
     Max angular momentum in pseudopotentials (lmaxx) =  4
     file Ba.pbesol-spn-kjpaw_psl.1.0.0.UPF: wavefunction(s)  5S 6S renormalized
     Message from routine setup:
     using ibrav=0 with symmetry is DISCOURAGED, use correct ibrav instead
 
     Subspace diagonalization in iterative solution of the eigenvalue problem:
     a serial algorithm will be used

 
     G-vector sticks info
     --------------------
     sticks:   dense  smooth     PW     G-vecs:    dense   smooth      PW
     Sum        3131    2355    651               197841   128363   18925
 
     Using Slab Decomposition
 


     bravais-lattice index     =            0
     lattice parameter (alat)  =      15.0914  a.u.
     unit-cell volume          =    3150.5905 (a.u.)^3
     number of atoms/cell      =           12
     number of atomic types    =            2
     number of electrons       =       152.00
     number of Kohn-Sham states=           91
     kinetic-energy cutoff     =      45.0000  Ry
     charge density cutoff     =     240.0000  Ry
     scf convergence threshold =      2.4E-09
     mixing beta               =       0.4000
     number of iterations used =            8  plain     mixing
     Exchange-correlation= PBESOL
                           (   1   4  10   8   0   0   0)

     GPU acceleration is ACTIVE.


     GPU used by master process:

        Device Number: 0
        Device name: Tesla P100-PCIE-16GB
        Compute capability : 60
        Ratio of single to double precision performance  : 2
        Memory Clock Rate (KHz): 715000
        Memory Bus Width (bits): 4096
        Peak Memory Bandwidth (GB/s): 732.16

     celldm(1)=  15.091353  celldm(2)=   0.000000  celldm(3)=   0.000000
     celldm(4)=   0.000000  celldm(5)=   0.000000  celldm(6)=   0.000000

     crystal axes: (cart. coord. in units of alat)
               a(1) = (   1.000000   0.000000   0.000000 )  
               a(2) = (   0.000000   0.721012   0.000000 )  
               a(3) = (   0.000000   0.000000   1.271350 )  

     reciprocal axes: (cart. coord. in units 2 pi/alat)
               b(1) = (  1.000000  0.000000  0.000000 )  
               b(2) = (  0.000000  1.386940  0.000000 )  
               b(3) = (  0.000000  0.000000  0.786566 )  


     PseudoPot. # 1 for Ba read from file:
     ./pseudo/Ba.pbesol-spn-kjpaw_psl.1.0.0.UPF
     MD5 check sum: f28c4a63d325c1a0d00fd3a4f19b8d73
     Pseudo is Projector augmented-wave + core cor, Zval = 10.0
     Generated using "atomic" code by A. Dal Corso  v.6.0 svn rev. 13079
     Shape of augmentation charge: PSQ
     Using radial grid of 1251 points,  7 beta functions with: 
                l(1) =   0
                l(2) =   0
                l(3) =   0
                l(4) =   1
                l(5) =   1
                l(6) =   2
                l(7) =   2
     Q(r) pseudized with 0 coefficients 


     PseudoPot. # 2 for Pd read from file:
     ./pseudo/Pd_ONCV_PBEsol-1.0.upf
     MD5 check sum: 252ac589d0cc8911379e98310815452c
     Pseudo is Norm-conserving, Zval = 18.0
     Generated using ONCVPSP code by D. R. Hamann
     Using radial grid of 1394 points,  6 beta functions with: 
                l(1) =   0
                l(2) =   0
                l(3) =   1
                l(4) =   1
                l(5) =   2
                l(6) =   2

     atomic species   valence    mass     pseudopotential
        Ba            10.00   137.32700     Ba( 1.00)
        Pd            18.00   106.42000     Pd( 1.00)

     Starting magnetic structure 
     atomic species   magnetization
        Ba           0.100
        Pd           0.100

      8 Sym. Ops., with inversion, found ( 6 have fractional translation)


                                    s                        frac. trans.

      isym =  1     identity                                     

 cryst.   s( 1) = (     1          0          0      )
                  (     0          1          0      )
                  (     0          0          1      )

 cart.    s( 1) = (  1.0000000  0.0000000  0.0000000 )
                  (  0.0000000  1.0000000  0.0000000 )
                  (  0.0000000  0.0000000  1.0000000 )


      isym =  2     180 deg rotation - cart. axis [0,0,1]        

 cryst.   s( 2) = (    -1          0          0      )    f =(  0.5000000 )
                  (     0         -1          0      )       (  0.0000000 )
                  (     0          0          1      )       ( -0.5000000 )

 cart.    s( 2) = ( -1.0000000  0.0000000  0.0000000 )    f =(  0.5000000 )
                  (  0.0000000 -1.0000000  0.0000000 )       (  0.0000000 )
                  (  0.0000000  0.0000000  1.0000000 )       ( -0.6356749 )


      isym =  3     180 deg rotation - cart. axis [0,1,0]        

 cryst.   s( 3) = (    -1          0          0      )    f =(  0.0000000 )
                  (     0          1          0      )       ( -0.5000000 )
                  (     0          0         -1      )       (  0.0000000 )

 cart.    s( 3) = ( -1.0000000  0.0000000  0.0000000 )    f =(  0.0000000 )
                  (  0.0000000  1.0000000  0.0000000 )       ( -0.3605059 )
                  (  0.0000000  0.0000000 -1.0000000 )       (  0.0000000 )


      isym =  4     180 deg rotation - cart. axis [1,0,0]        

 cryst.   s( 4) = (     1          0          0      )    f =( -0.5000000 )
                  (     0         -1          0      )       (  0.5000000 )
                  (     0          0         -1      )       (  0.5000000 )

 cart.    s( 4) = (  1.0000000  0.0000000  0.0000000 )    f =( -0.5000000 )
                  (  0.0000000 -1.0000000  0.0000000 )       (  0.3605059 )
                  (  0.0000000  0.0000000 -1.0000000 )       (  0.6356749 )


      isym =  5     inversion                                    

 cryst.   s( 5) = (    -1          0          0      )
                  (     0         -1          0      )
                  (     0          0         -1      )

 cart.    s( 5) = ( -1.0000000  0.0000000  0.0000000 )
                  (  0.0000000 -1.0000000  0.0000000 )
                  (  0.0000000  0.0000000 -1.0000000 )


      isym =  6     inv. 180 deg rotation - cart. axis [0,0,1]   

 cryst.   s( 6) = (     1          0          0      )    f =( -0.5000000 )
                  (     0          1          0      )       (  0.0000000 )
                  (     0          0         -1      )       (  0.5000000 )

 cart.    s( 6) = (  1.0000000  0.0000000  0.0000000 )    f =( -0.5000000 )
                  (  0.0000000  1.0000000  0.0000000 )       (  0.0000000 )
                  (  0.0000000  0.0000000 -1.0000000 )       (  0.6356749 )


      isym =  7     inv. 180 deg rotation - cart. axis [0,1,0]   

 cryst.   s( 7) = (     1          0          0      )    f =(  0.0000000 )
                  (     0         -1          0      )       (  0.5000000 )
                  (     0          0          1      )       (  0.0000000 )

 cart.    s( 7) = (  1.0000000  0.0000000  0.0000000 )    f =(  0.0000000 )
                  (  0.0000000 -1.0000000  0.0000000 )       (  0.3605059 )
                  (  0.0000000  0.0000000  1.0000000 )       (  0.0000000 )


      isym =  8     inv. 180 deg rotation - cart. axis [1,0,0]   

 cryst.   s( 8) = (    -1          0          0      )    f =(  0.5000000 )
                  (     0          1          0      )       ( -0.5000000 )
                  (     0          0          1      )       ( -0.5000000 )

 cart.    s( 8) = ( -1.0000000  0.0000000  0.0000000 )    f =(  0.5000000 )
                  (  0.0000000  1.0000000  0.0000000 )       ( -0.3605059 )
                  (  0.0000000  0.0000000  1.0000000 )       ( -0.6356749 )


   Cartesian axes

     site n.     atom                  positions (alat units)
         1           Ba  tau(   1) = (   0.8531000   0.1802529   0.5120234  )
         2           Ba  tau(   2) = (   0.3531000   0.1802529   0.1236515  )
         3           Ba  tau(   3) = (   0.1469000   0.5407588   0.7593264  )
         4           Ba  tau(   4) = (   0.6469000   0.5407588   1.1476984  )
         5           Ba  tau(   5) = (   0.0128000   0.1802529   1.0580682  )
         6           Ba  tau(   6) = (   0.5128000   0.1802529   0.8489566  )
         7           Ba  tau(   7) = (   0.9872000   0.5407588   0.2132817  )
         8           Ba  tau(   8) = (   0.4872000   0.5407588   0.4223933  )
         9           Pd  tau(   9) = (   0.2598000   0.1802529   0.5329499  )
        10           Pd  tau(  10) = (   0.7598000   0.1802529   0.1027251  )
        11           Pd  tau(  11) = (   0.7402000   0.5407588   0.7384000  )
        12           Pd  tau(  12) = (   0.2402000   0.5407588   1.1686248  )

   Crystallographic axes

     site n.     atom                  positions (cryst. coord.)
         1           Ba  tau(   1) = (  0.8531000  0.2500000  0.4027400  )
         2           Ba  tau(   2) = (  0.3531000  0.2500000  0.0972600  )
         3           Ba  tau(   3) = (  0.1469000  0.7500000  0.5972600  )
         4           Ba  tau(   4) = (  0.6469000  0.7500000  0.9027400  )
         5           Ba  tau(   5) = (  0.0128000  0.2500000  0.8322400  )
         6           Ba  tau(   6) = (  0.5128000  0.2500000  0.6677600  )
         7           Ba  tau(   7) = (  0.9872000  0.7500000  0.1677600  )
         8           Ba  tau(   8) = (  0.4872000  0.7500000  0.3322400  )
         9           Pd  tau(   9) = (  0.2598000  0.2500000  0.4192000  )
        10           Pd  tau(  10) = (  0.7598000  0.2500000  0.0808000  )
        11           Pd  tau(  11) = (  0.7402000  0.7500000  0.5808000  )
        12           Pd  tau(  12) = (  0.2402000  0.7500000  0.9192000  )

     number of k points=    60  Marzari-Vanderbilt smearing, width (Ry)=  0.0100
                       cart. coord. in units 2pi/alat
        k(    1) = (   0.0000000   0.0000000   0.0000000), wk =   0.0041667
        k(    2) = (   0.0000000   0.0000000   0.1573131), wk =   0.0083333
        k(    3) = (   0.0000000   0.0000000   0.3146262), wk =   0.0083333
        k(    4) = (   0.0000000   0.1733675   0.0000000), wk =   0.0083333
        k(    5) = (   0.0000000   0.1733675   0.1573131), wk =   0.0166667
        k(    6) = (   0.0000000   0.1733675   0.3146262), wk =   0.0166667
        k(    7) = (   0.0000000   0.3467350   0.0000000), wk =   0.0083333
        k(    8) = (   0.0000000   0.3467350   0.1573131), wk =   0.0166667
        k(    9) = (   0.0000000   0.3467350   0.3146262), wk =   0.0166667
        k(   10) = (   0.0000000   0.5201025   0.0000000), wk =   0.0083333
        k(   11) = (   0.0000000   0.5201025   0.1573131), wk =   0.0166667
        k(   12) = (   0.0000000   0.5201025   0.3146262), wk =   0.0166667
        k(   13) = (   0.0000000  -0.6934700   0.0000000), wk =   0.0041667
        k(   14) = (   0.0000000  -0.6934700   0.1573131), wk =   0.0083333
        k(   15) = (   0.0000000  -0.6934700   0.3146262), wk =   0.0083333
        k(   16) = (   0.1666667   0.0000000   0.0000000), wk =   0.0083333
        k(   17) = (   0.1666667   0.0000000   0.1573131), wk =   0.0166667
        k(   18) = (   0.1666667   0.0000000   0.3146262), wk =   0.0166667
        k(   19) = (   0.1666667   0.1733675   0.0000000), wk =   0.0166667
        k(   20) = (   0.1666667   0.1733675   0.1573131), wk =   0.0333333
        k(   21) = (   0.1666667   0.1733675   0.3146262), wk =   0.0333333
        k(   22) = (   0.1666667   0.3467350   0.0000000), wk =   0.0166667
        k(   23) = (   0.1666667   0.3467350   0.1573131), wk =   0.0333333
        k(   24) = (   0.1666667   0.3467350   0.3146262), wk =   0.0333333
        k(   25) = (   0.1666667   0.5201025   0.0000000), wk =   0.0166667
        k(   26) = (   0.1666667   0.5201025   0.1573131), wk =   0.0333333
        k(   27) = (   0.1666667   0.5201025   0.3146262), wk =   0.0333333
        k(   28) = (   0.1666667  -0.6934700   0.0000000), wk =   0.0083333
        k(   29) = (   0.1666667  -0.6934700   0.1573131), wk =   0.0166667
        k(   30) = (   0.1666667  -0.6934700   0.3146262), wk =   0.0166667
        k(   31) = (   0.3333333   0.0000000   0.0000000), wk =   0.0083333
        k(   32) = (   0.3333333   0.0000000   0.1573131), wk =   0.0166667
        k(   33) = (   0.3333333   0.0000000   0.3146262), wk =   0.0166667
        k(   34) = (   0.3333333   0.1733675   0.0000000), wk =   0.0166667
        k(   35) = (   0.3333333   0.1733675   0.1573131), wk =   0.0333333
        k(   36) = (   0.3333333   0.1733675   0.3146262), wk =   0.0333333
        k(   37) = (   0.3333333   0.3467350   0.0000000), wk =   0.0166667
        k(   38) = (   0.3333333   0.3467350   0.1573131), wk =   0.0333333
        k(   39) = (   0.3333333   0.3467350   0.3146262), wk =   0.0333333
        k(   40) = (   0.3333333   0.5201025   0.0000000), wk =   0.0166667
        k(   41) = (   0.3333333   0.5201025   0.1573131), wk =   0.0333333
        k(   42) = (   0.3333333   0.5201025   0.3146262), wk =   0.0333333
        k(   43) = (   0.3333333  -0.6934700   0.0000000), wk =   0.0083333
        k(   44) = (   0.3333333  -0.6934700   0.1573131), wk =   0.0166667
        k(   45) = (   0.3333333  -0.6934700   0.3146262), wk =   0.0166667
        k(   46) = (  -0.5000000   0.0000000   0.0000000), wk =   0.0041667
        k(   47) = (  -0.5000000   0.0000000   0.1573131), wk =   0.0083333
        k(   48) = (  -0.5000000   0.0000000   0.3146262), wk =   0.0083333
        k(   49) = (  -0.5000000   0.1733675   0.0000000), wk =   0.0083333
        k(   50) = (  -0.5000000   0.1733675   0.1573131), wk =   0.0166667
        k(   51) = (  -0.5000000   0.1733675   0.3146262), wk =   0.0166667
        k(   52) = (  -0.5000000   0.3467350   0.0000000), wk =   0.0083333
        k(   53) = (  -0.5000000   0.3467350   0.1573131), wk =   0.0166667
        k(   54) = (  -0.5000000   0.3467350   0.3146262), wk =   0.0166667
        k(   55) = (  -0.5000000   0.5201025   0.0000000), wk =   0.0083333
        k(   56) = (  -0.5000000   0.5201025   0.1573131), wk =   0.0166667
        k(   57) = (  -0.5000000   0.5201025   0.3146262), wk =   0.0166667
        k(   58) = (  -0.5000000  -0.6934700   0.0000000), wk =   0.0041667
        k(   59) = (  -0.5000000  -0.6934700   0.1573131), wk =   0.0083333
        k(   60) = (  -0.5000000  -0.6934700   0.3146262), wk =   0.0083333

                       cryst. coord.
        k(    1) = (   0.0000000   0.0000000   0.0000000), wk =   0.0041667
        k(    2) = (   0.0000000   0.0000000   0.2000000), wk =   0.0083333
        k(    3) = (   0.0000000   0.0000000   0.4000000), wk =   0.0083333
        k(    4) = (   0.0000000   0.1250000   0.0000000), wk =   0.0083333
        k(    5) = (   0.0000000   0.1250000   0.2000000), wk =   0.0166667
        k(    6) = (   0.0000000   0.1250000   0.4000000), wk =   0.0166667
        k(    7) = (   0.0000000   0.2500000   0.0000000), wk =   0.0083333
        k(    8) = (   0.0000000   0.2500000   0.2000000), wk =   0.0166667
        k(    9) = (   0.0000000   0.2500000   0.4000000), wk =   0.0166667
        k(   10) = (   0.0000000   0.3750000   0.0000000), wk =   0.0083333
        k(   11) = (   0.0000000   0.3750000   0.2000000), wk =   0.0166667
        k(   12) = (   0.0000000   0.3750000   0.4000000), wk =   0.0166667
        k(   13) = (   0.0000000  -0.5000000   0.0000000), wk =   0.0041667
        k(   14) = (   0.0000000  -0.5000000   0.2000000), wk =   0.0083333
        k(   15) = (   0.0000000  -0.5000000   0.4000000), wk =   0.0083333
        k(   16) = (   0.1666667   0.0000000   0.0000000), wk =   0.0083333
        k(   17) = (   0.1666667   0.0000000   0.2000000), wk =   0.0166667
        k(   18) = (   0.1666667   0.0000000   0.4000000), wk =   0.0166667
        k(   19) = (   0.1666667   0.1250000   0.0000000), wk =   0.0166667
        k(   20) = (   0.1666667   0.1250000   0.2000000), wk =   0.0333333
        k(   21) = (   0.1666667   0.1250000   0.4000000), wk =   0.0333333
        k(   22) = (   0.1666667   0.2500000   0.0000000), wk =   0.0166667
        k(   23) = (   0.1666667   0.2500000   0.2000000), wk =   0.0333333
        k(   24) = (   0.1666667   0.2500000   0.4000000), wk =   0.0333333
        k(   25) = (   0.1666667   0.3750000   0.0000000), wk =   0.0166667
        k(   26) = (   0.1666667   0.3750000   0.2000000), wk =   0.0333333
        k(   27) = (   0.1666667   0.3750000   0.4000000), wk =   0.0333333
        k(   28) = (   0.1666667  -0.5000000   0.0000000), wk =   0.0083333
        k(   29) = (   0.1666667  -0.5000000   0.2000000), wk =   0.0166667
        k(   30) = (   0.1666667  -0.5000000   0.4000000), wk =   0.0166667
        k(   31) = (   0.3333333   0.0000000   0.0000000), wk =   0.0083333
        k(   32) = (   0.3333333   0.0000000   0.2000000), wk =   0.0166667
        k(   33) = (   0.3333333   0.0000000   0.4000000), wk =   0.0166667
        k(   34) = (   0.3333333   0.1250000   0.0000000), wk =   0.0166667
        k(   35) = (   0.3333333   0.1250000   0.2000000), wk =   0.0333333
        k(   36) = (   0.3333333   0.1250000   0.4000000), wk =   0.0333333
        k(   37) = (   0.3333333   0.2500000   0.0000000), wk =   0.0166667
        k(   38) = (   0.3333333   0.2500000   0.2000000), wk =   0.0333333
        k(   39) = (   0.3333333   0.2500000   0.4000000), wk =   0.0333333
        k(   40) = (   0.3333333   0.3750000   0.0000000), wk =   0.0166667
        k(   41) = (   0.3333333   0.3750000   0.2000000), wk =   0.0333333
        k(   42) = (   0.3333333   0.3750000   0.4000000), wk =   0.0333333
        k(   43) = (   0.3333333  -0.5000000   0.0000000), wk =   0.0083333
        k(   44) = (   0.3333333  -0.5000000   0.2000000), wk =   0.0166667
        k(   45) = (   0.3333333  -0.5000000   0.4000000), wk =   0.0166667
        k(   46) = (  -0.5000000   0.0000000   0.0000000), wk =   0.0041667
        k(   47) = (  -0.5000000   0.0000000   0.2000000), wk =   0.0083333
        k(   48) = (  -0.5000000   0.0000000   0.4000000), wk =   0.0083333
        k(   49) = (  -0.5000000   0.1250000   0.0000000), wk =   0.0083333
        k(   50) = (  -0.5000000   0.1250000   0.2000000), wk =   0.0166667
        k(   51) = (  -0.5000000   0.1250000   0.4000000), wk =   0.0166667
        k(   52) = (  -0.5000000   0.2500000   0.0000000), wk =   0.0083333
        k(   53) = (  -0.5000000   0.2500000   0.2000000), wk =   0.0166667
        k(   54) = (  -0.5000000   0.2500000   0.4000000), wk =   0.0166667
        k(   55) = (  -0.5000000   0.3750000   0.0000000), wk =   0.0083333
        k(   56) = (  -0.5000000   0.3750000   0.2000000), wk =   0.0166667
        k(   57) = (  -0.5000000   0.3750000   0.4000000), wk =   0.0166667
        k(   58) = (  -0.5000000  -0.5000000   0.0000000), wk =   0.0041667
        k(   59) = (  -0.5000000  -0.5000000   0.2000000), wk =   0.0083333
        k(   60) = (  -0.5000000  -0.5000000   0.4000000), wk =   0.0083333

     Dense  grid:   197841 G-vectors     FFT dimensions: (  80,  54,  96)

     Smooth grid:   128363 G-vectors     FFT dimensions: (  72,  48,  90)

     Dynamical RAM for                 wfc:      22.30 MB

     Dynamical RAM for     wfc (w. buffer):    2698.48 MB

     Dynamical RAM for           str. fact:       6.04 MB

     Dynamical RAM for           local pot:       0.00 MB

     Dynamical RAM for          nlocal pot:      54.90 MB

     Dynamical RAM for                qrad:       3.32 MB

     Dynamical RAM for          rho,v,vnew:      37.10 MB

     Dynamical RAM for               rhoin:      12.37 MB

     Dynamical RAM for            rho*nmix:      96.60 MB

     Dynamical RAM for           G-vectors:      12.30 MB

     Dynamical RAM for          h,s,v(r/c):       1.52 MB

     Dynamical RAM for          <psi|beta>:       0.31 MB

     Dynamical RAM for                 psi:      44.60 MB

     Dynamical RAM for                hpsi:      44.60 MB

     Dynamical RAM for                spsi:      44.60 MB

     Dynamical RAM for      wfcinit/wfcrot:      44.79 MB

     Dynamical RAM for           addusdens:     646.03 MB

     Dynamical RAM for          addusforce:     688.36 MB

     Dynamical RAM for         addusstress:     668.67 MB

     Estimated static dynamical RAM per process >       2.79 GB

     Estimated max dynamical RAM per process >       3.55 GB
     Generating pointlists ...
     new r_m :   0.1670 (alat units)  2.5200 (a.u.) for type    1
     new r_m :   0.1670 (alat units)  2.5200 (a.u.) for type    2

     Initial potential from superposition of free atoms

     starting charge     151.8733, renormalised to     152.0000
     Starting wfcs are   80 randomized atomic wfcs +   11 random wfcs
     Checking if some PAW data can be deallocated... 

     total cpu time spent up to now is       13.3 secs

     Self-consistent Calculation
[tb_dev] Currently allocated     4.30E+00 Mbytes, locked:    0 /   8
[tb_pin] Currently allocated     0.00E+00 Mbytes, locked:    0 /   0

     iteration #  1     ecut=    45.00 Ry     beta= 0.40
     Davidson diagonalization with overlap

---- Real-time Memory Report at c_bands before calling an iterative solver
          4196 MiB given to the printing process from OS
          -641 MiB allocation reported by mallinfo(arena+hblkhd)
         55613 MiB available memory on the node where the printing process lives
     GPU memory used/free/total (MiB): 1508 / 14772 / 16280
------------------
     ethr =  1.00E-02,  avg # of iterations =  6.2

     negative rho (up, down):  3.169E+00 4.448E-01

     total cpu time spent up to now is       37.5 secs

     total energy              =   -4449.05004929 Ry
     estimated scf accuracy    <      38.78045162 Ry

     total magnetization       =     1.64 Bohr mag/cell
     absolute magnetization    =    28.05 Bohr mag/cell
[tb_dev] Currently allocated     4.30E+00 Mbytes, locked:    0 /   6
[tb_pin] Currently allocated     0.00E+00 Mbytes, locked:    0 /   0

     iteration #  2     ecut=    45.00 Ry     beta= 0.40
     Davidson diagonalization with overlap

---- Real-time Memory Report at c_bands before calling an iterative solver
          4477 MiB given to the printing process from OS
          -507 MiB allocation reported by mallinfo(arena+hblkhd)
         55499 MiB available memory on the node where the printing process lives
     GPU memory used/free/total (MiB): 2848 / 13432 / 16280
------------------
     ethr =  1.00E-02,  avg # of iterations =  2.5

     negative rho (up, down):  3.040E+00 6.501E-01

     total cpu time spent up to now is       55.5 secs

     total energy              =   -4448.51730346 Ry
     estimated scf accuracy    <       7.32730579 Ry

     total magnetization       =     2.13 Bohr mag/cell
     absolute magnetization    =    15.06 Bohr mag/cell
[tb_dev] Currently allocated     4.30E+00 Mbytes, locked:    0 /   6
[tb_pin] Currently allocated     0.00E+00 Mbytes, locked:    0 /   0

     iteration #  3     ecut=    45.00 Ry     beta= 0.40
     Davidson diagonalization with overlap

---- Real-time Memory Report at c_bands before calling an iterative solver
          4535 MiB given to the printing process from OS
          -475 MiB allocation reported by mallinfo(arena+hblkhd)
         55458 MiB available memory on the node where the printing process lives
     GPU memory used/free/total (MiB): 2848 / 13432 / 16280
------------------
     ethr =  4.82E-03,  avg # of iterations =  3.0

     negative rho (up, down):  3.628E+00 7.905E-01

     total cpu time spent up to now is       74.3 secs

     total energy              =   -4450.37970480 Ry
     estimated scf accuracy    <      27.28394193 Ry

     total magnetization       =     0.89 Bohr mag/cell
     absolute magnetization    =    22.20 Bohr mag/cell
[tb_dev] Currently allocated     4.30E+00 Mbytes, locked:    0 /   6
[tb_pin] Currently allocated     0.00E+00 Mbytes, locked:    0 /   0

     iteration #  4     ecut=    45.00 Ry     beta= 0.40
     Davidson diagonalization with overlap

---- Real-time Memory Report at c_bands before calling an iterative solver
          4564 MiB given to the printing process from OS
          -446 MiB allocation reported by mallinfo(arena+hblkhd)
         55431 MiB available memory on the node where the printing process lives
     GPU memory used/free/total (MiB): 2848 / 13432 / 16280
------------------
     ethr =  4.82E-03,  avg # of iterations =  3.0

     negative rho (up, down):  3.568E+00 1.077E+00

     total cpu time spent up to now is       92.1 secs

     total energy              =   -4450.39500072 Ry
     estimated scf accuracy    <      11.42027083 Ry

     total magnetization       =     0.75 Bohr mag/cell
     absolute magnetization    =    19.37 Bohr mag/cell
[tb_dev] Currently allocated     4.30E+00 Mbytes, locked:    0 /   6
[tb_pin] Currently allocated     0.00E+00 Mbytes, locked:    0 /   0

     iteration #  5     ecut=    45.00 Ry     beta= 0.40
     Davidson diagonalization with overlap

---- Real-time Memory Report at c_bands before calling an iterative solver
          4593 MiB given to the printing process from OS
          -416 MiB allocation reported by mallinfo(arena+hblkhd)
         55402 MiB available memory on the node where the printing process lives
     GPU memory used/free/total (MiB): 2848 / 13432 / 16280
------------------
     ethr =  4.82E-03,  avg # of iterations =  1.6

     negative rho (up, down):  3.467E+00 1.100E+00

     total cpu time spent up to now is      108.2 secs

     total energy              =   -4450.55456978 Ry
     estimated scf accuracy    <       6.92601667 Ry

     total magnetization       =     0.71 Bohr mag/cell
     absolute magnetization    =    14.93 Bohr mag/cell
[tb_dev] Currently allocated     4.30E+00 Mbytes, locked:    0 /   6
[tb_pin] Currently allocated     0.00E+00 Mbytes, locked:    0 /   0

     iteration #  6     ecut=    45.00 Ry     beta= 0.40
     Davidson diagonalization with overlap

---- Real-time Memory Report at c_bands before calling an iterative solver
          4622 MiB given to the printing process from OS
          -388 MiB allocation reported by mallinfo(arena+hblkhd)
         55372 MiB available memory on the node where the printing process lives
     GPU memory used/free/total (MiB): 2848 / 13432 / 16280
------------------
     ethr =  4.56E-03,  avg # of iterations =  1.0

     negative rho (up, down):  3.483E+00 1.101E+00

     total cpu time spent up to now is      123.5 secs

     total energy              =   -4450.59304233 Ry
     estimated scf accuracy    <       5.08387963 Ry

     total magnetization       =     0.73 Bohr mag/cell
     absolute magnetization    =    13.03 Bohr mag/cell
[tb_dev] Currently allocated     4.30E+00 Mbytes, locked:    0 /   6
[tb_pin] Currently allocated     0.00E+00 Mbytes, locked:    0 /   0

     iteration #  7     ecut=    45.00 Ry     beta= 0.40
     Davidson diagonalization with overlap

---- Real-time Memory Report at c_bands before calling an iterative solver
          4650 MiB given to the printing process from OS
          -359 MiB allocation reported by mallinfo(arena+hblkhd)
         55344 MiB available memory on the node where the printing process lives
     GPU memory used/free/total (MiB): 2848 / 13432 / 16280
------------------
     ethr =  3.34E-03,  avg # of iterations =  1.0

     negative rho (up, down):  2.537E+00 1.299E+00

     total cpu time spent up to now is      138.8 secs

     total energy              =   -4450.24232083 Ry
     estimated scf accuracy    <       5.73922136 Ry

     total magnetization       =     0.73 Bohr mag/cell
     absolute magnetization    =    12.29 Bohr mag/cell
[tb_dev] Currently allocated     4.30E+00 Mbytes, locked:    0 /   6
[tb_pin] Currently allocated     0.00E+00 Mbytes, locked:    0 /   0

     iteration #  8     ecut=    45.00 Ry     beta= 0.40
     Davidson diagonalization with overlap

---- Real-time Memory Report at c_bands before calling an iterative solver
          4679 MiB given to the printing process from OS
          -330 MiB allocation reported by mallinfo(arena+hblkhd)
         55313 MiB available memory on the node where the printing process lives
     GPU memory used/free/total (MiB): 2848 / 13432 / 16280
------------------
     ethr =  3.34E-03,  avg # of iterations =  3.2

     negative rho (up, down):  2.415E+00 1.410E+00

     total cpu time spent up to now is      157.4 secs

     total energy              =   -4450.36344229 Ry
     estimated scf accuracy    <      36.76804913 Ry

     total magnetization       =     0.85 Bohr mag/cell
     absolute magnetization    =    27.53 Bohr mag/cell
[tb_dev] Currently allocated     4.30E+00 Mbytes, locked:    0 /   6
[tb_pin] Currently allocated     0.00E+00 Mbytes, locked:    0 /   0

     iteration #  9     ecut=    45.00 Ry     beta= 0.40
     Davidson diagonalization with overlap

---- Real-time Memory Report at c_bands before calling an iterative solver
          4708 MiB given to the printing process from OS
          -302 MiB allocation reported by mallinfo(arena+hblkhd)
         55286 MiB available memory on the node where the printing process lives
     GPU memory used/free/total (MiB): 2848 / 13432 / 16280
------------------
     ethr =  3.34E-03,  avg # of iterations =  2.5

     negative rho (up, down):  2.957E+00 1.679E+00

     total cpu time spent up to now is      174.8 secs

     total energy              =   -4450.30493996 Ry
     estimated scf accuracy    <      29.08761157 Ry

     total magnetization       =     0.78 Bohr mag/cell
     absolute magnetization    =    27.83 Bohr mag/cell
[tb_dev] Currently allocated     4.30E+00 Mbytes, locked:    0 /   6
[tb_pin] Currently allocated     0.00E+00 Mbytes, locked:    0 /   0

     iteration # 10     ecut=    45.00 Ry     beta= 0.40
     Davidson diagonalization with overlap

---- Real-time Memory Report at c_bands before calling an iterative solver
          4737 MiB given to the printing process from OS
          -273 MiB allocation reported by mallinfo(arena+hblkhd)
         55258 MiB available memory on the node where the printing process lives
     GPU memory used/free/total (MiB): 2848 / 13432 / 16280
------------------
     ethr =  3.34E-03,  avg # of iterations =  3.2

     negative rho (up, down):  3.227E+00 1.791E+00

     total cpu time spent up to now is      193.1 secs

     total energy              =   -4450.39189377 Ry
     estimated scf accuracy    <      16.07120769 Ry

     total magnetization       =     0.57 Bohr mag/cell
     absolute magnetization    =    15.74 Bohr mag/cell
[tb_dev] Currently allocated     4.30E+00 Mbytes, locked:    0 /   6
[tb_pin] Currently allocated     0.00E+00 Mbytes, locked:    0 /   0

     iteration # 11     ecut=    45.00 Ry     beta= 0.40
     Davidson diagonalization with overlap

---- Real-time Memory Report at c_bands before calling an iterative solver
          4757 MiB given to the printing process from OS
          -253 MiB allocation reported by mallinfo(arena+hblkhd)
         55237 MiB available memory on the node where the printing process lives
     GPU memory used/free/total (MiB): 2848 / 13432 / 16280
------------------
     ethr =  3.34E-03,  avg # of iterations =  3.1

     negative rho (up, down):  3.135E+00 1.382E+00

     total cpu time spent up to now is      211.1 secs

     total energy              =   -4450.35904484 Ry
     estimated scf accuracy    <      13.29261237 Ry

     total magnetization       =     0.52 Bohr mag/cell
     absolute magnetization    =     9.32 Bohr mag/cell
[tb_dev] Currently allocated     4.30E+00 Mbytes, locked:    0 /   6
[tb_pin] Currently allocated     0.00E+00 Mbytes, locked:    0 /   0

     iteration # 12     ecut=    45.00 Ry     beta= 0.40
     Davidson diagonalization with overlap

---- Real-time Memory Report at c_bands before calling an iterative solver
          4774 MiB given to the printing process from OS
          -236 MiB allocation reported by mallinfo(arena+hblkhd)
         55220 MiB available memory on the node where the printing process lives
     GPU memory used/free/total (MiB): 2848 / 13432 / 16280
------------------
     ethr =  3.34E-03,  avg # of iterations =  2.1

     negative rho (up, down):  3.017E+00 1.225E+00

     total cpu time spent up to now is      227.8 secs

     total energy              =   -4450.57563672 Ry
     estimated scf accuracy    <       5.03992759 Ry

     total magnetization       =     0.52 Bohr mag/cell
     absolute magnetization    =    11.93 Bohr mag/cell
[tb_dev] Currently allocated     4.30E+00 Mbytes, locked:    0 /   6
[tb_pin] Currently allocated     0.00E+00 Mbytes, locked:    0 /   0

     iteration # 13     ecut=    45.00 Ry     beta= 0.40
     Davidson diagonalization with overlap

---- Real-time Memory Report at c_bands before calling an iterative solver
          4794 MiB given to the printing process from OS
          -216 MiB allocation reported by mallinfo(arena+hblkhd)
         55202 MiB available memory on the node where the printing process lives
     GPU memory used/free/total (MiB): 2848 / 13432 / 16280
------------------
     ethr =  3.32E-03,  avg # of iterations =  1.0

     negative rho (up, down):  2.549E+00 9.967E-01

     total cpu time spent up to now is      243.1 secs

     total energy              =   -4450.48852371 Ry
     estimated scf accuracy    <       6.27890438 Ry

     total magnetization       =     0.50 Bohr mag/cell
     absolute magnetization    =    12.43 Bohr mag/cell
[tb_dev] Currently allocated     4.30E+00 Mbytes, locked:    0 /   6
[tb_pin] Currently allocated     0.00E+00 Mbytes, locked:    0 /   0

     iteration # 14     ecut=    45.00 Ry     beta= 0.40
     Davidson diagonalization with overlap

---- Real-time Memory Report at c_bands before calling an iterative solver
          4811 MiB given to the printing process from OS
          -199 MiB allocation reported by mallinfo(arena+hblkhd)
         55185 MiB available memory on the node where the printing process lives
     GPU memory used/free/total (MiB): 2848 / 13432 / 16280
------------------
     ethr =  3.32E-03,  avg # of iterations =  2.0

     negative rho (up, down):  2.396E+00 8.859E-01

     total cpu time spent up to now is      259.9 secs

     total energy              =   -4450.39263963 Ry
     estimated scf accuracy    <       7.49504747 Ry

     total magnetization       =     0.36 Bohr mag/cell
     absolute magnetization    =     6.26 Bohr mag/cell
[tb_dev] Currently allocated     4.30E+00 Mbytes, locked:    0 /   6
[tb_pin] Currently allocated     0.00E+00 Mbytes, locked:    0 /   0

     iteration # 15     ecut=    45.00 Ry     beta= 0.40
     Davidson diagonalization with overlap

---- Real-time Memory Report at c_bands before calling an iterative solver
          4829 MiB given to the printing process from OS
          -182 MiB allocation reported by mallinfo(arena+hblkhd)
         55166 MiB available memory on the node where the printing process lives
     GPU memory used/free/total (MiB): 2848 / 13432 / 16280
------------------
     ethr =  3.32E-03,  avg # of iterations =  2.4

     negative rho (up, down):  2.421E+00 8.534E-01

     total cpu time spent up to now is      276.9 secs

     total energy              =   -4450.54364575 Ry
     estimated scf accuracy    <       3.48537406 Ry

     total magnetization       =     0.34 Bohr mag/cell
     absolute magnetization    =     8.59 Bohr mag/cell
[tb_dev] Currently allocated     4.30E+00 Mbytes, locked:    0 /   6
[tb_pin] Currently allocated     0.00E+00 Mbytes, locked:    0 /   0

     iteration # 16     ecut=    45.00 Ry     beta= 0.40
     Davidson diagonalization with overlap

---- Real-time Memory Report at c_bands before calling an iterative solver
          4845 MiB given to the printing process from OS
          -166 MiB allocation reported by mallinfo(arena+hblkhd)
         55148 MiB available memory on the node where the printing process lives
     GPU memory used/free/total (MiB): 2848 / 13432 / 16280
------------------
     ethr =  2.29E-03,  avg # of iterations =  1.1

     negative rho (up, down):  2.677E+00 1.002E+00

     total cpu time spent up to now is      292.3 secs

     total energy              =   -4450.55743851 Ry
     estimated scf accuracy    <       3.28167707 Ry

     total magnetization       =     0.32 Bohr mag/cell
     absolute magnetization    =     8.70 Bohr mag/cell
[tb_dev] Currently allocated     4.30E+00 Mbytes, locked:    0 /   6
[tb_pin] Currently allocated     0.00E+00 Mbytes, locked:    0 /   0

     iteration # 17     ecut=    45.00 Ry     beta= 0.40
     Davidson diagonalization with overlap

---- Real-time Memory Report at c_bands before calling an iterative solver
          4862 MiB given to the printing process from OS
          -149 MiB allocation reported by mallinfo(arena+hblkhd)
         55134 MiB available memory on the node where the printing process lives
     GPU memory used/free/total (MiB): 2848 / 13432 / 16280
------------------
     ethr =  2.16E-03,  avg # of iterations =  2.8

     negative rho (up, down):  2.669E+00 8.137E-01

     total cpu time spent up to now is      310.2 secs

     total energy              =   -4450.47604240 Ry
     estimated scf accuracy    <      14.75369475 Ry

     total magnetization       =     0.41 Bohr mag/cell
     absolute magnetization    =    12.55 Bohr mag/cell
[tb_dev] Currently allocated     4.30E+00 Mbytes, locked:    0 /   6
[tb_pin] Currently allocated     0.00E+00 Mbytes, locked:    0 /   0

     iteration # 18     ecut=    45.00 Ry     beta= 0.40
     Davidson diagonalization with overlap

---- Real-time Memory Report at c_bands before calling an iterative solver
          4879 MiB given to the printing process from OS
          -132 MiB allocation reported by mallinfo(arena+hblkhd)
         55119 MiB available memory on the node where the printing process lives
     GPU memory used/free/total (MiB): 2848 / 13432 / 16280
------------------
     ethr =  2.16E-03,  avg # of iterations =  2.2

     negative rho (up, down):  2.527E+00 7.652E-01

     total cpu time spent up to now is      327.0 secs

     total energy              =   -4450.67991481 Ry
     estimated scf accuracy    <       6.03382828 Ry

     total magnetization       =     0.25 Bohr mag/cell
     absolute magnetization    =     8.52 Bohr mag/cell
[tb_dev] Currently allocated     4.30E+00 Mbytes, locked:    0 /   6
[tb_pin] Currently allocated     0.00E+00 Mbytes, locked:    0 /   0

     iteration # 19     ecut=    45.00 Ry     beta= 0.40
     Davidson diagonalization with overlap

---- Real-time Memory Report at c_bands before calling an iterative solver
          4895 MiB given to the printing process from OS
          -115 MiB allocation reported by mallinfo(arena+hblkhd)
         55098 MiB available memory on the node where the printing process lives
     GPU memory used/free/total (MiB): 2848 / 13432 / 16280
------------------
     ethr =  2.16E-03,  avg # of iterations =  1.8

     negative rho (up, down):  2.370E+00 4.756E-01

     total cpu time spent up to now is      343.3 secs

     total energy              =   -4450.77787469 Ry
     estimated scf accuracy    <       9.87784775 Ry

     total magnetization       =     0.23 Bohr mag/cell
     absolute magnetization    =     8.98 Bohr mag/cell
[tb_dev] Currently allocated     4.30E+00 Mbytes, locked:    0 /   6
[tb_pin] Currently allocated     0.00E+00 Mbytes, locked:    0 /   0

     iteration # 20     ecut=    45.00 Ry     beta= 0.40
     Davidson diagonalization with overlap

---- Real-time Memory Report at c_bands before calling an iterative solver
          4912 MiB given to the printing process from OS
           -98 MiB allocation reported by mallinfo(arena+hblkhd)
         55084 MiB available memory on the node where the printing process lives
     GPU memory used/free/total (MiB): 2848 / 13432 / 16280
------------------
     ethr =  2.16E-03,  avg # of iterations =  3.0

     negative rho (up, down):  2.367E+00 5.084E-01

     total cpu time spent up to now is      361.2 secs

     total energy              =   -4450.91867372 Ry
     estimated scf accuracy    <      28.66368994 Ry

     total magnetization       =     0.11 Bohr mag/cell
     absolute magnetization    =     9.58 Bohr mag/cell
[tb_dev] Currently allocated     4.30E+00 Mbytes, locked:    0 /   6
[tb_pin] Currently allocated     0.00E+00 Mbytes, locked:    0 /   0

     iteration # 21     ecut=    45.00 Ry     beta= 0.40
     Davidson diagonalization with overlap

---- Real-time Memory Report at c_bands before calling an iterative solver
          4929 MiB given to the printing process from OS
           -81 MiB allocation reported by mallinfo(arena+hblkhd)
         55065 MiB available memory on the node where the printing process lives
     GPU memory used/free/total (MiB): 2848 / 13432 / 16280
------------------
     ethr =  2.16E-03,  avg # of iterations =  1.0

     negative rho (up, down):  2.642E+00 9.465E-01

     total cpu time spent up to now is      376.5 secs

     total energy              =   -4450.62889064 Ry
     estimated scf accuracy    <      28.49964653 Ry

     total magnetization       =     0.13 Bohr mag/cell
     absolute magnetization    =     8.45 Bohr mag/cell
[tb_dev] Currently allocated     4.30E+00 Mbytes, locked:    0 /   6
[tb_pin] Currently allocated     0.00E+00 Mbytes, locked:    0 /   0

     iteration # 22     ecut=    45.00 Ry     beta= 0.40
     Davidson diagonalization with overlap

---- Real-time Memory Report at c_bands before calling an iterative solver
          4948 MiB given to the printing process from OS
           -61 MiB allocation reported by mallinfo(arena+hblkhd)
         55046 MiB available memory on the node where the printing process lives
     GPU memory used/free/total (MiB): 2848 / 13432 / 16280
------------------
     ethr =  2.16E-03,  avg # of iterations =  2.1

     negative rho (up, down):  2.438E+00 6.798E-01

     total cpu time spent up to now is      393.4 secs

     total energy              =   -4450.82822242 Ry
     estimated scf accuracy    <      19.64813138 Ry

     total magnetization       =     0.31 Bohr mag/cell
     absolute magnetization    =     9.97 Bohr mag/cell
[tb_dev] Currently allocated     4.30E+00 Mbytes, locked:    0 /   6
[tb_pin] Currently allocated     0.00E+00 Mbytes, locked:    0 /   0

     iteration # 23     ecut=    45.00 Ry     beta= 0.40
     Davidson diagonalization with overlap

---- Real-time Memory Report at c_bands before calling an iterative solver
          4965 MiB given to the printing process from OS
           -44 MiB allocation reported by mallinfo(arena+hblkhd)
         55034 MiB available memory on the node where the printing process lives
     GPU memory used/free/total (MiB): 2848 / 13432 / 16280
------------------
     ethr =  2.16E-03,  avg # of iterations =  1.6

     negative rho (up, down):  2.445E+00 9.212E-01

     total cpu time spent up to now is      409.4 secs

     total energy              =   -4450.20476914 Ry
     estimated scf accuracy    <      23.02352540 Ry

     total magnetization       =     0.17 Bohr mag/cell
     absolute magnetization    =     7.93 Bohr mag/cell
[tb_dev] Currently allocated     4.30E+00 Mbytes, locked:    0 /   6
[tb_pin] Currently allocated     0.00E+00 Mbytes, locked:    0 /   0

     iteration # 24     ecut=    45.00 Ry     beta= 0.40
     Davidson diagonalization with overlap

---- Real-time Memory Report at c_bands before calling an iterative solver
          4982 MiB given to the printing process from OS
           -27 MiB allocation reported by mallinfo(arena+hblkhd)
         55014 MiB available memory on the node where the printing process lives
     GPU memory used/free/total (MiB): 2848 / 13432 / 16280
------------------
     ethr =  2.16E-03,  avg # of iterations =  3.4

     negative rho (up, down):  2.422E+00 5.768E-01

     total cpu time spent up to now is      427.8 secs

     total energy              =   -4450.53105087 Ry
     estimated scf accuracy    <       2.88538955 Ry

     total magnetization       =     0.28 Bohr mag/cell
     absolute magnetization    =     9.79 Bohr mag/cell
[tb_dev] Currently allocated     4.30E+00 Mbytes, locked:    0 /   6
[tb_pin] Currently allocated     0.00E+00 Mbytes, locked:    0 /   0

     iteration # 25     ecut=    45.00 Ry     beta= 0.40
     Davidson diagonalization with overlap

---- Real-time Memory Report at c_bands before calling an iterative solver
          5000 MiB given to the printing process from OS
           -11 MiB allocation reported by mallinfo(arena+hblkhd)
         54996 MiB available memory on the node where the printing process lives
     GPU memory used/free/total (MiB): 2848 / 13432 / 16280
------------------
     ethr =  1.90E-03,  avg # of iterations =  3.0

     negative rho (up, down):  2.600E+00 4.952E-01

     total cpu time spent up to now is      445.8 secs

     total energy              =   -4450.53135832 Ry
     estimated scf accuracy    <      13.69672979 Ry

     total magnetization       =     0.15 Bohr mag/cell
     absolute magnetization    =     5.92 Bohr mag/cell
[tb_dev] Currently allocated     4.30E+00 Mbytes, locked:    0 /   6
[tb_pin] Currently allocated     0.00E+00 Mbytes, locked:    0 /   0

     iteration # 26     ecut=    45.00 Ry     beta= 0.40
     Davidson diagonalization with overlap

---- Real-time Memory Report at c_bands before calling an iterative solver
          5017 MiB given to the printing process from OS
             5 MiB allocation reported by mallinfo(arena+hblkhd)
         54981 MiB available memory on the node where the printing process lives
     GPU memory used/free/total (MiB): 2848 / 13432 / 16280
------------------
     ethr =  1.90E-03,  avg # of iterations =  1.6

     negative rho (up, down):  2.408E+00 4.972E-01

     total cpu time spent up to now is      461.9 secs

     total energy              =   -4450.75554933 Ry
     estimated scf accuracy    <       8.61332496 Ry

     total magnetization       =     0.20 Bohr mag/cell
     absolute magnetization    =     4.25 Bohr mag/cell
[tb_dev] Currently allocated     4.30E+00 Mbytes, locked:    0 /   6
[tb_pin] Currently allocated     0.00E+00 Mbytes, locked:    0 /   0

     iteration # 27     ecut=    45.00 Ry     beta= 0.40
     Davidson diagonalization with overlap

---- Real-time Memory Report at c_bands before calling an iterative solver
          5034 MiB given to the printing process from OS
            22 MiB allocation reported by mallinfo(arena+hblkhd)
         54965 MiB available memory on the node where the printing process lives
     GPU memory used/free/total (MiB): 2848 / 13432 / 16280
------------------
     ethr =  1.90E-03,  avg # of iterations =  2.3

     negative rho (up, down):  2.308E+00 3.625E-01

     total cpu time spent up to now is      478.6 secs

     total energy              =   -4450.40161996 Ry
     estimated scf accuracy    <      21.13791651 Ry

     total magnetization       =     0.12 Bohr mag/cell
     absolute magnetization    =     6.56 Bohr mag/cell
[tb_dev] Currently allocated     4.30E+00 Mbytes, locked:    0 /   6
[tb_pin] Currently allocated     0.00E+00 Mbytes, locked:    0 /   0

     iteration # 28     ecut=    45.00 Ry     beta= 0.40
     Davidson diagonalization with overlap

---- Real-time Memory Report at c_bands before calling an iterative solver
          5051 MiB given to the printing process from OS
            39 MiB allocation reported by mallinfo(arena+hblkhd)
         54948 MiB available memory on the node where the printing process lives
     GPU memory used/free/total (MiB): 2848 / 13432 / 16280
------------------
     ethr =  1.90E-03,  avg # of iterations =  2.8

     negative rho (up, down):  2.227E+00 1.231E-01

     total cpu time spent up to now is      496.3 secs

     total energy              =   -4450.61759658 Ry
     estimated scf accuracy    <       6.07507030 Ry

     total magnetization       =     0.14 Bohr mag/cell
     absolute magnetization    =     8.87 Bohr mag/cell
[tb_dev] Currently allocated     4.30E+00 Mbytes, locked:    0 /   6
[tb_pin] Currently allocated     0.00E+00 Mbytes, locked:    0 /   0

     iteration # 29     ecut=    45.00 Ry     beta= 0.40
     Davidson diagonalization with overlap

---- Real-time Memory Report at c_bands before calling an iterative solver
          5070 MiB given to the printing process from OS
            59 MiB allocation reported by mallinfo(arena+hblkhd)
         54928 MiB available memory on the node where the printing process lives
     GPU memory used/free/total (MiB): 2848 / 13432 / 16280
------------------
     ethr =  1.90E-03,  avg # of iterations =  1.5

     negative rho (up, down):  2.335E+00 1.113E-01

     total cpu time spent up to now is      512.3 secs

     total energy              =   -4450.66010743 Ry
     estimated scf accuracy    <       6.78595839 Ry

     total magnetization       =     0.01 Bohr mag/cell
     absolute magnetization    =    10.33 Bohr mag/cell
[tb_dev] Currently allocated     4.30E+00 Mbytes, locked:    0 /   6
[tb_pin] Currently allocated     0.00E+00 Mbytes, locked:    0 /   0

     iteration # 30     ecut=    45.00 Ry     beta= 0.40
     Davidson diagonalization with overlap

---- Real-time Memory Report at c_bands before calling an iterative solver
          5080 MiB given to the printing process from OS
            76 MiB allocation reported by mallinfo(arena+hblkhd)
         54918 MiB available memory on the node where the printing process lives
     GPU memory used/free/total (MiB): 2848 / 13432 / 16280
------------------
     ethr =  1.90E-03,  avg # of iterations =  1.6

     negative rho (up, down):  2.381E+00 1.034E-01

     total cpu time spent up to now is      528.3 secs

     total energy              =   -4450.63879649 Ry
     estimated scf accuracy    <       7.18835846 Ry

     total magnetization       =     0.03 Bohr mag/cell
     absolute magnetization    =    10.96 Bohr mag/cell
[tb_dev] Currently allocated     4.30E+00 Mbytes, locked:    0 /   6
[tb_pin] Currently allocated     0.00E+00 Mbytes, locked:    0 /   0

     iteration # 31     ecut=    45.00 Ry     beta= 0.40
     Davidson diagonalization with overlap

---- Real-time Memory Report at c_bands before calling an iterative solver
          5080 MiB given to the printing process from OS
            45 MiB allocation reported by mallinfo(arena+hblkhd)
         54930 MiB available memory on the node where the printing process lives
     GPU memory used/free/total (MiB): 2848 / 13432 / 16280
------------------
     ethr =  1.90E-03,  avg # of iterations =  1.8

     negative rho (up, down):  2.471E+00 3.925E-01

     total cpu time spent up to now is      544.5 secs

     total energy              =   -4450.53307008 Ry
     estimated scf accuracy    <       7.66028127 Ry

     total magnetization       =    -0.01 Bohr mag/cell
     absolute magnetization    =     7.45 Bohr mag/cell
[tb_dev] Currently allocated     4.30E+00 Mbytes, locked:    0 /   6
[tb_pin] Currently allocated     0.00E+00 Mbytes, locked:    0 /   0

     iteration # 32     ecut=    45.00 Ry     beta= 0.40
     Davidson diagonalization with overlap

---- Real-time Memory Report at c_bands before calling an iterative solver
          5101 MiB given to the printing process from OS
            62 MiB allocation reported by mallinfo(arena+hblkhd)
         54911 MiB available memory on the node where the printing process lives
     GPU memory used/free/total (MiB): 2848 / 13432 / 16280
------------------
     ethr =  1.90E-03,  avg # of iterations =  3.0

     negative rho (up, down):  2.227E+00 1.228E-01

     total cpu time spent up to now is      562.7 secs

     total energy              =   -4450.28677798 Ry
     estimated scf accuracy    <      16.94499894 Ry

     total magnetization       =    -0.05 Bohr mag/cell
     absolute magnetization    =    10.82 Bohr mag/cell
[tb_dev] Currently allocated     4.30E+00 Mbytes, locked:    0 /   6
[tb_pin] Currently allocated     0.00E+00 Mbytes, locked:    0 /   0

     iteration # 33     ecut=    45.00 Ry     beta= 0.40
     Davidson diagonalization with overlap

---- Real-time Memory Report at c_bands before calling an iterative solver
          5117 MiB given to the printing process from OS
            79 MiB allocation reported by mallinfo(arena+hblkhd)
         54893 MiB available memory on the node where the printing process lives
     GPU memory used/free/total (MiB): 2848 / 13432 / 16280
------------------
     ethr =  1.90E-03,  avg # of iterations =  2.5

     negative rho (up, down):  2.175E+00 1.574E-01

     total cpu time spent up to now is      580.4 secs

     total energy              =   -4450.52986099 Ry
     estimated scf accuracy    <       0.40482599 Ry

     total magnetization       =    -0.01 Bohr mag/cell
     absolute magnetization    =     4.11 Bohr mag/cell
[tb_dev] Currently allocated     4.30E+00 Mbytes, locked:    0 /   6
[tb_pin] Currently allocated     0.00E+00 Mbytes, locked:    0 /   0

     iteration # 34     ecut=    45.00 Ry     beta= 0.40
     Davidson diagonalization with overlap

---- Real-time Memory Report at c_bands before calling an iterative solver
          5135 MiB given to the printing process from OS
            95 MiB allocation reported by mallinfo(arena+hblkhd)
         54878 MiB available memory on the node where the printing process lives
     GPU memory used/free/total (MiB): 2848 / 13432 / 16280
------------------
     ethr =  2.66E-04,  avg # of iterations =  3.3

     negative rho (up, down):  2.221E+00 7.889E-02

     total cpu time spent up to now is      599.2 secs

     total energy              =   -4450.53866926 Ry
     estimated scf accuracy    <       2.12178991 Ry

     total magnetization       =     0.04 Bohr mag/cell
     absolute magnetization    =     5.75 Bohr mag/cell
[tb_dev] Currently allocated     4.30E+00 Mbytes, locked:    0 /   6
[tb_pin] Currently allocated     0.00E+00 Mbytes, locked:    0 /   0

     iteration # 35     ecut=    45.00 Ry     beta= 0.40
     Davidson diagonalization with overlap

---- Real-time Memory Report at c_bands before calling an iterative solver
          5155 MiB given to the printing process from OS
           112 MiB allocation reported by mallinfo(arena+hblkhd)
         54862 MiB available memory on the node where the printing process lives
     GPU memory used/free/total (MiB): 2848 / 13432 / 16280
------------------
     ethr =  2.66E-04,  avg # of iterations =  2.5

     negative rho (up, down):  2.247E+00 1.112E-01

     total cpu time spent up to now is      616.6 secs

     total energy              =   -4450.59681238 Ry
     estimated scf accuracy    <       1.39458415 Ry

     total magnetization       =     0.02 Bohr mag/cell
     absolute magnetization    =     3.92 Bohr mag/cell
[tb_dev] Currently allocated     4.30E+00 Mbytes, locked:    0 /   6
[tb_pin] Currently allocated     0.00E+00 Mbytes, locked:    0 /   0

     iteration # 36     ecut=    45.00 Ry     beta= 0.40
     Davidson diagonalization with overlap

---- Real-time Memory Report at c_bands before calling an iterative solver
          5171 MiB given to the printing process from OS
           129 MiB allocation reported by mallinfo(arena+hblkhd)
         54845 MiB available memory on the node where the printing process lives
     GPU memory used/free/total (MiB): 2848 / 13432 / 16280
------------------
     ethr =  2.66E-04,  avg # of iterations =  3.2

     negative rho (up, down):  2.245E+00 1.303E-01

     total cpu time spent up to now is      635.1 secs

     total energy              =   -4450.69569218 Ry
     estimated scf accuracy    <       7.03081390 Ry

     total magnetization       =     0.01 Bohr mag/cell
     absolute magnetization    =     4.12 Bohr mag/cell
[tb_dev] Currently allocated     4.30E+00 Mbytes, locked:    0 /   6
[tb_pin] Currently allocated     0.00E+00 Mbytes, locked:    0 /   0

     iteration # 37     ecut=    45.00 Ry     beta= 0.40
     Davidson diagonalization with overlap

---- Real-time Memory Report at c_bands before calling an iterative solver
          5188 MiB given to the printing process from OS
           146 MiB allocation reported by mallinfo(arena+hblkhd)
         54825 MiB available memory on the node where the printing process lives
     GPU memory used/free/total (MiB): 2848 / 13432 / 16280
------------------
     ethr =  2.66E-04,  avg # of iterations =  3.1

     negative rho (up, down):  2.329E+00 1.093E-01

     total cpu time spent up to now is      653.0 secs

     total energy              =   -4450.60345681 Ry
     estimated scf accuracy    <      11.07548702 Ry

     total magnetization       =     0.02 Bohr mag/cell
     absolute magnetization    =     6.33 Bohr mag/cell
[tb_dev] Currently allocated     4.30E+00 Mbytes, locked:    0 /   6
[tb_pin] Currently allocated     0.00E+00 Mbytes, locked:    0 /   0

     iteration # 38     ecut=    45.00 Ry     beta= 0.40
     Davidson diagonalization with overlap

---- Real-time Memory Report at c_bands before calling an iterative solver
          5209 MiB given to the printing process from OS
           163 MiB allocation reported by mallinfo(arena+hblkhd)
         54808 MiB available memory on the node where the printing process lives
     GPU memory used/free/total (MiB): 2848 / 13432 / 16280
------------------
     ethr =  2.66E-04,  avg # of iterations =  4.0

     negative rho (up, down):  2.243E+00 1.032E-01

     total cpu time spent up to now is      672.7 secs

     total energy              =   -4450.51289873 Ry
     estimated scf accuracy    <       6.59447567 Ry

     total magnetization       =     0.01 Bohr mag/cell
     absolute magnetization    =     7.93 Bohr mag/cell
[tb_dev] Currently allocated     4.30E+00 Mbytes, locked:    0 /   6
[tb_pin] Currently allocated     0.00E+00 Mbytes, locked:    0 /   0

     iteration # 39     ecut=    45.00 Ry     beta= 0.40
     Davidson diagonalization with overlap

---- Real-time Memory Report at c_bands before calling an iterative solver
          5229 MiB given to the printing process from OS
           180 MiB allocation reported by mallinfo(arena+hblkhd)
         54792 MiB available memory on the node where the printing process lives
     GPU memory used/free/total (MiB): 2848 / 13432 / 16280
------------------
     ethr =  2.66E-04,  avg # of iterations =  4.0

     negative rho (up, down):  2.220E+00 1.080E-01

     total cpu time spent up to now is      692.6 secs

     total energy              =   -4450.52409133 Ry
     estimated scf accuracy    <       2.86841248 Ry

     total magnetization       =     0.01 Bohr mag/cell
     absolute magnetization    =     3.19 Bohr mag/cell
[tb_dev] Currently allocated     4.30E+00 Mbytes, locked:    0 /   6
[tb_pin] Currently allocated     0.00E+00 Mbytes, locked:    0 /   0

     iteration # 40     ecut=    45.00 Ry     beta= 0.40
     Davidson diagonalization with overlap

---- Real-time Memory Report at c_bands before calling an iterative solver
          5246 MiB given to the printing process from OS
           197 MiB allocation reported by mallinfo(arena+hblkhd)
         54779 MiB available memory on the node where the printing process lives
     GPU memory used/free/total (MiB): 2848 / 13432 / 16280
------------------
     ethr =  2.66E-04,  avg # of iterations =  2.5

     negative rho (up, down):  2.198E+00 8.431E-02

     total cpu time spent up to now is      710.2 secs

     total energy              =   -4450.53206543 Ry
     estimated scf accuracy    <       1.46114615 Ry

     total magnetization       =     0.02 Bohr mag/cell
     absolute magnetization    =     5.28 Bohr mag/cell
[tb_dev] Currently allocated     4.30E+00 Mbytes, locked:    0 /   6
[tb_pin] Currently allocated     0.00E+00 Mbytes, locked:    0 /   0

     iteration # 41     ecut=    45.00 Ry     beta= 0.40
     Davidson diagonalization with overlap

---- Real-time Memory Report at c_bands before calling an iterative solver
          5267 MiB given to the printing process from OS
           213 MiB allocation reported by mallinfo(arena+hblkhd)
         54759 MiB available memory on the node where the printing process lives
     GPU memory used/free/total (MiB): 2848 / 13432 / 16280
------------------
     ethr =  2.66E-04,  avg # of iterations =  3.0

     negative rho (up, down):  2.152E+00 8.495E-02

     total cpu time spent up to now is      728.5 secs

     total energy              =   -4450.55595133 Ry
     estimated scf accuracy    <       2.02817508 Ry

     total magnetization       =    -0.01 Bohr mag/cell
     absolute magnetization    =     2.42 Bohr mag/cell
[tb_dev] Currently allocated     4.30E+00 Mbytes, locked:    0 /   6
[tb_pin] Currently allocated     0.00E+00 Mbytes, locked:    0 /   0

     iteration # 42     ecut=    45.00 Ry     beta= 0.40
     Davidson diagonalization with overlap

---- Real-time Memory Report at c_bands before calling an iterative solver
          5284 MiB given to the printing process from OS
           230 MiB allocation reported by mallinfo(arena+hblkhd)
         54743 MiB available memory on the node where the printing process lives
     GPU memory used/free/total (MiB): 2848 / 13432 / 16280
------------------
     ethr =  2.66E-04,  avg # of iterations =  2.5

     negative rho (up, down):  2.177E+00 8.225E-02

     total cpu time spent up to now is      745.9 secs

     total energy              =   -4450.54752724 Ry
     estimated scf accuracy    <       3.20921150 Ry

     total magnetization       =    -0.01 Bohr mag/cell
     absolute magnetization    =     5.35 Bohr mag/cell
[tb_dev] Currently allocated     4.30E+00 Mbytes, locked:    0 /   6
[tb_pin] Currently allocated     0.00E+00 Mbytes, locked:    0 /   0

     iteration # 43     ecut=    45.00 Ry     beta= 0.40
     Davidson diagonalization with overlap

---- Real-time Memory Report at c_bands before calling an iterative solver
          5301 MiB given to the printing process from OS
           247 MiB allocation reported by mallinfo(arena+hblkhd)
         54727 MiB available memory on the node where the printing process lives
     GPU memory used/free/total (MiB): 2848 / 13432 / 16280
------------------
     ethr =  2.66E-04,  avg # of iterations =  2.8

     negative rho (up, down):  2.163E+00 1.007E-01

     total cpu time spent up to now is      763.5 secs

     total energy              =   -4450.53091816 Ry
     estimated scf accuracy    <       1.79388756 Ry

     total magnetization       =    -0.02 Bohr mag/cell
     absolute magnetization    =     4.82 Bohr mag/cell
[tb_dev] Currently allocated     4.30E+00 Mbytes, locked:    0 /   6
[tb_pin] Currently allocated     0.00E+00 Mbytes, locked:    0 /   0

     iteration # 44     ecut=    45.00 Ry     beta= 0.40
     Davidson diagonalization with overlap

---- Real-time Memory Report at c_bands before calling an iterative solver
          5322 MiB given to the printing process from OS
           264 MiB allocation reported by mallinfo(arena+hblkhd)
         54712 MiB available memory on the node where the printing process lives
     GPU memory used/free/total (MiB): 2848 / 13432 / 16280
------------------
     ethr =  2.66E-04,  avg # of iterations =  1.9

     negative rho (up, down):  2.161E+00 1.018E-01

     total cpu time spent up to now is      779.9 secs

     total energy              =   -4450.54306634 Ry
     estimated scf accuracy    <       0.89160545 Ry

     total magnetization       =    -0.04 Bohr mag/cell
     absolute magnetization    =     4.88 Bohr mag/cell
[tb_dev] Currently allocated     4.30E+00 Mbytes, locked:    0 /   6
[tb_pin] Currently allocated     0.00E+00 Mbytes, locked:    0 /   0

     iteration # 45     ecut=    45.00 Ry     beta= 0.40
     Davidson diagonalization with overlap

---- Real-time Memory Report at c_bands before calling an iterative solver
          5339 MiB given to the printing process from OS
           281 MiB allocation reported by mallinfo(arena+hblkhd)
         54690 MiB available memory on the node where the printing process lives
     GPU memory used/free/total (MiB): 2848 / 13432 / 16280
------------------
     ethr =  2.66E-04,  avg # of iterations =  1.0

     negative rho (up, down):  2.173E+00 7.496E-02

     total cpu time spent up to now is      795.3 secs

     total energy              =   -4450.55830554 Ry
     estimated scf accuracy    <       0.67238770 Ry

     total magnetization       =    -0.07 Bohr mag/cell
     absolute magnetization    =     4.83 Bohr mag/cell
[tb_dev] Currently allocated     4.30E+00 Mbytes, locked:    0 /   6
[tb_pin] Currently allocated     0.00E+00 Mbytes, locked:    0 /   0

     iteration # 46     ecut=    45.00 Ry     beta= 0.40
     Davidson diagonalization with overlap

---- Real-time Memory Report at c_bands before calling an iterative solver
          5356 MiB given to the printing process from OS
           298 MiB allocation reported by mallinfo(arena+hblkhd)
         54675 MiB available memory on the node where the printing process lives
     GPU memory used/free/total (MiB): 2848 / 13432 / 16280
------------------
     ethr =  2.66E-04,  avg # of iterations =  1.6

     negative rho (up, down):  2.179E+00 5.052E-02

     total cpu time spent up to now is      811.5 secs

     total energy              =   -4450.56111678 Ry
     estimated scf accuracy    <       1.08425975 Ry

     total magnetization       =    -0.06 Bohr mag/cell
     absolute magnetization    =     3.42 Bohr mag/cell
[tb_dev] Currently allocated     4.30E+00 Mbytes, locked:    0 /   6
[tb_pin] Currently allocated     0.00E+00 Mbytes, locked:    0 /   0

     iteration # 47     ecut=    45.00 Ry     beta= 0.40
     Davidson diagonalization with overlap

---- Real-time Memory Report at c_bands before calling an iterative solver
          5373 MiB given to the printing process from OS
           315 MiB allocation reported by mallinfo(arena+hblkhd)
         54658 MiB available memory on the node where the printing process lives
     GPU memory used/free/total (MiB): 2848 / 13432 / 16280
------------------
     ethr =  2.66E-04,  avg # of iterations =  1.0

     negative rho (up, down):  2.174E+00 3.645E-02

     total cpu time spent up to now is      826.9 secs

     total energy              =   -4450.56298539 Ry
     estimated scf accuracy    <       1.27167215 Ry

     total magnetization       =    -0.04 Bohr mag/cell
     absolute magnetization    =     3.39 Bohr mag/cell
[tb_dev] Currently allocated     4.30E+00 Mbytes, locked:    0 /   6
[tb_pin] Currently allocated     0.00E+00 Mbytes, locked:    0 /   0

     iteration # 48     ecut=    45.00 Ry     beta= 0.40
     Davidson diagonalization with overlap

---- Real-time Memory Report at c_bands before calling an iterative solver
          5394 MiB given to the printing process from OS
           331 MiB allocation reported by mallinfo(arena+hblkhd)
         54641 MiB available memory on the node where the printing process lives
     GPU memory used/free/total (MiB): 2848 / 13432 / 16280
------------------
     ethr =  2.66E-04,  avg # of iterations =  1.0

     negative rho (up, down):  2.189E+00 2.731E-02

     total cpu time spent up to now is      842.6 secs

     total energy              =   -4450.54063410 Ry
     estimated scf accuracy    <       1.56483009 Ry

     total magnetization       =    -0.03 Bohr mag/cell
     absolute magnetization    =     3.49 Bohr mag/cell
[tb_dev] Currently allocated     4.30E+00 Mbytes, locked:    0 /   6
[tb_pin] Currently allocated     0.00E+00 Mbytes, locked:    0 /   0

     iteration # 49     ecut=    45.00 Ry     beta= 0.40
     Davidson diagonalization with overlap

---- Real-time Memory Report at c_bands before calling an iterative solver
          5411 MiB given to the printing process from OS
           348 MiB allocation reported by mallinfo(arena+hblkhd)
         54625 MiB available memory on the node where the printing process lives
     GPU memory used/free/total (MiB): 2848 / 13432 / 16280
------------------
     ethr =  2.66E-04,  avg # of iterations =  1.9

     negative rho (up, down):  2.194E+00 7.054E-02

     total cpu time spent up to now is      859.0 secs

     total energy              =   -4450.53621132 Ry
     estimated scf accuracy    <       1.00429290 Ry

     total magnetization       =    -0.05 Bohr mag/cell
     absolute magnetization    =     3.57 Bohr mag/cell
[tb_dev] Currently allocated     4.30E+00 Mbytes, locked:    0 /   6
[tb_pin] Currently allocated     0.00E+00 Mbytes, locked:    0 /   0

     iteration # 50     ecut=    45.00 Ry     beta= 0.40
     Davidson diagonalization with overlap

---- Real-time Memory Report at c_bands before calling an iterative solver
          5432 MiB given to the printing process from OS
           365 MiB allocation reported by mallinfo(arena+hblkhd)
         54606 MiB available memory on the node where the printing process lives
     GPU memory used/free/total (MiB): 2848 / 13432 / 16280
------------------
     ethr =  2.66E-04,  avg # of iterations =  1.4

     negative rho (up, down):  2.185E+00 1.037E-01

     total cpu time spent up to now is      874.9 secs

     total energy              =   -4450.54092257 Ry
     estimated scf accuracy    <       0.45944221 Ry

     total magnetization       =    -0.08 Bohr mag/cell
     absolute magnetization    =     4.53 Bohr mag/cell
[tb_dev] Currently allocated     4.30E+00 Mbytes, locked:    0 /   6
[tb_pin] Currently allocated     0.00E+00 Mbytes, locked:    0 /   0

     iteration # 51     ecut=    45.00 Ry     beta= 0.40
     Davidson diagonalization with overlap

---- Real-time Memory Report at c_bands before calling an iterative solver
          5447 MiB given to the printing process from OS
           382 MiB allocation reported by mallinfo(arena+hblkhd)
         54590 MiB available memory on the node where the printing process lives
     GPU memory used/free/total (MiB): 2848 / 13432 / 16280
------------------
     ethr =  2.66E-04,  avg # of iterations =  1.5

     negative rho (up, down):  2.265E+00 7.918E-02

     total cpu time spent up to now is      890.7 secs

     total energy              =   -4450.53932154 Ry
     estimated scf accuracy    <       0.38498237 Ry

     total magnetization       =    -0.09 Bohr mag/cell
     absolute magnetization    =     5.54 Bohr mag/cell
[tb_dev] Currently allocated     4.30E+00 Mbytes, locked:    0 /   6
[tb_pin] Currently allocated     0.00E+00 Mbytes, locked:    0 /   0

     iteration # 52     ecut=    45.00 Ry     beta= 0.40
     Davidson diagonalization with overlap

---- Real-time Memory Report at c_bands before calling an iterative solver
          5468 MiB given to the printing process from OS
           399 MiB allocation reported by mallinfo(arena+hblkhd)
         54576 MiB available memory on the node where the printing process lives
     GPU memory used/free/total (MiB): 2848 / 13432 / 16280
------------------
     ethr =  2.53E-04,  avg # of iterations =  1.4

     negative rho (up, down):  2.199E+00 1.408E-01

     total cpu time spent up to now is      906.5 secs

     total energy              =   -4450.57126095 Ry
     estimated scf accuracy    <       0.43724265 Ry

     total magnetization       =    -0.11 Bohr mag/cell
     absolute magnetization    =     5.61 Bohr mag/cell
[tb_dev] Currently allocated     4.30E+00 Mbytes, locked:    0 /   6
[tb_pin] Currently allocated     0.00E+00 Mbytes, locked:    0 /   0

     iteration # 53     ecut=    45.00 Ry     beta= 0.40
     Davidson diagonalization with overlap

---- Real-time Memory Report at c_bands before calling an iterative solver
          5485 MiB given to the printing process from OS
           416 MiB allocation reported by mallinfo(arena+hblkhd)
         54558 MiB available memory on the node where the printing process lives
     GPU memory used/free/total (MiB): 2848 / 13432 / 16280
------------------
     ethr =  2.53E-04,  avg # of iterations =  3.9

     negative rho (up, down):  2.186E+00 3.833E-02

     total cpu time spent up to now is      926.3 secs

     total energy              =   -4450.49339737 Ry
     estimated scf accuracy    <       5.83592428 Ry

     total magnetization       =    -0.10 Bohr mag/cell
     absolute magnetization    =     5.56 Bohr mag/cell
[tb_dev] Currently allocated     4.30E+00 Mbytes, locked:    0 /   6
[tb_pin] Currently allocated     0.00E+00 Mbytes, locked:    0 /   0

     iteration # 54     ecut=    45.00 Ry     beta= 0.40
     Davidson diagonalization with overlap

---- Real-time Memory Report at c_bands before calling an iterative solver
          5502 MiB given to the printing process from OS
           451 MiB allocation reported by mallinfo(arena+hblkhd)
         54522 MiB available memory on the node where the printing process lives
     GPU memory used/free/total (MiB): 2848 / 13432 / 16280
------------------
     ethr =  2.53E-04,  avg # of iterations =  4.0

     negative rho (up, down):  2.239E+00 7.389E-02

     total cpu time spent up to now is      946.3 secs

     total energy              =   -4450.58175871 Ry
     estimated scf accuracy    <       1.65539341 Ry

     total magnetization       =    -0.02 Bohr mag/cell
     absolute magnetization    =     4.46 Bohr mag/cell
[tb_dev] Currently allocated     4.30E+00 Mbytes, locked:    0 /   6
[tb_pin] Currently allocated     0.00E+00 Mbytes, locked:    0 /   0

     iteration # 55     ecut=    45.00 Ry     beta= 0.40
     Davidson diagonalization with overlap

---- Real-time Memory Report at c_bands before calling an iterative solver
          5507 MiB given to the printing process from OS
           468 MiB allocation reported by mallinfo(arena+hblkhd)
         54524 MiB available memory on the node where the printing process lives
     GPU memory used/free/total (MiB): 2848 / 13432 / 16280
------------------
     ethr =  2.53E-04,  avg # of iterations =  2.8

     negative rho (up, down):  2.238E+00 3.445E-02

     total cpu time spent up to now is      964.0 secs

     total energy              =   -4450.47800214 Ry
     estimated scf accuracy    <       3.53531076 Ry

     total magnetization       =    -0.02 Bohr mag/cell
     absolute magnetization    =     2.41 Bohr mag/cell
[tb_dev] Currently allocated     4.30E+00 Mbytes, locked:    0 /   6
[tb_pin] Currently allocated     0.00E+00 Mbytes, locked:    0 /   0

     iteration # 56     ecut=    45.00 Ry     beta= 0.40
     Davidson diagonalization with overlap

---- Real-time Memory Report at c_bands before calling an iterative solver
          5524 MiB given to the printing process from OS
           485 MiB allocation reported by mallinfo(arena+hblkhd)
         54505 MiB available memory on the node where the printing process lives
     GPU memory used/free/total (MiB): 2848 / 13432 / 16280
------------------
     ethr =  2.53E-04,  avg # of iterations =  3.4

     negative rho (up, down):  2.193E+00 1.117E-02

     total cpu time spent up to now is      982.9 secs

     total energy              =   -4450.53411491 Ry
     estimated scf accuracy    <       0.09971985 Ry

     total magnetization       =    -0.04 Bohr mag/cell
     absolute magnetization    =     5.87 Bohr mag/cell
[tb_dev] Currently allocated     4.30E+00 Mbytes, locked:    0 /   6
[tb_pin] Currently allocated     0.00E+00 Mbytes, locked:    0 /   0

     iteration # 57     ecut=    45.00 Ry     beta= 0.40
     Davidson diagonalization with overlap

---- Real-time Memory Report at c_bands before calling an iterative solver
          5541 MiB given to the printing process from OS
           502 MiB allocation reported by mallinfo(arena+hblkhd)
         54490 MiB available memory on the node where the printing process lives
     GPU memory used/free/total (MiB): 2848 / 13432 / 16280
------------------
     ethr =  6.56E-05,  avg # of iterations =  3.7

     negative rho (up, down):  2.196E+00 2.173E-02

     total cpu time spent up to now is     1002.1 secs

     total energy              =   -4450.54040688 Ry
     estimated scf accuracy    <       0.45562891 Ry

     total magnetization       =    -0.02 Bohr mag/cell
     absolute magnetization    =     4.43 Bohr mag/cell
[tb_dev] Currently allocated     4.30E+00 Mbytes, locked:    0 /   6
[tb_pin] Currently allocated     0.00E+00 Mbytes, locked:    0 /   0

     iteration # 58     ecut=    45.00 Ry     beta= 0.40
     Davidson diagonalization with overlap

---- Real-time Memory Report at c_bands before calling an iterative solver
          5561 MiB given to the printing process from OS
           519 MiB allocation reported by mallinfo(arena+hblkhd)
         54470 MiB available memory on the node where the printing process lives
     GPU memory used/free/total (MiB): 2848 / 13432 / 16280
------------------
     ethr =  6.56E-05,  avg # of iterations =  2.9

     negative rho (up, down):  2.212E+00 2.390E-02

     total cpu time spent up to now is     1020.4 secs

     total energy              =   -4450.53300009 Ry
     estimated scf accuracy    <       0.86687339 Ry

     total magnetization       =    -0.02 Bohr mag/cell
     absolute magnetization    =     4.50 Bohr mag/cell
[tb_dev] Currently allocated     4.30E+00 Mbytes, locked:    0 /   6
[tb_pin] Currently allocated     0.00E+00 Mbytes, locked:    0 /   0

     iteration # 59     ecut=    45.00 Ry     beta= 0.40
     Davidson diagonalization with overlap

---- Real-time Memory Report at c_bands before calling an iterative solver
          5578 MiB given to the printing process from OS
           536 MiB allocation reported by mallinfo(arena+hblkhd)
         54454 MiB available memory on the node where the printing process lives
     GPU memory used/free/total (MiB): 2848 / 13432 / 16280
------------------
     ethr =  6.56E-05,  avg # of iterations =  2.7

     negative rho (up, down):  2.217E+00 3.382E-02

     total cpu time spent up to now is     1038.2 secs

     total energy              =   -4450.54154925 Ry
     estimated scf accuracy    <       0.29726470 Ry

     total magnetization       =    -0.01 Bohr mag/cell
     absolute magnetization    =     4.41 Bohr mag/cell
[tb_dev] Currently allocated     4.30E+00 Mbytes, locked:    0 /   6
[tb_pin] Currently allocated     0.00E+00 Mbytes, locked:    0 /   0

     iteration # 60     ecut=    45.00 Ry     beta= 0.40
     Davidson diagonalization with overlap

---- Real-time Memory Report at c_bands before calling an iterative solver
          5599 MiB given to the printing process from OS
[...]
     estimated scf accuracy    <       0.33685715 Ry

     total magnetization       =     0.01 Bohr mag/cell
     absolute magnetization    =     4.06 Bohr mag/cell
[tb_dev] Currently allocated     4.30E+00 Mbytes, locked:    0 /   6
[tb_pin] Currently allocated     0.00E+00 Mbytes, locked:    0 /   0

     iteration # 66     ecut=    45.00 Ry     beta= 0.40
     Davidson diagonalization with overlap

---- Real-time Memory Report at c_bands before calling an iterative solver
          5709 MiB given to the printing process from OS
           654 MiB allocation reported by mallinfo(arena+hblkhd)
         54323 MiB available memory on the node where the printing process lives
     GPU memory used/free/total (MiB): 2848 / 13432 / 16280
------------------
     ethr =  6.56E-05,  avg # of iterations =  1.0

     negative rho (up, down):  2.210E+00 2.963E-02

     total cpu time spent up to now is     1150.5 secs

     total energy              =   -4450.53598903 Ry
     estimated scf accuracy    <       0.21796670 Ry

     total magnetization       =     0.01 Bohr mag/cell
     absolute magnetization    =     4.33 Bohr mag/cell
[tb_dev] Currently allocated     4.30E+00 Mbytes, locked:    0 /   6
[tb_pin] Currently allocated     0.00E+00 Mbytes, locked:    0 /   0

     iteration # 67     ecut=    45.00 Ry     beta= 0.40
     Davidson diagonalization with overlap

---- Real-time Memory Report at c_bands before calling an iterative solver
          5726 MiB given to the printing process from OS
           670 MiB allocation reported by mallinfo(arena+hblkhd)
         54306 MiB available memory on the node where the printing process lives
     GPU memory used/free/total (MiB): 2848 / 13432 / 16280
------------------
     ethr =  6.56E-05,  avg # of iterations =  1.5

     negative rho (up, down):  2.213E+00 1.548E-02

     total cpu time spent up to now is     1166.4 secs

     total energy              =   -4450.53729097 Ry
     estimated scf accuracy    <       0.10783384 Ry

     total magnetization       =     0.01 Bohr mag/cell
     absolute magnetization    =     4.71 Bohr mag/cell
[tb_dev] Currently allocated     4.30E+00 Mbytes, locked:    0 /   6
[tb_pin] Currently allocated     0.00E+00 Mbytes, locked:    0 /   0

     iteration # 68     ecut=    45.00 Ry     beta= 0.40
     Davidson diagonalization with overlap

---- Real-time Memory Report at c_bands before calling an iterative solver
          5742 MiB given to the printing process from OS
           690 MiB allocation reported by mallinfo(arena+hblkhd)
         54289 MiB available memory on the node where the printing process lives
     GPU memory used/free/total (MiB): 2848 / 13432 / 16280
------------------
     ethr =  6.56E-05,  avg # of iterations =  1.4

     negative rho (up, down):  2.204E+00 1.005E-02

     total cpu time spent up to now is     1182.2 secs

     total energy              =   -4450.54244420 Ry
     estimated scf accuracy    <       0.10466195 Ry

     total magnetization       =     0.01 Bohr mag/cell
     absolute magnetization    =     4.62 Bohr mag/cell
[tb_dev] Currently allocated     4.30E+00 Mbytes, locked:    0 /   6
[tb_pin] Currently allocated     0.00E+00 Mbytes, locked:    0 /   0

     iteration # 69     ecut=    45.00 Ry     beta= 0.40
     Davidson diagonalization with overlap

---- Real-time Memory Report at c_bands before calling an iterative solver
          5763 MiB given to the printing process from OS
           707 MiB allocation reported by mallinfo(arena+hblkhd)
         54272 MiB available memory on the node where the printing process lives
     GPU memory used/free/total (MiB): 2848 / 13432 / 16280
------------------
     ethr =  6.56E-05,  avg # of iterations =  1.9

     negative rho (up, down):  2.207E+00 1.555E-02

     total cpu time spent up to now is     1198.9 secs

     total energy              =   -4450.53696937 Ry
     estimated scf accuracy    <       0.39523520 Ry

     total magnetization       =     0.01 Bohr mag/cell
     absolute magnetization    =     4.02 Bohr mag/cell
[tb_dev] Currently allocated     4.30E+00 Mbytes, locked:    0 /   6
[tb_pin] Currently allocated     0.00E+00 Mbytes, locked:    0 /   0

     iteration # 70     ecut=    45.00 Ry     beta= 0.40
     Davidson diagonalization with overlap

---- Real-time Memory Report at c_bands before calling an iterative solver
          5779 MiB given to the printing process from OS
           727 MiB allocation reported by mallinfo(arena+hblkhd)
         54251 MiB available memory on the node where the printing process lives
     GPU memory used/free/total (MiB): 2848 / 13432 / 16280
------------------
     ethr =  6.56E-05,  avg # of iterations =  1.6

     negative rho (up, down):  2.203E+00 2.043E-02

     total cpu time spent up to now is     1215.0 secs

     total energy              =   -4450.53812976 Ry
     estimated scf accuracy    <       0.22919613 Ry

     total magnetization       =     0.01 Bohr mag/cell
     absolute magnetization    =     4.45 Bohr mag/cell
[tb_dev] Currently allocated     4.30E+00 Mbytes, locked:    0 /   6
[tb_pin] Currently allocated     0.00E+00 Mbytes, locked:    0 /   0

     iteration # 71     ecut=    45.00 Ry     beta= 0.40
     Davidson diagonalization with overlap

---- Real-time Memory Report at c_bands before calling an iterative solver
          5796 MiB given to the printing process from OS
           744 MiB allocation reported by mallinfo(arena+hblkhd)
         54232 MiB available memory on the node where the printing process lives
     GPU memory used/free/total (MiB): 2848 / 13432 / 16280
------------------
     ethr =  6.56E-05,  avg # of iterations =  1.0

     negative rho (up, down):  2.212E+00 4.310E-02

     total cpu time spent up to now is     1230.4 secs

     total energy              =   -4450.53730722 Ry
     estimated scf accuracy    <       0.16710611 Ry

     total magnetization       =     0.01 Bohr mag/cell
     absolute magnetization    =     4.78 Bohr mag/cell
[tb_dev] Currently allocated     4.30E+00 Mbytes, locked:    0 /   6
[tb_pin] Currently allocated     0.00E+00 Mbytes, locked:    0 /   0

     iteration # 72     ecut=    45.00 Ry     beta= 0.40
     Davidson diagonalization with overlap

---- Real-time Memory Report at c_bands before calling an iterative solver
          5815 MiB given to the printing process from OS
           769 MiB allocation reported by mallinfo(arena+hblkhd)
         54215 MiB available memory on the node where the printing process lives
     GPU memory used/free/total (MiB): 2848 / 13432 / 16280
------------------
     ethr =  6.56E-05,  avg # of iterations =  1.0

     negative rho (up, down):  2.211E+00 8.178E-02

     total cpu time spent up to now is     1245.7 secs

     total energy              =   -4450.54280619 Ry
     estimated scf accuracy    <       0.19707101 Ry

     total magnetization       =     0.01 Bohr mag/cell
     absolute magnetization    =     4.44 Bohr mag/cell
[tb_dev] Currently allocated     4.30E+00 Mbytes, locked:    0 /   6
[tb_pin] Currently allocated     0.00E+00 Mbytes, locked:    0 /   0

     iteration # 73     ecut=    45.00 Ry     beta= 0.40
     Davidson diagonalization with overlap

---- Real-time Memory Report at c_bands before calling an iterative solver
          5836 MiB given to the printing process from OS
           786 MiB allocation reported by mallinfo(arena+hblkhd)
         54198 MiB available memory on the node where the printing process lives
     GPU memory used/free/total (MiB): 2848 / 13432 / 16280
------------------
     ethr =  6.56E-05,  avg # of iterations =  1.8

     negative rho (up, down):  2.207E+00 3.488E-02

     total cpu time spent up to now is     1262.3 secs

     total energy              =   -4450.54147214 Ry
     estimated scf accuracy    <       0.57446968 Ry

     total magnetization       =     0.00 Bohr mag/cell
     absolute magnetization    =     3.95 Bohr mag/cell
[tb_dev] Currently allocated     4.30E+00 Mbytes, locked:    0 /   6
[tb_pin] Currently allocated     0.00E+00 Mbytes, locked:    0 /   0

     iteration # 74     ecut=    45.00 Ry     beta= 0.40
     Davidson diagonalization with overlap

---- Real-time Memory Report at c_bands before calling an iterative solver
          5853 MiB given to the printing process from OS
           803 MiB allocation reported by mallinfo(arena+hblkhd)
         54182 MiB available memory on the node where the printing process lives
     GPU memory used/free/total (MiB): 2848 / 13432 / 16280
------------------
     ethr =  6.56E-05,  avg # of iterations =  1.0

     negative rho (up, down):  2.207E+00 4.810E-02

     total cpu time spent up to now is     1277.7 secs

     total energy              =   -4450.54419296 Ry
     estimated scf accuracy    <       0.43058410 Ry

     total magnetization       =     0.00 Bohr mag/cell
     absolute magnetization    =     4.18 Bohr mag/cell
[tb_dev] Currently allocated     4.30E+00 Mbytes, locked:    0 /   6
[tb_pin] Currently allocated     0.00E+00 Mbytes, locked:    0 /   0

     iteration # 75     ecut=    45.00 Ry     beta= 0.40
     Davidson diagonalization with overlap

---- Real-time Memory Report at c_bands before calling an iterative solver
          5874 MiB given to the printing process from OS
           820 MiB allocation reported by mallinfo(arena+hblkhd)
         54160 MiB available memory on the node where the printing process lives
     GPU memory used/free/total (MiB): 2848 / 13432 / 16280
------------------
     ethr =  6.56E-05,  avg # of iterations =  1.0

     negative rho (up, down):  2.210E+00 7.403E-02

     total cpu time spent up to now is     1293.0 secs

     total energy              =   -4450.54406452 Ry
     estimated scf accuracy    <       0.53529013 Ry

     total magnetization       =     0.01 Bohr mag/cell
     absolute magnetization    =     4.13 Bohr mag/cell
[tb_dev] Currently allocated     4.30E+00 Mbytes, locked:    0 /   6
[tb_pin] Currently allocated     0.00E+00 Mbytes, locked:    0 /   0

     iteration # 76     ecut=    45.00 Ry     beta= 0.40
     Davidson diagonalization with overlap

---- Real-time Memory Report at c_bands before calling an iterative solver
          5891 MiB given to the printing process from OS
           840 MiB allocation reported by mallinfo(arena+hblkhd)
         54139 MiB available memory on the node where the printing process lives
     GPU memory used/free/total (MiB): 2848 / 13432 / 16280
------------------
     ethr =  6.56E-05,  avg # of iterations =  1.0

     negative rho (up, down):  2.213E+00 8.648E-02

     total cpu time spent up to now is     1308.3 secs

     total energy              =   -4450.54383501 Ry
     estimated scf accuracy    <       0.57173677 Ry

     total magnetization       =     0.01 Bohr mag/cell
     absolute magnetization    =     4.08 Bohr mag/cell
[tb_dev] Currently allocated     4.30E+00 Mbytes, locked:    0 /   6
[tb_pin] Currently allocated     0.00E+00 Mbytes, locked:    0 /   0

     iteration # 77     ecut=    45.00 Ry     beta= 0.40
     Davidson diagonalization with overlap

---- Real-time Memory Report at c_bands before calling an iterative solver
          5912 MiB given to the printing process from OS
           856 MiB allocation reported by mallinfo(arena+hblkhd)
         54122 MiB available memory on the node where the printing process lives
     GPU memory used/free/total (MiB): 2848 / 13432 / 16280
------------------
     ethr =  6.56E-05,  avg # of iterations =  1.1

     negative rho (up, down):  2.203E+00 1.705E-02

     total cpu time spent up to now is     1323.7 secs

     total energy              =   -4450.54641334 Ry
     estimated scf accuracy    <       0.59663686 Ry

     total magnetization       =     0.01 Bohr mag/cell
     absolute magnetization    =     4.00 Bohr mag/cell
[tb_dev] Currently allocated     4.30E+00 Mbytes, locked:    0 /   6
[tb_pin] Currently allocated     0.00E+00 Mbytes, locked:    0 /   0

     iteration # 78     ecut=    45.00 Ry     beta= 0.40
     Davidson diagonalization with overlap

---- Real-time Memory Report at c_bands before calling an iterative solver
          5929 MiB given to the printing process from OS
           876 MiB allocation reported by mallinfo(arena+hblkhd)
         54103 MiB available memory on the node where the printing process lives
     GPU memory used/free/total (MiB): 2848 / 13432 / 16280
------------------
     ethr =  6.56E-05,  avg # of iterations =  1.6

     negative rho (up, down):  2.196E+00 1.765E-02

     total cpu time spent up to now is     1339.8 secs

     total energy              =   -4450.55519260 Ry
     estimated scf accuracy    <       0.61063159 Ry

     total magnetization       =     0.00 Bohr mag/cell
     absolute magnetization    =     4.08 Bohr mag/cell
[tb_dev] Currently allocated     4.30E+00 Mbytes, locked:    0 /   6
[tb_pin] Currently allocated     0.00E+00 Mbytes, locked:    0 /   0

     iteration # 79     ecut=    45.00 Ry     beta= 0.40
     Davidson diagonalization with overlap

---- Real-time Memory Report at c_bands before calling an iterative solver
          5946 MiB given to the printing process from OS
           893 MiB allocation reported by mallinfo(arena+hblkhd)
         54070 MiB available memory on the node where the printing process lives
     GPU memory used/free/total (MiB): 2848 / 13432 / 16280
------------------
     ethr =  6.56E-05,  avg # of iterations =  2.4

     negative rho (up, down):  2.208E+00 3.421E-02

     total cpu time spent up to now is     1357.0 secs

     total energy              =   -4450.52846930 Ry
     estimated scf accuracy    <       1.25677815 Ry

     total magnetization       =     0.00 Bohr mag/cell
     absolute magnetization    =     3.24 Bohr mag/cell
[tb_dev] Currently allocated     4.30E+00 Mbytes, locked:    0 /   6
[tb_pin] Currently allocated     0.00E+00 Mbytes, locked:    0 /   0

     iteration # 80     ecut=    45.00 Ry     beta= 0.40
     Davidson diagonalization with overlap

---- Real-time Memory Report at c_bands before calling an iterative solver
          5963 MiB given to the printing process from OS
           910 MiB allocation reported by mallinfo(arena+hblkhd)
         54054 MiB available memory on the node where the printing process lives
     GPU memory used/free/total (MiB): 2848 / 13432 / 16280
------------------
     ethr =  6.56E-05,  avg # of iterations =  3.0

     negative rho (up, down):  2.203E+00 1.370E-02

     total cpu time spent up to now is     1375.3 secs

     total energy              =   -4450.54164002 Ry
     estimated scf accuracy    <       0.16991150 Ry

     total magnetization       =     0.01 Bohr mag/cell
     absolute magnetization    =     4.82 Bohr mag/cell

     End of self-consistent calculation

     convergence NOT achieved after  80 iterations: stopping

     Writing config to output data dir ./out/aiida.save/
 
     init_run     :     54.46s CPU     12.66s WALL (       1 calls)
     electrons    :   3813.49s CPU   1362.18s WALL (       1 calls)

     Called by init_run:
     wfcinit      :      5.46s CPU      7.48s WALL (       1 calls)
                                        7.48s GPU  (       1 calls)
     wfcinit:atom :      0.05s CPU      0.15s WALL (     120 calls)
                                        0.15s GPU  (     120 calls)
     wfcinit:wfcr :      4.02s CPU      5.00s WALL (     120 calls)
                                        5.00s GPU  (     120 calls)
     potinit      :     36.73s CPU      3.38s WALL (       1 calls)
     hinit0       :      6.36s CPU      0.98s WALL (       1 calls)

     Called by electrons:
     c_bands      :    994.83s CPU    923.99s WALL (      80 calls)
     sum_band     :    186.14s CPU    198.83s WALL (      80 calls)
     v_of_rho     :     27.19s CPU      2.45s WALL (      81 calls)
     v_h          :      4.66s CPU      0.41s WALL (      81 calls)
     v_xc         :     22.52s CPU      2.03s WALL (      81 calls)
     newd         :     29.94s CPU      3.01s WALL (      81 calls)
                                        3.01s GPU  (      81 calls)
     PAW_pot      :   2532.67s CPU    228.93s WALL (      81 calls)
     mix_rho      :     64.44s CPU      7.11s WALL (      80 calls)

     Called by c_bands:
     init_us_2    :     38.98s CPU     47.98s WALL (   19320 calls)
     init_us_2:gp :     38.57s CPU     47.62s WALL (   19320 calls)
     cegterg      :    789.93s CPU    734.17s WALL (    9600 calls)

     Called by sum_band:
     sum_band:wei :      0.89s CPU      0.90s WALL (      80 calls)
                                        0.90s GPU  (      80 calls)
     sum_band:loo :    179.98s CPU    192.55s WALL (      80 calls)
                                      192.55s GPU  (      80 calls)
     sum_band:buf :     68.61s CPU     70.27s WALL (    9600 calls)
                                       70.21s GPU  (    9600 calls)
     sum_band:ini :     16.92s CPU     21.71s WALL (    9600 calls)
                                       21.65s GPU  (    9600 calls)
     sum_band:cal :      0.40s CPU      8.27s WALL (    9600 calls)
                                        6.57s GPU  (    9600 calls)
     sum_band:bec :      2.51s CPU      2.74s WALL (    9600 calls)
                                        2.67s GPU  (    9600 calls)
     addusdens    :      2.76s CPU      2.86s WALL (      80 calls)
                                        2.86s GPU  (      80 calls)
     addusd:skk   :      0.03s CPU      0.03s WALL (      80 calls)
                                        0.03s GPU  (      80 calls)

     Called by *egterg:
     cdiaghg      :    214.98s CPU    220.65s WALL (   30684 calls)
                                      220.43s GPU  (   30684 calls)
     cegterg:over :     18.16s CPU     16.97s WALL (   21084 calls)
     cegterg:upda :     23.28s CPU     21.27s WALL (   21084 calls)
     cegterg:last :     17.21s CPU     16.03s WALL (   15461 calls)
     h_psi        :    469.05s CPU    418.35s WALL (   30804 calls)
                                      417.35s GPU  (   30804 calls)
     s_psi        :      8.03s CPU     24.54s WALL (   30804 calls)
                                       22.47s GPU  (   30804 calls)
     g_psi        :      0.18s CPU      2.00s WALL (   21084 calls)
                                        1.87s GPU  (   21084 calls)

     Called by h_psi:
     h_psi:calbec :      1.30s CPU     17.19s WALL (   30804 calls)
                                       17.00s GPU  (   30804 calls)
     vloc_psi     :    416.50s CPU    371.13s WALL (   30804 calls)
                                      370.94s GPU  (   30804 calls)
     add_vuspsi   :     10.28s CPU     25.41s WALL (   30804 calls)
                                       25.22s GPU  (   30804 calls)

     General routines
     calbec       :      1.29s CPU      1.21s WALL (   40404 calls)
     fft          :      2.49s CPU      0.46s WALL (    2023 calls)
                                        0.38s GPU  (    1861 calls)
     ffts         :      0.12s CPU      0.07s WALL (     322 calls)
                                        0.02s GPU  (     160 calls)
     fftw         :      6.68s CPU    317.41s WALL (  315230 calls)
                                      314.50s GPU  (  315230 calls)
     interpolate  :      5.41s CPU      0.47s WALL (     162 calls)
     davcio       :      1.37s CPU      2.08s WALL (     138 calls)
 
     Parallel routines

     PAW routines
     PAW_pot      :   2532.67s CPU    228.93s WALL (      81 calls)
     PAW_symme    :      1.02s CPU      0.17s WALL (     161 calls)
 
     PWSCF        :      1h 4m CPU  22m57.96s WALL

 
   This run was terminated on:  18: 5:54  23Oct2023            

=------------------------------------------------------------------------------=
   JOB DONE.
=------------------------------------------------------------------------------=
