
     Program PWSCF v.7.2 starts on 22Oct2023 at 17:11:59 

     This program is part of the open-source Quantum ESPRESSO suite
     for quantum simulation of materials; please cite
         "P. Giannozzi et al., J. Phys.:Condens. Matter 21 395502 (2009);
         "P. Giannozzi et al., J. Phys.:Condens. Matter 29 465901 (2017);
         "P. Giannozzi et al., J. Chem. Phys. 152 154105 (2020);
          URL http://www.quantum-espresso.org", 
     in publications or presentations arising from this work. More details at
     http://www.quantum-espresso.org/quote

     Parallel version (MPI & OpenMP), running on      12 processor cores
     Number of MPI processes:                 1
     Threads/MPI process:                    12

     MPI processes distributed on     1 nodes
     59738 MiB available memory on the printing compute node when the environment starts
 
     Reading input from aiida.in

     Current dimensions of program PWSCF are:
     Max number of different atomic species (ntypx) = 10
     Max number of k-points (npk) =  40000
     Max angular momentum in pseudopotentials (lmaxx) =  4
     file Fe.pbesol-spn-kjpaw_psl.0.2.1.UPF: wavefunction(s)  3D renormalized
     file O.pbesol-n-kjpaw_psl.0.1.UPF: wavefunction(s)  2P renormalized
 
     Subspace diagonalization in iterative solution of the eigenvalue problem:
     a serial algorithm will be used

 
     G-vector sticks info
     --------------------
     sticks:   dense  smooth     PW     G-vecs:    dense   smooth      PW
     Sum       20853    6937   1951              1282409   246569   36679
 
     Using Slab Decomposition
 


     bravais-lattice index     =            0
     lattice parameter (alat)  =      23.7087  a.u.
     unit-cell volume          =    2140.0668 (a.u.)^3
     number of atoms/cell      =           11
     number of atomic types    =            3
     number of electrons       =        68.00
     number of Kohn-Sham states=           41
     kinetic-energy cutoff     =      90.0000  Ry
     charge density cutoff     =    1080.0000  Ry
     scf convergence threshold =      2.2E-09
     mixing beta               =       0.4000
     number of iterations used =            8  plain     mixing
     Exchange-correlation= PBESOL
                           (   1   4  10   8   0   0   0)

     GPU acceleration is ACTIVE.


     GPU used by master process:

        Device Number: 0
        Device name: Tesla P100-PCIE-16GB
        Compute capability : 60
        Ratio of single to double precision performance  : 2
        Memory Clock Rate (KHz): 715000
        Memory Bus Width (bits): 4096
        Peak Memory Bandwidth (GB/s): 732.16

     celldm(1)=  23.708720  celldm(2)=   0.000000  celldm(3)=   0.000000
     celldm(4)=   0.000000  celldm(5)=   0.000000  celldm(6)=   0.000000

     crystal axes: (cart. coord. in units of alat)
               a(1) = (  -0.144292  -0.000080  -0.989535 )  
               a(2) = (  -0.216442  -0.374888   0.000000 )  
               a(3) = (  -0.432883   0.000000   0.000000 )  

     reciprocal axes: (cart. coord. in units 2 pi/alat)
               b(1) = ( -0.000000  0.000000 -1.010575 )  
               b(2) = (  0.000000 -2.667465  0.000215 )  
               b(3) = ( -2.310093  1.333733  0.336744 )  


     PseudoPot. # 1 for Fe read from file:
     ./pseudo/Fe.pbesol-spn-kjpaw_psl.0.2.1.UPF
     MD5 check sum: 4d7ec5aa2156491519a4322664fbbf52
     Pseudo is Projector augmented-wave + core cor, Zval = 16.0
     Generated using "atomic" code by A. Dal Corso  v.6.0 svn rev. 13079
     Shape of augmentation charge: PSQ
     Using radial grid of 1191 points,  6 beta functions with: 
                l(1) =   0
                l(2) =   0
                l(3) =   1
                l(4) =   1
                l(5) =   2
                l(6) =   2
     Q(r) pseudized with 0 coefficients 


     PseudoPot. # 2 for O  read from file:
     ./pseudo/O.pbesol-n-kjpaw_psl.0.1.UPF
     MD5 check sum: 81d73d1479e654e5638b0319f0d6c2c7
     Pseudo is Projector augmented-wave + core cor, Zval =  6.0
     Generated using "atomic" code by A. Dal Corso  v.6.0 svn rev. 13079
     Shape of augmentation charge: BESSEL
     Using radial grid of 1095 points,  4 beta functions with: 
                l(1) =   0
                l(2) =   0
                l(3) =   1
                l(4) =   1
     Q(r) pseudized with 0 coefficients 


     PseudoPot. # 3 for Si read from file:
     ./pseudo/Si.pbesol-n-rrkjus_psl.1.0.0.UPF
     MD5 check sum: c4212819de858c94c3a1644338846ac9
     Pseudo is Ultrasoft + core correction, Zval =  4.0
     Generated using "atomic" code by A. Dal Corso  v.6.0 svn rev. 13079
     Using radial grid of 1141 points,  6 beta functions with: 
                l(1) =   0
                l(2) =   0
                l(3) =   1
                l(4) =   1
                l(5) =   2
                l(6) =   2
     Q(r) pseudized with 0 coefficients 


     atomic species   valence    mass     pseudopotential
        Fe            16.00    55.84500     Fe( 1.00)
        O              6.00    15.99940     O ( 1.00)
        Si             4.00    28.08550     Si( 1.00)

     Starting magnetic structure 
     atomic species   magnetization
        Fe           0.313
        O            0.100
        Si           0.100

     No symmetry found


                                    s                        frac. trans.

      isym =  1     identity                                     

 cryst.   s( 1) = (     1          0          0      )
                  (     0          1          0      )
                  (     0          0          1      )

 cart.    s( 1) = (  1.0000000 -0.0000000  0.0000000 )
                  ( -0.0000000  1.0000000  0.0000000 )
                  (  0.0000000  0.0000000  1.0000000 )


   Cartesian axes

     site n.     atom                  positions (alat units)
         1           Fe  tau(   1) = (   0.0000000   0.0000000   0.0000000  )
         2           Si  tau(   2) = (   0.5049574   0.1248549   0.2137396  )
         3           Si  tau(   3) = (   0.4947109   0.1256507   0.7847014  )
         4           Si  tau(   4) = (   0.5051014   0.1248643   0.3305048  )
         5           Si  tau(   5) = (   0.1442924   0.0000559   0.6926747  )
         6           O   tau(   6) = (   0.5048135   0.1248445   0.0851000  )
         7           O   tau(   7) = (   0.5049554   0.1249114   0.9143305  )
         8           O   tau(   8) = (   0.4327380   0.0000208   0.2572792  )
         9           O   tau(   9) = (   0.3787705   0.0000599   0.7421514  )
        10           O   tau(  10) = (   0.5048124   0.1248751   0.4650816  )
        11           O   tau(  11) = (   0.1528061   0.0000451   0.5580979  )

   Crystallographic axes

     site n.     atom                  positions (cryst. coord.)
         1           Fe  tau(   1) = (  0.0000000  0.0000000  0.0000000  )
         2           Si  tau(   2) = ( -0.2160000 -0.3330000 -0.9280000  )
         3           Si  tau(   3) = ( -0.7930000 -0.3350000 -0.7110000  )
         4           Si  tau(   4) = ( -0.3340000 -0.3330000 -0.8890000  )
         5           Si  tau(   5) = ( -0.7000000  0.0000000 -0.1000000  )
         6           O   tau(   6) = ( -0.0860000 -0.3330000 -0.9710000  )
         7           O   tau(   7) = ( -0.9240000 -0.3330000 -0.6920000  )
         8           O   tau(   8) = ( -0.2600000  0.0000000 -0.9130000  )
         9           O   tau(   9) = ( -0.7500000 -0.0000000 -0.6250000  )
        10           O   tau(  10) = ( -0.4700000 -0.3330000 -0.8430000  )
        11           O   tau(  11) = ( -0.5640000 -0.0000000 -0.1650000  )

     number of k points=   163  Marzari-Vanderbilt smearing, width (Ry)=  0.0100
                       cart. coord. in units 2pi/alat
        k(    1) = (   0.0000000   0.0000000   0.0000000), wk =   0.0030864
        k(    2) = (  -0.2566770   0.1481925   0.0374160), wk =   0.0061728
        k(    3) = (  -0.5133540   0.2963851   0.0748321), wk =   0.0061728
        k(    4) = (  -0.7700310   0.4445776   0.1122481), wk =   0.0061728
        k(    5) = (  -1.0267079   0.5927701   0.1496641), wk =   0.0061728
        k(    6) = (   0.0000000  -0.2963851   0.0000239), wk =   0.0061728
        k(    7) = (  -0.2566770  -0.1481925   0.0374400), wk =   0.0061728
        k(    8) = (  -0.5133540  -0.0000000   0.0748560), wk =   0.0061728
        k(    9) = (  -0.7700310   0.1481925   0.1122720), wk =   0.0061728
        k(   10) = (  -1.0267079   0.2963851   0.1496880), wk =   0.0061728
        k(   11) = (   1.0267079  -0.8891552  -0.1496402), wk =   0.0061728
        k(   12) = (   0.7700310  -0.7409626  -0.1122242), wk =   0.0061728
        k(   13) = (   0.5133540  -0.5927701  -0.0748081), wk =   0.0061728
        k(   14) = (   0.2566770  -0.4445776  -0.0373921), wk =   0.0061728
        k(   15) = (   0.0000000  -0.5927701   0.0000478), wk =   0.0061728
        k(   16) = (  -0.2566770  -0.4445776   0.0374639), wk =   0.0061728
        k(   17) = (  -0.5133540  -0.2963851   0.0748799), wk =   0.0061728
        k(   18) = (  -0.7700310  -0.1481925   0.1122959), wk =   0.0061728
        k(   19) = (  -1.0267079  -0.0000000   0.1497120), wk =   0.0061728
        k(   20) = (   1.0267079  -1.1855402  -0.1496163), wk =   0.0061728
        k(   21) = (   0.7700310  -1.0373477  -0.1122002), wk =   0.0061728
        k(   22) = (   0.5133540  -0.8891552  -0.0747842), wk =   0.0061728
        k(   23) = (   0.2566770  -0.7409626  -0.0373682), wk =   0.0061728
        k(   24) = (   0.0000000  -0.8891552   0.0000718), wk =   0.0061728
        k(   25) = (  -0.2566770  -0.7409626   0.0374878), wk =   0.0061728
        k(   26) = (  -0.5133540  -0.5927701   0.0749038), wk =   0.0061728
        k(   27) = (  -0.7700310  -0.4445776   0.1123199), wk =   0.0061728
        k(   28) = (  -1.0267079  -0.2963851   0.1497359), wk =   0.0061728
        k(   29) = (   1.0267079  -1.4819253  -0.1495923), wk =   0.0061728
        k(   30) = (   0.7700310  -1.3337327  -0.1121763), wk =   0.0061728
        k(   31) = (   0.5133540  -1.1855402  -0.0747603), wk =   0.0061728
        k(   32) = (   0.2566770  -1.0373477  -0.0373443), wk =   0.0061728
        k(   33) = (   0.0000000  -1.1855402   0.0000957), wk =   0.0061728
        k(   34) = (  -0.2566770  -1.0373477   0.0375117), wk =   0.0061728
        k(   35) = (  -0.5133540  -0.8891552   0.0749278), wk =   0.0061728
        k(   36) = (  -0.7700310  -0.7409626   0.1123438), wk =   0.0061728
        k(   37) = (  -1.0267079  -0.5927701   0.1497598), wk =   0.0061728
        k(   38) = (   1.0267079  -1.7783103  -0.1495684), wk =   0.0061728
        k(   39) = (   0.7700310  -1.6301178  -0.1121524), wk =   0.0061728
        k(   40) = (   0.5133540  -1.4819253  -0.0747364), wk =   0.0061728
        k(   41) = (   0.2566770  -1.3337327  -0.0373203), wk =   0.0061728
        k(   42) = (   0.0000000   0.0000000  -0.2526439), wk =   0.0061728
        k(   43) = (  -0.2566770   0.1481925  -0.2152278), wk =   0.0061728
        k(   44) = (  -0.5133540   0.2963851  -0.1778118), wk =   0.0061728
        k(   45) = (  -0.7700310   0.4445776  -0.1403958), wk =   0.0061728
        k(   46) = (  -1.0267079   0.5927701  -0.1029798), wk =   0.0061728
        k(   47) = (   1.0267079  -0.5927701  -0.4023080), wk =   0.0061728
        k(   48) = (   0.7700310  -0.4445776  -0.3648919), wk =   0.0061728
        k(   49) = (   0.5133540  -0.2963851  -0.3274759), wk =   0.0061728
        k(   50) = (   0.2566770  -0.1481925  -0.2900599), wk =   0.0061728
        k(   51) = (   0.0000000  -0.2963851  -0.2526199), wk =   0.0061728
        k(   52) = (  -0.2566770  -0.1481925  -0.2152039), wk =   0.0061728
        k(   53) = (  -0.5133540  -0.0000000  -0.1777879), wk =   0.0061728
        k(   54) = (  -0.7700310   0.1481925  -0.1403719), wk =   0.0061728
        k(   55) = (  -1.0267079   0.2963851  -0.1029558), wk =   0.0061728
        k(   56) = (   1.0267079  -0.8891552  -0.4022840), wk =   0.0061728
        k(   57) = (   0.7700310  -0.7409626  -0.3648680), wk =   0.0061728
        k(   58) = (   0.5133540  -0.5927701  -0.3274520), wk =   0.0061728
        k(   59) = (   0.2566770  -0.4445776  -0.2900360), wk =   0.0061728
        k(   60) = (   0.0000000  -0.5927701  -0.2525960), wk =   0.0061728
        k(   61) = (  -0.2566770  -0.4445776  -0.2151800), wk =   0.0061728
        k(   62) = (  -0.5133540  -0.2963851  -0.1777640), wk =   0.0061728
        k(   63) = (  -0.7700310  -0.1481925  -0.1403479), wk =   0.0061728
        k(   64) = (  -1.0267079  -0.0000000  -0.1029319), wk =   0.0061728
        k(   65) = (   1.0267079  -1.1855402  -0.4022601), wk =   0.0061728
        k(   66) = (   0.7700310  -1.0373477  -0.3648441), wk =   0.0061728
        k(   67) = (   0.5133540  -0.8891552  -0.3274281), wk =   0.0061728
        k(   68) = (   0.2566770  -0.7409626  -0.2900120), wk =   0.0061728
        k(   69) = (   0.0000000  -0.8891552  -0.2525721), wk =   0.0061728
        k(   70) = (  -0.2566770  -0.7409626  -0.2151561), wk =   0.0061728
        k(   71) = (  -0.5133540  -0.5927701  -0.1777400), wk =   0.0061728
        k(   72) = (  -0.7700310  -0.4445776  -0.1403240), wk =   0.0061728
        k(   73) = (  -1.0267079  -0.2963851  -0.1029080), wk =   0.0061728
        k(   74) = (   1.0267079  -1.4819253  -0.4022362), wk =   0.0061728
        k(   75) = (   0.7700310  -1.3337327  -0.3648202), wk =   0.0061728
        k(   76) = (   0.5133540  -1.1855402  -0.3274041), wk =   0.0061728
        k(   77) = (   0.2566770  -1.0373477  -0.2899881), wk =   0.0061728
        k(   78) = (   0.0000000  -1.1855402  -0.2525482), wk =   0.0061728
        k(   79) = (  -0.2566770  -1.0373477  -0.2151321), wk =   0.0061728
        k(   80) = (  -0.5133540  -0.8891552  -0.1777161), wk =   0.0061728
        k(   81) = (  -0.7700310  -0.7409626  -0.1403001), wk =   0.0061728
        k(   82) = (  -1.0267079  -0.5927701  -0.1028841), wk =   0.0061728
        k(   83) = (   1.0267079  -1.7783103  -0.4022123), wk =   0.0061728
        k(   84) = (   0.7700310  -1.6301178  -0.3647962), wk =   0.0061728
        k(   85) = (   0.5133540  -1.4819253  -0.3273802), wk =   0.0061728
        k(   86) = (   0.2566770  -1.3337327  -0.2899642), wk =   0.0061728
        k(   87) = (  -0.0000000   1.1855402  -0.2527396), wk =   0.0061728
        k(   88) = (  -0.2566770   1.3337327  -0.2153235), wk =   0.0061728
        k(   89) = (  -0.5133540   1.4819253  -0.1779075), wk =   0.0061728
        k(   90) = (  -0.7700310   1.6301178  -0.1404915), wk =   0.0061728
        k(   91) = (  -1.0267079   1.7783103  -0.1030755), wk =   0.0061728
        k(   92) = (   1.0267079   0.5927701  -0.4024037), wk =   0.0061728
        k(   93) = (   0.7700310   0.7409626  -0.3649876), wk =   0.0061728
        k(   94) = (   0.5133540   0.8891552  -0.3275716), wk =   0.0061728
        k(   95) = (   0.2566770   1.0373477  -0.2901556), wk =   0.0061728
        k(   96) = (  -0.0000000   0.8891552  -0.2527156), wk =   0.0061728
        k(   97) = (  -0.2566770   1.0373477  -0.2152996), wk =   0.0061728
        k(   98) = (  -0.5133540   1.1855402  -0.1778836), wk =   0.0061728
        k(   99) = (  -0.7700310   1.3337327  -0.1404676), wk =   0.0061728
        k(  100) = (  -1.0267079   1.4819253  -0.1030515), wk =   0.0061728
        k(  101) = (   1.0267079   0.2963851  -0.4023797), wk =   0.0061728
        k(  102) = (   0.7700310   0.4445776  -0.3649637), wk =   0.0061728
        k(  103) = (   0.5133540   0.5927701  -0.3275477), wk =   0.0061728
        k(  104) = (   0.2566770   0.7409626  -0.2901317), wk =   0.0061728
        k(  105) = (  -0.0000000   0.5927701  -0.2526917), wk =   0.0061728
        k(  106) = (  -0.2566770   0.7409626  -0.2152757), wk =   0.0061728
        k(  107) = (  -0.5133540   0.8891552  -0.1778597), wk =   0.0061728
        k(  108) = (  -0.7700310   1.0373477  -0.1404436), wk =   0.0061728
        k(  109) = (  -1.0267079   1.1855402  -0.1030276), wk =   0.0061728
        k(  110) = (   1.0267079   0.0000000  -0.4023558), wk =   0.0061728
        k(  111) = (   0.7700310   0.1481925  -0.3649398), wk =   0.0061728
        k(  112) = (   0.5133540   0.2963851  -0.3275238), wk =   0.0061728
        k(  113) = (   0.2566770   0.4445776  -0.2901077), wk =   0.0061728
        k(  114) = (  -0.0000000   0.2963851  -0.2526678), wk =   0.0061728
        k(  115) = (  -0.2566770   0.4445776  -0.2152518), wk =   0.0061728
        k(  116) = (  -0.5133540   0.5927701  -0.1778357), wk =   0.0061728
        k(  117) = (  -0.7700310   0.7409626  -0.1404197), wk =   0.0061728
        k(  118) = (  -1.0267079   0.8891552  -0.1030037), wk =   0.0061728
        k(  119) = (   1.0267079  -0.2963851  -0.4023319), wk =   0.0061728
        k(  120) = (   0.7700310  -0.1481925  -0.3649159), wk =   0.0061728
        k(  121) = (   0.5133540   0.0000000  -0.3274998), wk =   0.0061728
        k(  122) = (   0.2566770   0.1481925  -0.2900838), wk =   0.0061728
        k(  123) = (   0.0000000   0.0000000   0.5052877), wk =   0.0030864
        k(  124) = (  -0.2566770   0.1481925   0.5427038), wk =   0.0061728
        k(  125) = (  -0.5133540   0.2963851   0.5801198), wk =   0.0061728
        k(  126) = (  -0.7700310   0.4445776   0.6175358), wk =   0.0061728
        k(  127) = (  -1.0267079   0.5927701   0.6549518), wk =   0.0061728
        k(  128) = (   0.0000000  -0.2963851   0.5053116), wk =   0.0061728
        k(  129) = (  -0.2566770  -0.1481925   0.5427277), wk =   0.0061728
        k(  130) = (  -0.5133540  -0.0000000   0.5801437), wk =   0.0061728
        k(  131) = (  -0.7700310   0.1481925   0.6175597), wk =   0.0061728
        k(  132) = (  -1.0267079   0.2963851   0.6549758), wk =   0.0061728
        k(  133) = (   1.0267079  -0.8891552   0.3556475), wk =   0.0061728
        k(  134) = (   0.7700310  -0.7409626   0.3930636), wk =   0.0061728
        k(  135) = (   0.5133540  -0.5927701   0.4304796), wk =   0.0061728
        k(  136) = (   0.2566770  -0.4445776   0.4678956), wk =   0.0061728
        k(  137) = (   0.0000000  -0.5927701   0.5053356), wk =   0.0061728
        k(  138) = (  -0.2566770  -0.4445776   0.5427516), wk =   0.0061728
        k(  139) = (  -0.5133540  -0.2963851   0.5801676), wk =   0.0061728
        k(  140) = (  -0.7700310  -0.1481925   0.6175837), wk =   0.0061728
        k(  141) = (  -1.0267079  -0.0000000   0.6549997), wk =   0.0061728
        k(  142) = (   1.0267079  -1.1855402   0.3556715), wk =   0.0061728
        k(  143) = (   0.7700310  -1.0373477   0.3930875), wk =   0.0061728
        k(  144) = (   0.5133540  -0.8891552   0.4305035), wk =   0.0061728
        k(  145) = (   0.2566770  -0.7409626   0.4679195), wk =   0.0061728
        k(  146) = (   0.0000000  -0.8891552   0.5053595), wk =   0.0061728
        k(  147) = (  -0.2566770  -0.7409626   0.5427755), wk =   0.0061728
        k(  148) = (  -0.5133540  -0.5927701   0.5801916), wk =   0.0061728
        k(  149) = (  -0.7700310  -0.4445776   0.6176076), wk =   0.0061728
        k(  150) = (  -1.0267079  -0.2963851   0.6550236), wk =   0.0061728
        k(  151) = (   1.0267079  -1.4819253   0.3556954), wk =   0.0061728
        k(  152) = (   0.7700310  -1.3337327   0.3931114), wk =   0.0061728
        k(  153) = (   0.5133540  -1.1855402   0.4305274), wk =   0.0061728
        k(  154) = (   0.2566770  -1.0373477   0.4679435), wk =   0.0061728
        k(  155) = (   0.0000000  -1.1855402   0.5053834), wk =   0.0061728
        k(  156) = (  -0.2566770  -1.0373477   0.5427995), wk =   0.0061728
        k(  157) = (  -0.5133540  -0.8891552   0.5802155), wk =   0.0061728
        k(  158) = (  -0.7700310  -0.7409626   0.6176315), wk =   0.0061728
        k(  159) = (  -1.0267079  -0.5927701   0.6550475), wk =   0.0061728
        k(  160) = (   1.0267079  -1.7783103   0.3557193), wk =   0.0061728
        k(  161) = (   0.7700310  -1.6301178   0.3931353), wk =   0.0061728
        k(  162) = (   0.5133540  -1.4819253   0.4305514), wk =   0.0061728
        k(  163) = (   0.2566770  -1.3337327   0.4679674), wk =   0.0061728

                       cryst. coord.
        k(    1) = (  -0.0000000   0.0000000   0.0000000), wk =   0.0030864
        k(    2) = (   0.0000000  -0.0000000   0.1111111), wk =   0.0061728
        k(    3) = (   0.0000000  -0.0000000   0.2222222), wk =   0.0061728
        k(    4) = (   0.0000000  -0.0000000   0.3333333), wk =   0.0061728
        k(    5) = (   0.0000000  -0.0000000   0.4444444), wk =   0.0061728
        k(    6) = (   0.0000000   0.1111111   0.0000000), wk =   0.0061728
        k(    7) = (   0.0000000   0.1111111   0.1111111), wk =   0.0061728
        k(    8) = (   0.0000000   0.1111111   0.2222222), wk =   0.0061728
        k(    9) = (   0.0000000   0.1111111   0.3333333), wk =   0.0061728
        k(   10) = (   0.0000000   0.1111111   0.4444444), wk =   0.0061728
        k(   11) = (  -0.0000000   0.1111111  -0.4444444), wk =   0.0061728
        k(   12) = (  -0.0000000   0.1111111  -0.3333333), wk =   0.0061728
        k(   13) = (  -0.0000000   0.1111111  -0.2222222), wk =   0.0061728
        k(   14) = (  -0.0000000   0.1111111  -0.1111111), wk =   0.0061728
        k(   15) = (   0.0000000   0.2222222   0.0000000), wk =   0.0061728
        k(   16) = (   0.0000000   0.2222222   0.1111111), wk =   0.0061728
        k(   17) = (   0.0000000   0.2222222   0.2222222), wk =   0.0061728
        k(   18) = (  -0.0000000   0.2222222   0.3333333), wk =   0.0061728
        k(   19) = (   0.0000000   0.2222222   0.4444444), wk =   0.0061728
        k(   20) = (  -0.0000000   0.2222222  -0.4444444), wk =   0.0061728
        k(   21) = (  -0.0000000   0.2222222  -0.3333333), wk =   0.0061728
        k(   22) = (  -0.0000000   0.2222222  -0.2222222), wk =   0.0061728
        k(   23) = (  -0.0000000   0.2222222  -0.1111111), wk =   0.0061728
        k(   24) = (   0.0000000   0.3333333   0.0000000), wk =   0.0061728
        k(   25) = (  -0.0000000   0.3333333   0.1111111), wk =   0.0061728
        k(   26) = (   0.0000000   0.3333333   0.2222222), wk =   0.0061728
        k(   27) = (  -0.0000000   0.3333333   0.3333333), wk =   0.0061728
        k(   28) = (   0.0000000   0.3333333   0.4444444), wk =   0.0061728
        k(   29) = (  -0.0000000   0.3333333  -0.4444444), wk =   0.0061728
        k(   30) = (   0.0000000   0.3333333  -0.3333333), wk =   0.0061728
        k(   31) = (  -0.0000000   0.3333333  -0.2222222), wk =   0.0061728
        k(   32) = (   0.0000000   0.3333333  -0.1111111), wk =   0.0061728
        k(   33) = (   0.0000000   0.4444444   0.0000000), wk =   0.0061728
        k(   34) = (   0.0000000   0.4444444   0.1111111), wk =   0.0061728
        k(   35) = (   0.0000000   0.4444444   0.2222222), wk =   0.0061728
        k(   36) = (  -0.0000000   0.4444444   0.3333333), wk =   0.0061728
        k(   37) = (   0.0000000   0.4444444   0.4444444), wk =   0.0061728
        k(   38) = (  -0.0000000   0.4444444  -0.4444444), wk =   0.0061728
        k(   39) = (   0.0000000   0.4444444  -0.3333333), wk =   0.0061728
        k(   40) = (  -0.0000000   0.4444444  -0.2222222), wk =   0.0061728
        k(   41) = (   0.0000000   0.4444444  -0.1111111), wk =   0.0061728
        k(   42) = (   0.2500000  -0.0000000   0.0000000), wk =   0.0061728
        k(   43) = (   0.2500000  -0.0000000   0.1111111), wk =   0.0061728
        k(   44) = (   0.2500000  -0.0000000   0.2222222), wk =   0.0061728
        k(   45) = (   0.2500000  -0.0000000   0.3333333), wk =   0.0061728
        k(   46) = (   0.2500000  -0.0000000   0.4444444), wk =   0.0061728
        k(   47) = (   0.2500000   0.0000000  -0.4444444), wk =   0.0061728
        k(   48) = (   0.2500000   0.0000000  -0.3333333), wk =   0.0061728
        k(   49) = (   0.2500000   0.0000000  -0.2222222), wk =   0.0061728
        k(   50) = (   0.2500000   0.0000000  -0.1111111), wk =   0.0061728
        k(   51) = (   0.2500000   0.1111111  -0.0000000), wk =   0.0061728
        k(   52) = (   0.2500000   0.1111111   0.1111111), wk =   0.0061728
        k(   53) = (   0.2500000   0.1111111   0.2222222), wk =   0.0061728
        k(   54) = (   0.2500000   0.1111111   0.3333333), wk =   0.0061728
        k(   55) = (   0.2500000   0.1111111   0.4444444), wk =   0.0061728
        k(   56) = (   0.2500000   0.1111111  -0.4444444), wk =   0.0061728
        k(   57) = (   0.2500000   0.1111111  -0.3333333), wk =   0.0061728
        k(   58) = (   0.2500000   0.1111111  -0.2222222), wk =   0.0061728
        k(   59) = (   0.2500000   0.1111111  -0.1111111), wk =   0.0061728
        k(   60) = (   0.2500000   0.2222222  -0.0000000), wk =   0.0061728
        k(   61) = (   0.2500000   0.2222222   0.1111111), wk =   0.0061728
        k(   62) = (   0.2500000   0.2222222   0.2222222), wk =   0.0061728
        k(   63) = (   0.2500000   0.2222222   0.3333333), wk =   0.0061728
        k(   64) = (   0.2500000   0.2222222   0.4444444), wk =   0.0061728
        k(   65) = (   0.2500000   0.2222222  -0.4444444), wk =   0.0061728
        k(   66) = (   0.2500000   0.2222222  -0.3333333), wk =   0.0061728
        k(   67) = (   0.2500000   0.2222222  -0.2222222), wk =   0.0061728
        k(   68) = (   0.2500000   0.2222222  -0.1111111), wk =   0.0061728
        k(   69) = (   0.2500000   0.3333333  -0.0000000), wk =   0.0061728
        k(   70) = (   0.2500000   0.3333333   0.1111111), wk =   0.0061728
        k(   71) = (   0.2500000   0.3333333   0.2222222), wk =   0.0061728
        k(   72) = (   0.2500000   0.3333333   0.3333333), wk =   0.0061728
        k(   73) = (   0.2500000   0.3333333   0.4444444), wk =   0.0061728
        k(   74) = (   0.2500000   0.3333333  -0.4444444), wk =   0.0061728
        k(   75) = (   0.2500000   0.3333333  -0.3333333), wk =   0.0061728
        k(   76) = (   0.2500000   0.3333333  -0.2222222), wk =   0.0061728
        k(   77) = (   0.2500000   0.3333333  -0.1111111), wk =   0.0061728
        k(   78) = (   0.2500000   0.4444444  -0.0000000), wk =   0.0061728
        k(   79) = (   0.2500000   0.4444444   0.1111111), wk =   0.0061728
        k(   80) = (   0.2500000   0.4444444   0.2222222), wk =   0.0061728
        k(   81) = (   0.2500000   0.4444444   0.3333333), wk =   0.0061728
        k(   82) = (   0.2500000   0.4444444   0.4444444), wk =   0.0061728
        k(   83) = (   0.2500000   0.4444444  -0.4444444), wk =   0.0061728
        k(   84) = (   0.2500000   0.4444444  -0.3333333), wk =   0.0061728
        k(   85) = (   0.2500000   0.4444444  -0.2222222), wk =   0.0061728
        k(   86) = (   0.2500000   0.4444444  -0.1111111), wk =   0.0061728
        k(   87) = (   0.2500000  -0.4444444   0.0000000), wk =   0.0061728
        k(   88) = (   0.2500000  -0.4444444   0.1111111), wk =   0.0061728
        k(   89) = (   0.2500000  -0.4444444   0.2222222), wk =   0.0061728
        k(   90) = (   0.2500000  -0.4444444   0.3333333), wk =   0.0061728
        k(   91) = (   0.2500000  -0.4444444   0.4444444), wk =   0.0061728
        k(   92) = (   0.2500000  -0.4444444  -0.4444444), wk =   0.0061728
        k(   93) = (   0.2500000  -0.4444444  -0.3333333), wk =   0.0061728
        k(   94) = (   0.2500000  -0.4444444  -0.2222222), wk =   0.0061728
        k(   95) = (   0.2500000  -0.4444444  -0.1111111), wk =   0.0061728
        k(   96) = (   0.2500000  -0.3333333   0.0000000), wk =   0.0061728
        k(   97) = (   0.2500000  -0.3333333   0.1111111), wk =   0.0061728
        k(   98) = (   0.2500000  -0.3333333   0.2222222), wk =   0.0061728
        k(   99) = (   0.2500000  -0.3333333   0.3333333), wk =   0.0061728
        k(  100) = (   0.2500000  -0.3333333   0.4444444), wk =   0.0061728
        k(  101) = (   0.2500000  -0.3333333  -0.4444444), wk =   0.0061728
        k(  102) = (   0.2500000  -0.3333333  -0.3333333), wk =   0.0061728
        k(  103) = (   0.2500000  -0.3333333  -0.2222222), wk =   0.0061728
        k(  104) = (   0.2500000  -0.3333333  -0.1111111), wk =   0.0061728
        k(  105) = (   0.2500000  -0.2222222   0.0000000), wk =   0.0061728
        k(  106) = (   0.2500000  -0.2222222   0.1111111), wk =   0.0061728
        k(  107) = (   0.2500000  -0.2222222   0.2222222), wk =   0.0061728
        k(  108) = (   0.2500000  -0.2222222   0.3333333), wk =   0.0061728
        k(  109) = (   0.2500000  -0.2222222   0.4444444), wk =   0.0061728
        k(  110) = (   0.2500000  -0.2222222  -0.4444444), wk =   0.0061728
        k(  111) = (   0.2500000  -0.2222222  -0.3333333), wk =   0.0061728
        k(  112) = (   0.2500000  -0.2222222  -0.2222222), wk =   0.0061728
        k(  113) = (   0.2500000  -0.2222222  -0.1111111), wk =   0.0061728
        k(  114) = (   0.2500000  -0.1111111   0.0000000), wk =   0.0061728
        k(  115) = (   0.2500000  -0.1111111   0.1111111), wk =   0.0061728
        k(  116) = (   0.2500000  -0.1111111   0.2222222), wk =   0.0061728
        k(  117) = (   0.2500000  -0.1111111   0.3333333), wk =   0.0061728
        k(  118) = (   0.2500000  -0.1111111   0.4444444), wk =   0.0061728
        k(  119) = (   0.2500000  -0.1111111  -0.4444444), wk =   0.0061728
        k(  120) = (   0.2500000  -0.1111111  -0.3333333), wk =   0.0061728
        k(  121) = (   0.2500000  -0.1111111  -0.2222222), wk =   0.0061728
        k(  122) = (   0.2500000  -0.1111111  -0.1111111), wk =   0.0061728
        k(  123) = (  -0.5000000   0.0000000   0.0000000), wk =   0.0030864
        k(  124) = (  -0.5000000  -0.0000000   0.1111111), wk =   0.0061728
        k(  125) = (  -0.5000000  -0.0000000   0.2222222), wk =   0.0061728
        k(  126) = (  -0.5000000  -0.0000000   0.3333333), wk =   0.0061728
        k(  127) = (  -0.5000000  -0.0000000   0.4444444), wk =   0.0061728
        k(  128) = (  -0.5000000   0.1111111   0.0000000), wk =   0.0061728
        k(  129) = (  -0.5000000   0.1111111   0.1111111), wk =   0.0061728
        k(  130) = (  -0.5000000   0.1111111   0.2222222), wk =   0.0061728
        k(  131) = (  -0.5000000   0.1111111   0.3333333), wk =   0.0061728
        k(  132) = (  -0.5000000   0.1111111   0.4444444), wk =   0.0061728
        k(  133) = (  -0.5000000   0.1111111  -0.4444444), wk =   0.0061728
        k(  134) = (  -0.5000000   0.1111111  -0.3333333), wk =   0.0061728
        k(  135) = (  -0.5000000   0.1111111  -0.2222222), wk =   0.0061728
        k(  136) = (  -0.5000000   0.1111111  -0.1111111), wk =   0.0061728
        k(  137) = (  -0.5000000   0.2222222   0.0000000), wk =   0.0061728
        k(  138) = (  -0.5000000   0.2222222   0.1111111), wk =   0.0061728
        k(  139) = (  -0.5000000   0.2222222   0.2222222), wk =   0.0061728
        k(  140) = (  -0.5000000   0.2222222   0.3333333), wk =   0.0061728
        k(  141) = (  -0.5000000   0.2222222   0.4444444), wk =   0.0061728
        k(  142) = (  -0.5000000   0.2222222  -0.4444444), wk =   0.0061728
        k(  143) = (  -0.5000000   0.2222222  -0.3333333), wk =   0.0061728
        k(  144) = (  -0.5000000   0.2222222  -0.2222222), wk =   0.0061728
        k(  145) = (  -0.5000000   0.2222222  -0.1111111), wk =   0.0061728
        k(  146) = (  -0.5000000   0.3333333   0.0000000), wk =   0.0061728
        k(  147) = (  -0.5000000   0.3333333   0.1111111), wk =   0.0061728
        k(  148) = (  -0.5000000   0.3333333   0.2222222), wk =   0.0061728
        k(  149) = (  -0.5000000   0.3333333   0.3333333), wk =   0.0061728
        k(  150) = (  -0.5000000   0.3333333   0.4444444), wk =   0.0061728
        k(  151) = (  -0.5000000   0.3333333  -0.4444444), wk =   0.0061728
        k(  152) = (  -0.5000000   0.3333333  -0.3333333), wk =   0.0061728
        k(  153) = (  -0.5000000   0.3333333  -0.2222222), wk =   0.0061728
        k(  154) = (  -0.5000000   0.3333333  -0.1111111), wk =   0.0061728
        k(  155) = (  -0.5000000   0.4444444   0.0000000), wk =   0.0061728
        k(  156) = (  -0.5000000   0.4444444   0.1111111), wk =   0.0061728
        k(  157) = (  -0.5000000   0.4444444   0.2222222), wk =   0.0061728
        k(  158) = (  -0.5000000   0.4444444   0.3333333), wk =   0.0061728
        k(  159) = (  -0.5000000   0.4444444   0.4444444), wk =   0.0061728
        k(  160) = (  -0.5000000   0.4444444  -0.4444444), wk =   0.0061728
        k(  161) = (  -0.5000000   0.4444444  -0.3333333), wk =   0.0061728
        k(  162) = (  -0.5000000   0.4444444  -0.2222222), wk =   0.0061728
        k(  163) = (  -0.5000000   0.4444444  -0.1111111), wk =   0.0061728

     Dense  grid:  1282409 G-vectors     FFT dimensions: ( 250, 108, 108)

     Smooth grid:   246569 G-vectors     FFT dimensions: ( 144,  64,  64)

     Dynamical RAM for                 wfc:      19.30 MB

     Dynamical RAM for     wfc (w. buffer):    6312.35 MB

     Dynamical RAM for           str. fact:      58.70 MB

     Dynamical RAM for           local pot:       0.00 MB

     Dynamical RAM for          nlocal pot:      64.97 MB

     Dynamical RAM for                qrad:       7.91 MB

     Dynamical RAM for          rho,v,vnew:     250.89 MB

     Dynamical RAM for               rhoin:      83.63 MB

     Dynamical RAM for            rho*nmix:     626.18 MB

     Dynamical RAM for           G-vectors:      75.26 MB

     Dynamical RAM for          h,s,v(r/c):       0.31 MB

     Dynamical RAM for          <psi|beta>:       0.09 MB

     Dynamical RAM for                 psi:      38.61 MB

     Dynamical RAM for                hpsi:      38.61 MB

     Dynamical RAM for                spsi:      38.61 MB

     Dynamical RAM for      wfcinit/wfcrot:      49.97 MB

     Dynamical RAM for           addusdens:    3776.63 MB

     Dynamical RAM for          addusforce:    3972.35 MB

     Dynamical RAM for         addusstress:    3962.52 MB

     Estimated static dynamical RAM per process >       6.90 GB

     Estimated max dynamical RAM per process >      11.39 GB

     Check: negative core charge=   -0.000001
     Generating pointlists ...
     new r_m :   0.0671 (alat units)  1.5907 (a.u.) for type    1
     new r_m :   0.0531 (alat units)  1.2581 (a.u.) for type    2
     new r_m :   0.0482 (alat units)  1.1419 (a.u.) for type    3

     Initial potential from superposition of free atoms

     starting charge      67.9974, renormalised to      68.0000
     Starting wfcs are   53 randomized atomic wfcs
     Checking if some PAW data can be deallocated... 

     total cpu time spent up to now is       42.8 secs

     Self-consistent Calculation
[tb_dev] Currently allocated     3.84E+01 Mbytes, locked:    0 /  16
[tb_pin] Currently allocated     0.00E+00 Mbytes, locked:    0 /   0

     iteration #  1     ecut=    90.00 Ry     beta= 0.40
     Davidson diagonalization with overlap

---- Real-time Memory Report at c_bands before calling an iterative solver
          7941 MiB given to the printing process from OS
          -593 MiB allocation reported by mallinfo(arena+hblkhd)
         50749 MiB available memory on the node where the printing process lives
     GPU memory used/free/total (MiB): 3142 / 13138 / 16280
------------------
     ethr =  1.00E-02,  avg # of iterations =  3.0

     negative rho (up, down):  0.000E+00 5.058E-05

     total cpu time spent up to now is       78.5 secs

     total energy              =    -615.20564194 Ry
     estimated scf accuracy    <       5.89243566 Ry

     total magnetization       =     5.36 Bohr mag/cell
     absolute magnetization    =     5.70 Bohr mag/cell
[tb_dev] Currently allocated     3.84E+01 Mbytes, locked:    0 /  14
[tb_pin] Currently allocated     0.00E+00 Mbytes, locked:    0 /   0

     iteration #  2     ecut=    90.00 Ry     beta= 0.40
     Davidson diagonalization with overlap

---- Real-time Memory Report at c_bands before calling an iterative solver
          8301 MiB given to the printing process from OS
          -407 MiB allocation reported by mallinfo(arena+hblkhd)
         50580 MiB available memory on the node where the printing process lives
     GPU memory used/free/total (MiB): 8116 / 8164 / 16280
------------------
     ethr =  8.67E-03,  avg # of iterations =  4.7

     negative rho (up, down):  0.000E+00 3.074E-05

     total cpu time spent up to now is      118.9 secs

     total energy              =    -613.36561039 Ry
     estimated scf accuracy    <      70.35887642 Ry

     total magnetization       =     1.52 Bohr mag/cell
     absolute magnetization    =     1.69 Bohr mag/cell
[tb_dev] Currently allocated     3.84E+01 Mbytes, locked:    0 /  14
[tb_pin] Currently allocated     0.00E+00 Mbytes, locked:    0 /   0

     iteration #  3     ecut=    90.00 Ry     beta= 0.40
     Davidson diagonalization with overlap

---- Real-time Memory Report at c_bands before calling an iterative solver
          8482 MiB given to the printing process from OS
          -349 MiB allocation reported by mallinfo(arena+hblkhd)
         50547 MiB available memory on the node where the printing process lives
     GPU memory used/free/total (MiB): 8446 / 7834 / 16280
------------------
     ethr =  8.67E-03,  avg # of iterations =  3.7

     negative rho (up, down):  0.000E+00 4.220E-05

     total cpu time spent up to now is      155.8 secs

     total energy              =    -617.10423926 Ry
     estimated scf accuracy    <       4.48773928 Ry

     total magnetization       =     5.94 Bohr mag/cell
     absolute magnetization    =     6.12 Bohr mag/cell
[tb_dev] Currently allocated     3.84E+01 Mbytes, locked:    0 /  14
[tb_pin] Currently allocated     0.00E+00 Mbytes, locked:    0 /   0

     iteration #  4     ecut=    90.00 Ry     beta= 0.40
     Davidson diagonalization with overlap

---- Real-time Memory Report at c_bands before calling an iterative solver
          8609 MiB given to the printing process from OS
          -321 MiB allocation reported by mallinfo(arena+hblkhd)
         50523 MiB available memory on the node where the printing process lives
     GPU memory used/free/total (MiB): 8536 / 7744 / 16280
------------------
     ethr =  6.60E-03,  avg # of iterations =  2.0

     negative rho (up, down):  0.000E+00 5.022E-05

     total cpu time spent up to now is      185.9 secs

     total energy              =    -617.46390365 Ry
     estimated scf accuracy    <       1.63028323 Ry

     total magnetization       =     4.97 Bohr mag/cell
     absolute magnetization    =     5.14 Bohr mag/cell
[tb_dev] Currently allocated     3.84E+01 Mbytes, locked:    0 /  14
[tb_pin] Currently allocated     0.00E+00 Mbytes, locked:    0 /   0

     iteration #  5     ecut=    90.00 Ry     beta= 0.40
     Davidson diagonalization with overlap

---- Real-time Memory Report at c_bands before calling an iterative solver
          8698 MiB given to the printing process from OS
          -292 MiB allocation reported by mallinfo(arena+hblkhd)
         50496 MiB available memory on the node where the printing process lives
     GPU memory used/free/total (MiB): 8536 / 7744 / 16280
------------------
     ethr =  2.40E-03,  avg # of iterations =  1.2

     negative rho (up, down):  0.000E+00 5.426E-05

     total cpu time spent up to now is      213.9 secs

     total energy              =    -617.53001270 Ry
     estimated scf accuracy    <       0.85293233 Ry

     total magnetization       =     4.02 Bohr mag/cell
     absolute magnetization    =     4.31 Bohr mag/cell
[tb_dev] Currently allocated     3.84E+01 Mbytes, locked:    0 /  14
[tb_pin] Currently allocated     0.00E+00 Mbytes, locked:    0 /   0

     iteration #  6     ecut=    90.00 Ry     beta= 0.40
     Davidson diagonalization with overlap

---- Real-time Memory Report at c_bands before calling an iterative solver
          8787 MiB given to the printing process from OS
          -264 MiB allocation reported by mallinfo(arena+hblkhd)
         50467 MiB available memory on the node where the printing process lives
     GPU memory used/free/total (MiB): 8536 / 7744 / 16280
------------------
     ethr =  1.25E-03,  avg # of iterations =  1.0

     negative rho (up, down):  0.000E+00 6.852E-05

     total cpu time spent up to now is      241.4 secs

     total energy              =    -617.50031913 Ry
     estimated scf accuracy    <       0.91650774 Ry

     total magnetization       =     5.58 Bohr mag/cell
     absolute magnetization    =     5.69 Bohr mag/cell
[tb_dev] Currently allocated     3.84E+01 Mbytes, locked:    0 /  14
[tb_pin] Currently allocated     0.00E+00 Mbytes, locked:    0 /   0

     iteration #  7     ecut=    90.00 Ry     beta= 0.40
     Davidson diagonalization with overlap

---- Real-time Memory Report at c_bands before calling an iterative solver
          8860 MiB given to the printing process from OS
          -229 MiB allocation reported by mallinfo(arena+hblkhd)
         50430 MiB available memory on the node where the printing process lives
     GPU memory used/free/total (MiB): 8536 / 7744 / 16280
------------------
     ethr =  1.25E-03,  avg # of iterations =  1.0

     negative rho (up, down):  0.000E+00 7.506E-05

     total cpu time spent up to now is      268.9 secs

     total energy              =    -617.57327058 Ry
     estimated scf accuracy    <       7.60766479 Ry

     total magnetization       =     2.00 Bohr mag/cell
     absolute magnetization    =     2.48 Bohr mag/cell
[tb_dev] Currently allocated     3.84E+01 Mbytes, locked:    0 /  14
[tb_pin] Currently allocated     0.00E+00 Mbytes, locked:    0 /   0

     iteration #  8     ecut=    90.00 Ry     beta= 0.40
     Davidson diagonalization with overlap

---- Real-time Memory Report at c_bands before calling an iterative solver
          8897 MiB given to the printing process from OS
          -200 MiB allocation reported by mallinfo(arena+hblkhd)
         50405 MiB available memory on the node where the printing process lives
     GPU memory used/free/total (MiB): 8536 / 7744 / 16280
------------------
     ethr =  1.25E-03,  avg # of iterations =  1.0

     negative rho (up, down):  0.000E+00 7.553E-05

     total cpu time spent up to now is      296.4 secs

     total energy              =    -617.56593586 Ry
     estimated scf accuracy    <       3.06436523 Ry

     total magnetization       =     2.57 Bohr mag/cell
     absolute magnetization    =     2.84 Bohr mag/cell
[tb_dev] Currently allocated     3.84E+01 Mbytes, locked:    0 /  14
[tb_pin] Currently allocated     0.00E+00 Mbytes, locked:    0 /   0

     iteration #  9     ecut=    90.00 Ry     beta= 0.40
     Davidson diagonalization with overlap

---- Real-time Memory Report at c_bands before calling an iterative solver
          8925 MiB given to the printing process from OS
          -172 MiB allocation reported by mallinfo(arena+hblkhd)
         50370 MiB available memory on the node where the printing process lives
     GPU memory used/free/total (MiB): 8536 / 7744 / 16280
------------------
     ethr =  1.25E-03,  avg # of iterations =  1.0

     negative rho (up, down):  0.000E+00 8.018E-05

     total cpu time spent up to now is      323.9 secs

     total energy              =    -617.58871409 Ry
     estimated scf accuracy    <       0.36623556 Ry

     total magnetization       =     3.98 Bohr mag/cell
     absolute magnetization    =     4.11 Bohr mag/cell
[tb_dev] Currently allocated     3.84E+01 Mbytes, locked:    0 /  14
[tb_pin] Currently allocated     0.00E+00 Mbytes, locked:    0 /   0

     iteration # 10     ecut=    90.00 Ry     beta= 0.40
     Davidson diagonalization with overlap

---- Real-time Memory Report at c_bands before calling an iterative solver
          8953 MiB given to the printing process from OS
          -144 MiB allocation reported by mallinfo(arena+hblkhd)
         50346 MiB available memory on the node where the printing process lives
     GPU memory used/free/total (MiB): 8536 / 7744 / 16280
------------------
     ethr =  5.39E-04,  avg # of iterations =  1.0

     negative rho (up, down):  0.000E+00 8.142E-05

     total cpu time spent up to now is      351.4 secs

     total energy              =    -617.58391739 Ry
     estimated scf accuracy    <       0.85560349 Ry

     total magnetization       =     3.75 Bohr mag/cell
     absolute magnetization    =     3.89 Bohr mag/cell
[tb_dev] Currently allocated     3.84E+01 Mbytes, locked:    0 /  14
[tb_pin] Currently allocated     0.00E+00 Mbytes, locked:    0 /   0

     iteration # 11     ecut=    90.00 Ry     beta= 0.40
     Davidson diagonalization with overlap

---- Real-time Memory Report at c_bands before calling an iterative solver
          8967 MiB given to the printing process from OS
          -175 MiB allocation reported by mallinfo(arena+hblkhd)
         50335 MiB available memory on the node where the printing process lives
     GPU memory used/free/total (MiB): 8536 / 7744 / 16280
------------------
     ethr =  5.39E-04,  avg # of iterations =  1.0

     negative rho (up, down):  0.000E+00 8.387E-05

     total cpu time spent up to now is      378.9 secs

     total energy              =    -617.58649557 Ry
     estimated scf accuracy    <       0.24434596 Ry

     total magnetization       =     4.07 Bohr mag/cell
     absolute magnetization    =     4.22 Bohr mag/cell
[tb_dev] Currently allocated     3.84E+01 Mbytes, locked:    0 /  14
[tb_pin] Currently allocated     0.00E+00 Mbytes, locked:    0 /   0

     iteration # 12     ecut=    90.00 Ry     beta= 0.40
     Davidson diagonalization with overlap

---- Real-time Memory Report at c_bands before calling an iterative solver
          8980 MiB given to the printing process from OS
          -118 MiB allocation reported by mallinfo(arena+hblkhd)
         50318 MiB available memory on the node where the printing process lives
     GPU memory used/free/total (MiB): 8536 / 7744 / 16280
------------------
     ethr =  3.59E-04,  avg # of iterations =  1.0

     negative rho (up, down):  0.000E+00 8.394E-05

     total cpu time spent up to now is      406.6 secs

     total energy              =    -617.58426547 Ry
     estimated scf accuracy    <       0.18584607 Ry

     total magnetization       =     4.23 Bohr mag/cell
     absolute magnetization    =     4.39 Bohr mag/cell
[tb_dev] Currently allocated     3.84E+01 Mbytes, locked:    0 /  14
[tb_pin] Currently allocated     0.00E+00 Mbytes, locked:    0 /   0

     iteration # 13     ecut=    90.00 Ry     beta= 0.40
     Davidson diagonalization with overlap

---- Real-time Memory Report at c_bands before calling an iterative solver
          9000 MiB given to the printing process from OS
          -149 MiB allocation reported by mallinfo(arena+hblkhd)
         50306 MiB available memory on the node where the printing process lives
     GPU memory used/free/total (MiB): 8536 / 7744 / 16280
------------------
     ethr =  2.73E-04,  avg # of iterations =  1.2

     negative rho (up, down):  0.000E+00 8.879E-05

     total cpu time spent up to now is      434.7 secs

     total energy              =    -617.58722041 Ry
     estimated scf accuracy    <       0.03647975 Ry

     total magnetization       =     4.25 Bohr mag/cell
     absolute magnetization    =     4.42 Bohr mag/cell
[tb_dev] Currently allocated     3.84E+01 Mbytes, locked:    0 /  14
[tb_pin] Currently allocated     0.00E+00 Mbytes, locked:    0 /   0

     iteration # 14     ecut=    90.00 Ry     beta= 0.40
     Davidson diagonalization with overlap

---- Real-time Memory Report at c_bands before calling an iterative solver
          9014 MiB given to the printing process from OS
           -92 MiB allocation reported by mallinfo(arena+hblkhd)
         50281 MiB available memory on the node where the printing process lives
     GPU memory used/free/total (MiB): 8536 / 7744 / 16280
------------------
     ethr =  5.36E-05,  avg # of iterations =  2.7

     negative rho (up, down):  0.000E+00 9.119E-05

     total cpu time spent up to now is      465.4 secs

     total energy              =    -617.58850867 Ry
     estimated scf accuracy    <       0.00881002 Ry

     total magnetization       =     4.34 Bohr mag/cell
     absolute magnetization    =     4.54 Bohr mag/cell
[tb_dev] Currently allocated     3.84E+01 Mbytes, locked:    0 /  14
[tb_pin] Currently allocated     0.00E+00 Mbytes, locked:    0 /   0

     iteration # 15     ecut=    90.00 Ry     beta= 0.40
     Davidson diagonalization with overlap

---- Real-time Memory Report at c_bands before calling an iterative solver
          9026 MiB given to the printing process from OS
          -123 MiB allocation reported by mallinfo(arena+hblkhd)
         50279 MiB available memory on the node where the printing process lives
     GPU memory used/free/total (MiB): 8536 / 7744 / 16280
------------------
     c_bands:  1 eigenvalues not converged
     c_bands:  1 eigenvalues not converged
     c_bands:  1 eigenvalues not converged
     c_bands:  1 eigenvalues not converged
     ethr =  1.30E-05,  avg # of iterations =  5.6

     negative rho (up, down):  0.000E+00 9.202E-05

     total cpu time spent up to now is      501.0 secs

     total energy              =    -617.58944614 Ry
     estimated scf accuracy    <       0.00226656 Ry

     total magnetization       =     4.30 Bohr mag/cell
     absolute magnetization    =     4.54 Bohr mag/cell
[tb_dev] Currently allocated     3.84E+01 Mbytes, locked:    0 /  14
[tb_pin] Currently allocated     0.00E+00 Mbytes, locked:    0 /   0

     iteration # 16     ecut=    90.00 Ry     beta= 0.40
     Davidson diagonalization with overlap

---- Real-time Memory Report at c_bands before calling an iterative solver
          9039 MiB given to the printing process from OS
           -66 MiB allocation reported by mallinfo(arena+hblkhd)
         50263 MiB available memory on the node where the printing process lives
     GPU memory used/free/total (MiB): 8536 / 7744 / 16280
------------------
     c_bands:  1 eigenvalues not converged
     c_bands:  1 eigenvalues not converged
     c_bands:  1 eigenvalues not converged
     c_bands:  1 eigenvalues not converged
     ethr =  3.33E-06,  avg # of iterations =  5.6

     negative rho (up, down):  0.000E+00 9.368E-05

     total cpu time spent up to now is      537.5 secs

     total energy              =    -617.59000363 Ry
     estimated scf accuracy    <       0.00217397 Ry

     total magnetization       =     4.27 Bohr mag/cell
     absolute magnetization    =     4.53 Bohr mag/cell
[tb_dev] Currently allocated     3.84E+01 Mbytes, locked:    0 /  14
[tb_pin] Currently allocated     0.00E+00 Mbytes, locked:    0 /   0

     iteration # 17     ecut=    90.00 Ry     beta= 0.40
     Davidson diagonalization with overlap

---- Real-time Memory Report at c_bands before calling an iterative solver
          9053 MiB given to the printing process from OS
           -97 MiB allocation reported by mallinfo(arena+hblkhd)
         50254 MiB available memory on the node where the printing process lives
     GPU memory used/free/total (MiB): 8536 / 7744 / 16280
------------------
     c_bands:  1 eigenvalues not converged
     ethr =  3.20E-06,  avg # of iterations =  2.1

     negative rho (up, down):  0.000E+00 9.408E-05

     total cpu time spent up to now is      568.1 secs

     total energy              =    -617.59082983 Ry
     estimated scf accuracy    <       0.00100356 Ry

     total magnetization       =     4.20 Bohr mag/cell
     absolute magnetization    =     4.57 Bohr mag/cell
[tb_dev] Currently allocated     3.84E+01 Mbytes, locked:    0 /  14
[tb_pin] Currently allocated     0.00E+00 Mbytes, locked:    0 /   0

     iteration # 18     ecut=    90.00 Ry     beta= 0.40
     Davidson diagonalization with overlap

---- Real-time Memory Report at c_bands before calling an iterative solver
          9066 MiB given to the printing process from OS
           -39 MiB allocation reported by mallinfo(arena+hblkhd)
         50238 MiB available memory on the node where the printing process lives
     GPU memory used/free/total (MiB): 8536 / 7744 / 16280
------------------
     ethr =  1.48E-06,  avg # of iterations =  2.4

     negative rho (up, down):  0.000E+00 9.429E-05

     total cpu time spent up to now is      599.8 secs

     total energy              =    -617.59138876 Ry
     estimated scf accuracy    <       0.00056047 Ry

     total magnetization       =     4.20 Bohr mag/cell
     absolute magnetization    =     4.61 Bohr mag/cell
[tb_dev] Currently allocated     3.84E+01 Mbytes, locked:    0 /  14
[tb_pin] Currently allocated     0.00E+00 Mbytes, locked:    0 /   0

     iteration # 19     ecut=    90.00 Ry     beta= 0.40
     Davidson diagonalization with overlap

---- Real-time Memory Report at c_bands before calling an iterative solver
          9086 MiB given to the printing process from OS
           -71 MiB allocation reported by mallinfo(arena+hblkhd)
         50231 MiB available memory on the node where the printing process lives
     GPU memory used/free/total (MiB): 8536 / 7744 / 16280
------------------
     ethr =  8.24E-07,  avg # of iterations =  1.7

     negative rho (up, down):  0.000E+00 9.459E-05

     total cpu time spent up to now is      628.8 secs

     total energy              =    -617.59159947 Ry
     estimated scf accuracy    <       0.00047846 Ry

     total magnetization       =     4.19 Bohr mag/cell
     absolute magnetization    =     4.62 Bohr mag/cell
[tb_dev] Currently allocated     3.84E+01 Mbytes, locked:    0 /  14
[tb_pin] Currently allocated     0.00E+00 Mbytes, locked:    0 /   0

     iteration # 20     ecut=    90.00 Ry     beta= 0.40
     Davidson diagonalization with overlap

---- Real-time Memory Report at c_bands before calling an iterative solver
          9099 MiB given to the printing process from OS
           -13 MiB allocation reported by mallinfo(arena+hblkhd)
         50201 MiB available memory on the node where the printing process lives
     GPU memory used/free/total (MiB): 8536 / 7744 / 16280
------------------
     ethr =  7.04E-07,  avg # of iterations =  2.2

     negative rho (up, down):  0.000E+00 9.579E-05

     total cpu time spent up to now is      659.5 secs

     total energy              =    -617.59183755 Ry
     estimated scf accuracy    <       0.00032748 Ry

     total magnetization       =     4.18 Bohr mag/cell
     absolute magnetization    =     4.65 Bohr mag/cell
[tb_dev] Currently allocated     3.84E+01 Mbytes, locked:    0 /  14
[tb_pin] Currently allocated     0.00E+00 Mbytes, locked:    0 /   0

     iteration # 21     ecut=    90.00 Ry     beta= 0.40
     Davidson diagonalization with overlap

---- Real-time Memory Report at c_bands before calling an iterative solver
          9112 MiB given to the printing process from OS
           -45 MiB allocation reported by mallinfo(arena+hblkhd)
         50205 MiB available memory on the node where the printing process lives
     GPU memory used/free/total (MiB): 8536 / 7744 / 16280
------------------
     ethr =  4.82E-07,  avg # of iterations =  3.0

     negative rho (up, down):  0.000E+00 9.615E-05

     total cpu time spent up to now is      693.7 secs

     total energy              =    -617.59217200 Ry
     estimated scf accuracy    <       0.00033068 Ry

     total magnetization       =     4.17 Bohr mag/cell
     absolute magnetization    =     4.71 Bohr mag/cell
[tb_dev] Currently allocated     3.84E+01 Mbytes, locked:    0 /  14
[tb_pin] Currently allocated     0.00E+00 Mbytes, locked:    0 /   0

     iteration # 22     ecut=    90.00 Ry     beta= 0.40
     Davidson diagonalization with overlap

---- Real-time Memory Report at c_bands before calling an iterative solver
          9126 MiB given to the printing process from OS
            12 MiB allocation reported by mallinfo(arena+hblkhd)
         50174 MiB available memory on the node where the printing process lives
     GPU memory used/free/total (MiB): 8536 / 7744 / 16280
------------------
     ethr =  4.82E-07,  avg # of iterations =  1.5

     negative rho (up, down):  0.000E+00 9.641E-05

     total cpu time spent up to now is      722.4 secs

     total energy              =    -617.59231153 Ry
     estimated scf accuracy    <       0.00013782 Ry

     total magnetization       =     4.16 Bohr mag/cell
     absolute magnetization    =     4.73 Bohr mag/cell
[tb_dev] Currently allocated     3.84E+01 Mbytes, locked:    0 /  14
[tb_pin] Currently allocated     0.00E+00 Mbytes, locked:    0 /   0

     iteration # 23     ecut=    90.00 Ry     beta= 0.40
     Davidson diagonalization with overlap

---- Real-time Memory Report at c_bands before calling an iterative solver
          9146 MiB given to the printing process from OS
           -19 MiB allocation reported by mallinfo(arena+hblkhd)
         50179 MiB available memory on the node where the printing process lives
     GPU memory used/free/total (MiB): 8536 / 7744 / 16280
------------------
     ethr =  2.03E-07,  avg # of iterations =  2.2

     negative rho (up, down):  0.000E+00 9.634E-05

     total cpu time spent up to now is      753.1 secs

     total energy              =    -617.59239861 Ry
     estimated scf accuracy    <       0.00014458 Ry

     total magnetization       =     4.15 Bohr mag/cell
     absolute magnetization    =     4.74 Bohr mag/cell
[tb_dev] Currently allocated     3.84E+01 Mbytes, locked:    0 /  14
[tb_pin] Currently allocated     0.00E+00 Mbytes, locked:    0 /   0

     iteration # 24     ecut=    90.00 Ry     beta= 0.40
     Davidson diagonalization with overlap

---- Real-time Memory Report at c_bands before calling an iterative solver
          9159 MiB given to the printing process from OS
            38 MiB allocation reported by mallinfo(arena+hblkhd)
         50140 MiB available memory on the node where the printing process lives
     GPU memory used/free/total (MiB): 8536 / 7744 / 16280
------------------
     ethr =  2.03E-07,  avg # of iterations =  1.3

     negative rho (up, down):  0.000E+00 9.655E-05

     total cpu time spent up to now is      781.2 secs

     total energy              =    -617.59234937 Ry
     estimated scf accuracy    <       0.00009238 Ry

     total magnetization       =     4.15 Bohr mag/cell
     absolute magnetization    =     4.76 Bohr mag/cell
[tb_dev] Currently allocated     3.84E+01 Mbytes, locked:    0 /  14
[tb_pin] Currently allocated     0.00E+00 Mbytes, locked:    0 /   0

     iteration # 25     ecut=    90.00 Ry     beta= 0.40
     Davidson diagonalization with overlap

---- Real-time Memory Report at c_bands before calling an iterative solver
          9173 MiB given to the printing process from OS
             6 MiB allocation reported by mallinfo(arena+hblkhd)
         50153 MiB available memory on the node where the printing process lives
     GPU memory used/free/total (MiB): 8536 / 7744 / 16280
------------------
     ethr =  1.36E-07,  avg # of iterations =  3.9

     negative rho (up, down):  0.000E+00 9.616E-05

     total cpu time spent up to now is      820.6 secs

     total energy              =    -617.59264646 Ry
     estimated scf accuracy    <       0.00012256 Ry

     total magnetization       =     4.14 Bohr mag/cell
     absolute magnetization    =     4.82 Bohr mag/cell
[tb_dev] Currently allocated     3.84E+01 Mbytes, locked:    0 /  14
[tb_pin] Currently allocated     0.00E+00 Mbytes, locked:    0 /   0

     iteration # 26     ecut=    90.00 Ry     beta= 0.40
     Davidson diagonalization with overlap

---- Real-time Memory Report at c_bands before calling an iterative solver
          9185 MiB given to the printing process from OS
            64 MiB allocation reported by mallinfo(arena+hblkhd)
         50116 MiB available memory on the node where the printing process lives
     GPU memory used/free/total (MiB): 8536 / 7744 / 16280
------------------
     ethr =  1.36E-07,  avg # of iterations =  2.0

     negative rho (up, down):  0.000E+00 9.601E-05

     total cpu time spent up to now is      850.3 secs

     total energy              =    -617.59263829 Ry
     estimated scf accuracy    <       0.00013612 Ry

     total magnetization       =     4.14 Bohr mag/cell
     absolute magnetization    =     4.81 Bohr mag/cell
[tb_dev] Currently allocated     3.84E+01 Mbytes, locked:    0 /  14
[tb_pin] Currently allocated     0.00E+00 Mbytes, locked:    0 /   0

     iteration # 27     ecut=    90.00 Ry     beta= 0.40
     Davidson diagonalization with overlap

---- Real-time Memory Report at c_bands before calling an iterative solver
          9199 MiB given to the printing process from OS
            33 MiB allocation reported by mallinfo(arena+hblkhd)
         50124 MiB available memory on the node where the printing process lives
     GPU memory used/free/total (MiB): 8536 / 7744 / 16280
------------------
     ethr =  1.36E-07,  avg # of iterations =  1.0

     negative rho (up, down):  0.000E+00 9.616E-05

     total cpu time spent up to now is      878.1 secs

     total energy              =    -617.59253948 Ry
     estimated scf accuracy    <       0.00024992 Ry

     total magnetization       =     4.14 Bohr mag/cell
     absolute magnetization    =     4.81 Bohr mag/cell
[tb_dev] Currently allocated     3.84E+01 Mbytes, locked:    0 /  14
[tb_pin] Currently allocated     0.00E+00 Mbytes, locked:    0 /   0

     iteration # 28     ecut=    90.00 Ry     beta= 0.40
     Davidson diagonalization with overlap

---- Real-time Memory Report at c_bands before calling an iterative solver
          9211 MiB given to the printing process from OS
            90 MiB allocation reported by mallinfo(arena+hblkhd)
         50092 MiB available memory on the node where the printing process lives
     GPU memory used/free/total (MiB): 8536 / 7744 / 16280
------------------
     ethr =  1.36E-07,  avg # of iterations =  1.1

     negative rho (up, down):  0.000E+00 9.649E-05

     total cpu time spent up to now is      905.9 secs

     total energy              =    -617.59256355 Ry
     estimated scf accuracy    <       0.00016618 Ry

     total magnetization       =     4.14 Bohr mag/cell
     absolute magnetization    =     4.80 Bohr mag/cell
[tb_dev] Currently allocated     3.84E+01 Mbytes, locked:    0 /  14
[tb_pin] Currently allocated     0.00E+00 Mbytes, locked:    0 /   0

     iteration # 29     ecut=    90.00 Ry     beta= 0.40
     Davidson diagonalization with overlap

---- Real-time Memory Report at c_bands before calling an iterative solver
          9225 MiB given to the printing process from OS
            59 MiB allocation reported by mallinfo(arena+hblkhd)
         50098 MiB available memory on the node where the printing process lives
     GPU memory used/free/total (MiB): 8536 / 7744 / 16280
------------------
     ethr =  1.36E-07,  avg # of iterations =  1.0

     negative rho (up, down):  0.000E+00 9.654E-05

     total cpu time spent up to now is      933.5 secs

     total energy              =    -617.59251980 Ry
     estimated scf accuracy    <       0.00015527 Ry

     total magnetization       =     4.14 Bohr mag/cell
     absolute magnetization    =     4.80 Bohr mag/cell
[tb_dev] Currently allocated     3.84E+01 Mbytes, locked:    0 /  14
[tb_pin] Currently allocated     0.00E+00 Mbytes, locked:    0 /   0

     iteration # 30     ecut=    90.00 Ry     beta= 0.40
     Davidson diagonalization with overlap

---- Real-time Memory Report at c_bands before calling an iterative solver
          9246 MiB given to the printing process from OS
           116 MiB allocation reported by mallinfo(arena+hblkhd)
         50057 MiB available memory on the node where the printing process lives
     GPU memory used/free/total (MiB): 8536 / 7744 / 16280
------------------
     ethr =  1.36E-07,  avg # of iterations =  1.0

     negative rho (up, down):  0.000E+00 9.641E-05

     total cpu time spent up to now is      961.1 secs

     total energy              =    -617.59260184 Ry
     estimated scf accuracy    <       0.00014827 Ry

     total magnetization       =     4.14 Bohr mag/cell
     absolute magnetization    =     4.80 Bohr mag/cell
[tb_dev] Currently allocated     3.84E+01 Mbytes, locked:    0 /  14
[tb_pin] Currently allocated     0.00E+00 Mbytes, locked:    0 /   0

     iteration # 31     ecut=    90.00 Ry     beta= 0.40
     Davidson diagonalization with overlap

---- Real-time Memory Report at c_bands before calling an iterative solver
          9258 MiB given to the printing process from OS
            85 MiB allocation reported by mallinfo(arena+hblkhd)
         50072 MiB available memory on the node where the printing process lives
     GPU memory used/free/total (MiB): 8536 / 7744 / 16280
------------------
     ethr =  1.36E-07,  avg # of iterations =  1.8

     negative rho (up, down):  0.000E+00 9.649E-05

     total cpu time spent up to now is      990.1 secs

     total energy              =    -617.59263358 Ry
     estimated scf accuracy    <       0.00012159 Ry

     total magnetization       =     4.14 Bohr mag/cell
     absolute magnetization    =     4.80 Bohr mag/cell
[tb_dev] Currently allocated     3.84E+01 Mbytes, locked:    0 /  14
[tb_pin] Currently allocated     0.00E+00 Mbytes, locked:    0 /   0

     iteration # 32     ecut=    90.00 Ry     beta= 0.40
     Davidson diagonalization with overlap

---- Real-time Memory Report at c_bands before calling an iterative solver
          9272 MiB given to the printing process from OS
           142 MiB allocation reported by mallinfo(arena+hblkhd)
         50028 MiB available memory on the node where the printing process lives
     GPU memory used/free/total (MiB): 8536 / 7744 / 16280
------------------
     ethr =  1.36E-07,  avg # of iterations =  1.0

     negative rho (up, down):  0.000E+00 9.653E-05

     total cpu time spent up to now is     1017.6 secs

     total energy              =    -617.59265164 Ry
     estimated scf accuracy    <       0.00013311 Ry

     total magnetization       =     4.14 Bohr mag/cell
     absolute magnetization    =     4.81 Bohr mag/cell
[tb_dev] Currently allocated     3.84E+01 Mbytes, locked:    0 /  14
[tb_pin] Currently allocated     0.00E+00 Mbytes, locked:    0 /   0

     iteration # 33     ecut=    90.00 Ry     beta= 0.40
     Davidson diagonalization with overlap

---- Real-time Memory Report at c_bands before calling an iterative solver
          9284 MiB given to the printing process from OS
           111 MiB allocation reported by mallinfo(arena+hblkhd)
         50047 MiB available memory on the node where the printing process lives
     GPU memory used/free/total (MiB): 8536 / 7744 / 16280
------------------
     ethr =  1.36E-07,  avg # of iterations =  1.0

     negative rho (up, down):  0.000E+00 9.659E-05

     total cpu time spent up to now is     1045.1 secs

     total energy              =    -617.59271214 Ry
     estimated scf accuracy    <       0.00013054 Ry

     total magnetization       =     4.14 Bohr mag/cell
     absolute magnetization    =     4.81 Bohr mag/cell
[tb_dev] Currently allocated     3.84E+01 Mbytes, locked:    0 /  14
[tb_pin] Currently allocated     0.00E+00 Mbytes, locked:    0 /   0

     iteration # 34     ecut=    90.00 Ry     beta= 0.40
     Davidson diagonalization with overlap

---- Real-time Memory Report at c_bands before calling an iterative solver
          9297 MiB given to the printing process from OS
           146 MiB allocation reported by mallinfo(arena+hblkhd)
         50032 MiB available memory on the node where the printing process lives
     GPU memory used/free/total (MiB): 8536 / 7744 / 16280
------------------
     ethr =  1.36E-07,  avg # of iterations =  1.0

     negative rho (up, down):  0.000E+00 9.667E-05

     total cpu time spent up to now is     1072.6 secs

     total energy              =    -617.59277796 Ry
     estimated scf accuracy    <       0.00012557 Ry

     total magnetization       =     4.14 Bohr mag/cell
     absolute magnetization    =     4.83 Bohr mag/cell
[tb_dev] Currently allocated     3.84E+01 Mbytes, locked:    0 /  14
[tb_pin] Currently allocated     0.00E+00 Mbytes, locked:    0 /   0

     iteration # 35     ecut=    90.00 Ry     beta= 0.40
     Davidson diagonalization with overlap

---- Real-time Memory Report at c_bands before calling an iterative solver
          9311 MiB given to the printing process from OS
           159 MiB allocation reported by mallinfo(arena+hblkhd)
         50019 MiB available memory on the node where the printing process lives
     GPU memory used/free/total (MiB): 8536 / 7744 / 16280
------------------
     ethr =  1.36E-07,  avg # of iterations =  1.0

     negative rho (up, down):  0.000E+00 9.699E-05

     total cpu time spent up to now is     1100.2 secs

     total energy              =    -617.59282629 Ry
     estimated scf accuracy    <       0.00014304 Ry

     total magnetization       =     4.14 Bohr mag/cell
     absolute magnetization    =     4.84 Bohr mag/cell
[tb_dev] Currently allocated     3.84E+01 Mbytes, locked:    0 /  14
[tb_pin] Currently allocated     0.00E+00 Mbytes, locked:    0 /   0

     iteration # 36     ecut=    90.00 Ry     beta= 0.40
     Davidson diagonalization with overlap

---- Real-time Memory Report at c_bands before calling an iterative solver
          9323 MiB given to the printing process from OS
           172 MiB allocation reported by mallinfo(arena+hblkhd)
         50004 MiB available memory on the node where the printing process lives
     GPU memory used/free/total (MiB): 8536 / 7744 / 16280
------------------
     ethr =  1.36E-07,  avg # of iterations =  1.0

     negative rho (up, down):  0.000E+00 9.681E-05

     total cpu time spent up to now is     1127.7 secs

     total energy              =    -617.59287140 Ry
     estimated scf accuracy    <       0.00008878 Ry

     total magnetization       =     4.15 Bohr mag/cell
     absolute magnetization    =     4.84 Bohr mag/cell
[tb_dev] Currently allocated     3.84E+01 Mbytes, locked:    0 /  14
[tb_pin] Currently allocated     0.00E+00 Mbytes, locked:    0 /   0

     iteration # 37     ecut=    90.00 Ry     beta= 0.40
     Davidson diagonalization with overlap

---- Real-time Memory Report at c_bands before calling an iterative solver
          9337 MiB given to the printing process from OS
           186 MiB allocation reported by mallinfo(arena+hblkhd)
         49992 MiB available memory on the node where the printing process lives
     GPU memory used/free/total (MiB): 8536 / 7744 / 16280
------------------
     ethr =  1.31E-07,  avg # of iterations =  1.1

     negative rho (up, down):  0.000E+00 9.678E-05

     total cpu time spent up to now is     1155.4 secs

     total energy              =    -617.59267682 Ry
     estimated scf accuracy    <       0.00016688 Ry

     total magnetization       =     4.14 Bohr mag/cell
     absolute magnetization    =     4.86 Bohr mag/cell
[tb_dev] Currently allocated     3.84E+01 Mbytes, locked:    0 /  14
[tb_pin] Currently allocated     0.00E+00 Mbytes, locked:    0 /   0

     iteration # 38     ecut=    90.00 Ry     beta= 0.40
     Davidson diagonalization with overlap

---- Real-time Memory Report at c_bands before calling an iterative solver
          9357 MiB given to the printing process from OS
           199 MiB allocation reported by mallinfo(arena+hblkhd)
         49963 MiB available memory on the node where the printing process lives
     GPU memory used/free/total (MiB): 8536 / 7744 / 16280
------------------
     ethr =  1.31E-07,  avg # of iterations =  2.0

     negative rho (up, down):  0.000E+00 9.672E-05

     total cpu time spent up to now is     1185.6 secs

     total energy              =    -617.59267011 Ry
     estimated scf accuracy    <       0.00012498 Ry

     total magnetization       =     4.14 Bohr mag/cell
     absolute magnetization    =     4.84 Bohr mag/cell
[tb_dev] Currently allocated     3.84E+01 Mbytes, locked:    0 /  14
[tb_pin] Currently allocated     0.00E+00 Mbytes, locked:    0 /   0

     iteration # 39     ecut=    90.00 Ry     beta= 0.40
     Davidson diagonalization with overlap

---- Real-time Memory Report at c_bands before calling an iterative solver
          9370 MiB given to the printing process from OS
           212 MiB allocation reported by mallinfo(arena+hblkhd)
         49947 MiB available memory on the node where the printing process lives
     GPU memory used/free/total (MiB): 8536 / 7744 / 16280
------------------
     ethr =  1.31E-07,  avg # of iterations =  1.0

     negative rho (up, down):  0.000E+00 9.681E-05

     total cpu time spent up to now is     1213.2 secs

     total energy              =    -617.59277646 Ry
     estimated scf accuracy    <       0.00012236 Ry

     total magnetization       =     4.14 Bohr mag/cell
     absolute magnetization    =     4.83 Bohr mag/cell
[tb_dev] Currently allocated     3.84E+01 Mbytes, locked:    0 /  14
[tb_pin] Currently allocated     0.00E+00 Mbytes, locked:    0 /   0

     iteration # 40     ecut=    90.00 Ry     beta= 0.40
     Davidson diagonalization with overlap

---- Real-time Memory Report at c_bands before calling an iterative solver
          9384 MiB given to the printing process from OS
           225 MiB allocation reported by mallinfo(arena+hblkhd)
         49937 MiB available memory on the node where the printing process lives
     GPU memory used/free/total (MiB): 8536 / 7744 / 16280
------------------
     ethr =  1.31E-07,  avg # of iterations =  1.3

     negative rho (up, down):  0.000E+00 9.671E-05

     total cpu time spent up to now is     1241.4 secs

     total energy              =    -617.59284086 Ry
     estimated scf accuracy    <       0.00013059 Ry

     total magnetization       =     4.14 Bohr mag/cell
     absolute magnetization    =     4.84 Bohr mag/cell
[tb_dev] Currently allocated     3.84E+01 Mbytes, locked:    0 /  14
[tb_pin] Currently allocated     0.00E+00 Mbytes, locked:    0 /   0

     iteration # 41     ecut=    90.00 Ry     beta= 0.40
     Davidson diagonalization with overlap

---- Real-time Memory Report at c_bands before calling an iterative solver
          9396 MiB given to the printing process from OS
           238 MiB allocation reported by mallinfo(arena+hblkhd)
         49908 MiB available memory on the node where the printing process lives
     GPU memory used/free/total (MiB): 8536 / 7744 / 16280
------------------
     ethr =  1.31E-07,  avg # of iterations =  1.5

     negative rho (up, down):  0.000E+00 9.682E-05

     total cpu time spent up to now is     1270.1 secs

     total energy              =    -617.59290050 Ry
     estimated scf accuracy    <       0.00015236 Ry

     total magnetization       =     4.14 Bohr mag/cell
     absolute magnetization    =     4.85 Bohr mag/cell
[tb_dev] Currently allocated     3.84E+01 Mbytes, locked:    0 /  14
[tb_pin] Currently allocated     0.00E+00 Mbytes, locked:    0 /   0

     iteration # 42     ecut=    90.00 Ry     beta= 0.40
     Davidson diagonalization with overlap

---- Real-time Memory Report at c_bands before calling an iterative solver
          9396 MiB given to the printing process from OS
           251 MiB allocation reported by mallinfo(arena+hblkhd)
         49901 MiB available memory on the node where the printing process lives
     GPU memory used/free/total (MiB): 8536 / 7744 / 16280
------------------
     ethr =  1.31E-07,  avg # of iterations =  1.0

     negative rho (up, down):  0.000E+00 9.679E-05

     total cpu time spent up to now is     1297.9 secs

     total energy              =    -617.59289709 Ry
     estimated scf accuracy    <       0.00014077 Ry

     total magnetization       =     4.14 Bohr mag/cell
     absolute magnetization    =     4.86 Bohr mag/cell
[tb_dev] Currently allocated     3.84E+01 Mbytes, locked:    0 /  14
[tb_pin] Currently allocated     0.00E+00 Mbytes, locked:    0 /   0

     iteration # 43     ecut=    90.00 Ry     beta= 0.40
     Davidson diagonalization with overlap

---- Real-time Memory Report at c_bands before calling an iterative solver
          9396 MiB given to the printing process from OS
           264 MiB allocation reported by mallinfo(arena+hblkhd)
         49894 MiB available memory on the node where the printing process lives
     GPU memory used/free/total (MiB): 8536 / 7744 / 16280
------------------
     ethr =  1.31E-07,  avg # of iterations =  1.0

     negative rho (up, down):  0.000E+00 9.643E-05

     total cpu time spent up to now is     1325.6 secs

     total energy              =    -617.59257577 Ry
     estimated scf accuracy    <       0.00014003 Ry

     total magnetization       =     4.14 Bohr mag/cell
     absolute magnetization    =     4.86 Bohr mag/cell
[tb_dev] Currently allocated     3.84E+01 Mbytes, locked:    0 /  14
[tb_pin] Currently allocated     0.00E+00 Mbytes, locked:    0 /   0

     iteration # 44     ecut=    90.00 Ry     beta= 0.40
     Davidson diagonalization with overlap

---- Real-time Memory Report at c_bands before calling an iterative solver
          9398 MiB given to the printing process from OS
           277 MiB allocation reported by mallinfo(arena+hblkhd)
         49879 MiB available memory on the node where the printing process lives
     GPU memory used/free/total (MiB): 8536 / 7744 / 16280
------------------
     ethr =  1.31E-07,  avg # of iterations =  2.0

     negative rho (up, down):  0.000E+00 9.595E-05

     total cpu time spent up to now is     1356.9 secs

     total energy              =    -617.59201186 Ry
     estimated scf accuracy    <       0.00015899 Ry

     total magnetization       =     4.13 Bohr mag/cell
     absolute magnetization    =     4.85 Bohr mag/cell
[tb_dev] Currently allocated     3.84E+01 Mbytes, locked:    0 /  14
[tb_pin] Currently allocated     0.00E+00 Mbytes, locked:    0 /   0

     iteration # 45     ecut=    90.00 Ry     beta= 0.40
     Davidson diagonalization with overlap

---- Real-time Memory Report at c_bands before calling an iterative solver
          9412 MiB given to the printing process from OS
           290 MiB allocation reported by mallinfo(arena+hblkhd)
         49870 MiB available memory on the node where the printing process lives
     GPU memory used/free/total (MiB): 8536 / 7744 / 16280
------------------
     ethr =  1.31E-07,  avg # of iterations =  2.3

     negative rho (up, down):  0.000E+00 9.668E-05

     total cpu time spent up to now is     1391.2 secs

     total energy              =    -617.59247416 Ry
     estimated scf accuracy    <       0.00019307 Ry

     total magnetization       =     4.13 Bohr mag/cell
     absolute magnetization    =     4.82 Bohr mag/cell
[tb_dev] Currently allocated     3.84E+01 Mbytes, locked:    0 /  14
[tb_pin] Currently allocated     0.00E+00 Mbytes, locked:    0 /   0

     iteration # 46     ecut=    90.00 Ry     beta= 0.40
     Davidson diagonalization with overlap

---- Real-time Memory Report at c_bands before calling an iterative solver
          9424 MiB given to the printing process from OS
           303 MiB allocation reported by mallinfo(arena+hblkhd)
         49855 MiB available memory on the node where the printing process lives
     GPU memory used/free/total (MiB): 8536 / 7744 / 16280
------------------
     ethr =  1.31E-07,  avg # of iterations =  2.0

     negative rho (up, down):  0.000E+00 9.533E-05

     total cpu time spent up to now is     1423.6 secs

     total energy              =    -617.59125297 Ry
     estimated scf accuracy    <       0.00016340 Ry

     total magnetization       =     4.15 Bohr mag/cell
     absolute magnetization    =     4.81 Bohr mag/cell
[tb_dev] Currently allocated     3.84E+01 Mbytes, locked:    0 /  14
[tb_pin] Currently allocated     0.00E+00 Mbytes, locked:    0 /   0

[...]

     total cpu time spent up to now is     2111.4 secs

     total energy              =    -617.59308731 Ry
     estimated scf accuracy    <       0.00039284 Ry

     total magnetization       =     4.14 Bohr mag/cell
     absolute magnetization    =     4.89 Bohr mag/cell
[tb_dev] Currently allocated     3.84E+01 Mbytes, locked:    0 /  14
[tb_pin] Currently allocated     0.00E+00 Mbytes, locked:    0 /   0

     iteration # 66     ecut=    90.00 Ry     beta= 0.40
     Davidson diagonalization with overlap

---- Real-time Memory Report at c_bands before calling an iterative solver
          9686 MiB given to the printing process from OS
           584 MiB allocation reported by mallinfo(arena+hblkhd)
         49569 MiB available memory on the node where the printing process lives
     GPU memory used/free/total (MiB): 8536 / 7744 / 16280
------------------
     ethr =  1.31E-07,  avg # of iterations =  2.3

     negative rho (up, down):  0.000E+00 9.739E-05

     total cpu time spent up to now is     2145.4 secs

     total energy              =    -617.59293999 Ry
     estimated scf accuracy    <       0.00012910 Ry

     total magnetization       =     4.15 Bohr mag/cell
     absolute magnetization    =     4.90 Bohr mag/cell
[tb_dev] Currently allocated     3.84E+01 Mbytes, locked:    0 /  14
[tb_pin] Currently allocated     0.00E+00 Mbytes, locked:    0 /   0

     iteration # 67     ecut=    90.00 Ry     beta= 0.40
     Davidson diagonalization with overlap

---- Real-time Memory Report at c_bands before calling an iterative solver
          9698 MiB given to the printing process from OS
           597 MiB allocation reported by mallinfo(arena+hblkhd)
         49559 MiB available memory on the node where the printing process lives
     GPU memory used/free/total (MiB): 8536 / 7744 / 16280
------------------
     ethr =  1.31E-07,  avg # of iterations =  2.0

     negative rho (up, down):  0.000E+00 9.810E-05

     total cpu time spent up to now is     2177.8 secs

     total energy              =    -617.59321139 Ry
     estimated scf accuracy    <       0.00014358 Ry

     total magnetization       =     4.15 Bohr mag/cell
     absolute magnetization    =     4.91 Bohr mag/cell
[tb_dev] Currently allocated     3.84E+01 Mbytes, locked:    0 /  14
[tb_pin] Currently allocated     0.00E+00 Mbytes, locked:    0 /   0

     iteration # 68     ecut=    90.00 Ry     beta= 0.40
     Davidson diagonalization with overlap

---- Real-time Memory Report at c_bands before calling an iterative solver
          9712 MiB given to the printing process from OS
           610 MiB allocation reported by mallinfo(arena+hblkhd)
         49544 MiB available memory on the node where the printing process lives
     GPU memory used/free/total (MiB): 8536 / 7744 / 16280
------------------
     ethr =  1.31E-07,  avg # of iterations =  2.0

     negative rho (up, down):  0.000E+00 9.879E-05

     total cpu time spent up to now is     2210.5 secs

     total energy              =    -617.59291404 Ry
     estimated scf accuracy    <       0.00012338 Ry

     total magnetization       =     4.15 Bohr mag/cell
     absolute magnetization    =     4.93 Bohr mag/cell
[tb_dev] Currently allocated     3.84E+01 Mbytes, locked:    0 /  14
[tb_pin] Currently allocated     0.00E+00 Mbytes, locked:    0 /   0

     iteration # 69     ecut=    90.00 Ry     beta= 0.40
     Davidson diagonalization with overlap

---- Real-time Memory Report at c_bands before calling an iterative solver
          9725 MiB given to the printing process from OS
           623 MiB allocation reported by mallinfo(arena+hblkhd)
         49530 MiB available memory on the node where the printing process lives
     GPU memory used/free/total (MiB): 8536 / 7744 / 16280
------------------
     ethr =  1.31E-07,  avg # of iterations =  3.0

     negative rho (up, down):  0.000E+00 9.981E-05

     total cpu time spent up to now is     2247.1 secs

     total energy              =    -617.59299061 Ry
     estimated scf accuracy    <       0.00008410 Ry

     total magnetization       =     4.16 Bohr mag/cell
     absolute magnetization    =     4.96 Bohr mag/cell
[tb_dev] Currently allocated     3.84E+01 Mbytes, locked:    0 /  14
[tb_pin] Currently allocated     0.00E+00 Mbytes, locked:    0 /   0

     iteration # 70     ecut=    90.00 Ry     beta= 0.40
     Davidson diagonalization with overlap

---- Real-time Memory Report at c_bands before calling an iterative solver
          9738 MiB given to the printing process from OS
           595 MiB allocation reported by mallinfo(arena+hblkhd)
         49560 MiB available memory on the node where the printing process lives
     GPU memory used/free/total (MiB): 8536 / 7744 / 16280
------------------
     ethr =  1.24E-07,  avg # of iterations =  3.4

     negative rho (up, down):  0.000E+00 1.001E-04

     total cpu time spent up to now is     2284.7 secs

     total energy              =    -617.59374750 Ry
     estimated scf accuracy    <       0.00018757 Ry

     total magnetization       =     4.17 Bohr mag/cell
     absolute magnetization    =     5.00 Bohr mag/cell
[tb_dev] Currently allocated     3.84E+01 Mbytes, locked:    0 /  14
[tb_pin] Currently allocated     0.00E+00 Mbytes, locked:    0 /   0

     iteration # 71     ecut=    90.00 Ry     beta= 0.40
     Davidson diagonalization with overlap

---- Real-time Memory Report at c_bands before calling an iterative solver
          9752 MiB given to the printing process from OS
           608 MiB allocation reported by mallinfo(arena+hblkhd)
         49547 MiB available memory on the node where the printing process lives
     GPU memory used/free/total (MiB): 8536 / 7744 / 16280
------------------
     ethr =  1.24E-07,  avg # of iterations =  2.3

     negative rho (up, down):  0.000E+00 9.958E-05

     total cpu time spent up to now is     2318.4 secs

     total energy              =    -617.59360360 Ry
     estimated scf accuracy    <       0.00009255 Ry

     total magnetization       =     4.16 Bohr mag/cell
     absolute magnetization    =     5.00 Bohr mag/cell
[tb_dev] Currently allocated     3.84E+01 Mbytes, locked:    0 /  14
[tb_pin] Currently allocated     0.00E+00 Mbytes, locked:    0 /   0

     iteration # 72     ecut=    90.00 Ry     beta= 0.40
     Davidson diagonalization with overlap

---- Real-time Memory Report at c_bands before calling an iterative solver
          9763 MiB given to the printing process from OS
           621 MiB allocation reported by mallinfo(arena+hblkhd)
         49535 MiB available memory on the node where the printing process lives
     GPU memory used/free/total (MiB): 8536 / 7744 / 16280
------------------
     ethr =  1.24E-07,  avg # of iterations =  2.0

     negative rho (up, down):  0.000E+00 1.000E-04

     total cpu time spent up to now is     2350.4 secs

     total energy              =    -617.59376138 Ry
     estimated scf accuracy    <       0.00015970 Ry

     total magnetization       =     4.16 Bohr mag/cell
     absolute magnetization    =     4.98 Bohr mag/cell
[tb_dev] Currently allocated     3.84E+01 Mbytes, locked:    0 /  14
[tb_pin] Currently allocated     0.00E+00 Mbytes, locked:    0 /   0

     iteration # 73     ecut=    90.00 Ry     beta= 0.40
     Davidson diagonalization with overlap

---- Real-time Memory Report at c_bands before calling an iterative solver
          9777 MiB given to the printing process from OS
           634 MiB allocation reported by mallinfo(arena+hblkhd)
         49519 MiB available memory on the node where the printing process lives
     GPU memory used/free/total (MiB): 8536 / 7744 / 16280
------------------
     ethr =  1.24E-07,  avg # of iterations =  1.7

     negative rho (up, down):  0.000E+00 1.003E-04

     total cpu time spent up to now is     2379.4 secs

     total energy              =    -617.59384060 Ry
     estimated scf accuracy    <       0.00024461 Ry

     total magnetization       =     4.16 Bohr mag/cell
     absolute magnetization    =     4.99 Bohr mag/cell
[tb_dev] Currently allocated     3.84E+01 Mbytes, locked:    0 /  14
[tb_pin] Currently allocated     0.00E+00 Mbytes, locked:    0 /   0

     iteration # 74     ecut=    90.00 Ry     beta= 0.40
     Davidson diagonalization with overlap

---- Real-time Memory Report at c_bands before calling an iterative solver
          9790 MiB given to the printing process from OS
           647 MiB allocation reported by mallinfo(arena+hblkhd)
         49507 MiB available memory on the node where the printing process lives
     GPU memory used/free/total (MiB): 8536 / 7744 / 16280
------------------
     ethr =  1.24E-07,  avg # of iterations =  2.0

     negative rho (up, down):  0.000E+00 1.003E-04

     total cpu time spent up to now is     2409.8 secs

     total energy              =    -617.59390803 Ry
     estimated scf accuracy    <       0.00018724 Ry

     total magnetization       =     4.16 Bohr mag/cell
     absolute magnetization    =     5.00 Bohr mag/cell
[tb_dev] Currently allocated     3.84E+01 Mbytes, locked:    0 /  14
[tb_pin] Currently allocated     0.00E+00 Mbytes, locked:    0 /   0

     iteration # 75     ecut=    90.00 Ry     beta= 0.40
     Davidson diagonalization with overlap

---- Real-time Memory Report at c_bands before calling an iterative solver
          9803 MiB given to the printing process from OS
           660 MiB allocation reported by mallinfo(arena+hblkhd)
         49499 MiB available memory on the node where the printing process lives
     GPU memory used/free/total (MiB): 8536 / 7744 / 16280
------------------
     ethr =  1.24E-07,  avg # of iterations =  1.0

     negative rho (up, down):  0.000E+00 1.010E-04

     total cpu time spent up to now is     2437.4 secs

     total energy              =    -617.59341562 Ry
     estimated scf accuracy    <       0.00024154 Ry

     total magnetization       =     4.16 Bohr mag/cell
     absolute magnetization    =     5.02 Bohr mag/cell
[tb_dev] Currently allocated     3.84E+01 Mbytes, locked:    0 /  14
[tb_pin] Currently allocated     0.00E+00 Mbytes, locked:    0 /   0

     iteration # 76     ecut=    90.00 Ry     beta= 0.40
     Davidson diagonalization with overlap

---- Real-time Memory Report at c_bands before calling an iterative solver
          9817 MiB given to the printing process from OS
           673 MiB allocation reported by mallinfo(arena+hblkhd)
         49482 MiB available memory on the node where the printing process lives
     GPU memory used/free/total (MiB): 8536 / 7744 / 16280
------------------
     ethr =  1.24E-07,  avg # of iterations =  3.1

     negative rho (up, down):  0.000E+00 1.009E-04

     total cpu time spent up to now is     2474.2 secs

     total energy              =    -617.59404903 Ry
     estimated scf accuracy    <       0.00009624 Ry

     total magnetization       =     4.17 Bohr mag/cell
     absolute magnetization    =     5.05 Bohr mag/cell
[tb_dev] Currently allocated     3.84E+01 Mbytes, locked:    0 /  14
[tb_pin] Currently allocated     0.00E+00 Mbytes, locked:    0 /   0

     iteration # 77     ecut=    90.00 Ry     beta= 0.40
     Davidson diagonalization with overlap

---- Real-time Memory Report at c_bands before calling an iterative solver
          9828 MiB given to the printing process from OS
           686 MiB allocation reported by mallinfo(arena+hblkhd)
         49471 MiB available memory on the node where the printing process lives
     GPU memory used/free/total (MiB): 8536 / 7744 / 16280
------------------
     ethr =  1.24E-07,  avg # of iterations =  2.0

     negative rho (up, down):  0.000E+00 1.012E-04

     total cpu time spent up to now is     2507.1 secs

     total energy              =    -617.59412237 Ry
     estimated scf accuracy    <       0.00040518 Ry

     total magnetization       =     4.16 Bohr mag/cell
     absolute magnetization    =     5.07 Bohr mag/cell
[tb_dev] Currently allocated     3.84E+01 Mbytes, locked:    0 /  14
[tb_pin] Currently allocated     0.00E+00 Mbytes, locked:    0 /   0

     iteration # 78     ecut=    90.00 Ry     beta= 0.40
     Davidson diagonalization with overlap

---- Real-time Memory Report at c_bands before calling an iterative solver
          9843 MiB given to the printing process from OS
           708 MiB allocation reported by mallinfo(arena+hblkhd)
         49449 MiB available memory on the node where the printing process lives
     GPU memory used/free/total (MiB): 8536 / 7744 / 16280
------------------
     ethr =  1.24E-07,  avg # of iterations =  2.0

     negative rho (up, down):  0.000E+00 1.016E-04

     total cpu time spent up to now is     2537.4 secs

     total energy              =    -617.59419527 Ry
     estimated scf accuracy    <       0.00026678 Ry

     total magnetization       =     4.17 Bohr mag/cell
     absolute magnetization    =     5.09 Bohr mag/cell
[tb_dev] Currently allocated     3.84E+01 Mbytes, locked:    0 /  14
[tb_pin] Currently allocated     0.00E+00 Mbytes, locked:    0 /   0

     iteration # 79     ecut=    90.00 Ry     beta= 0.40
     Davidson diagonalization with overlap

---- Real-time Memory Report at c_bands before calling an iterative solver
          9856 MiB given to the printing process from OS
           721 MiB allocation reported by mallinfo(arena+hblkhd)
         49435 MiB available memory on the node where the printing process lives
     GPU memory used/free/total (MiB): 8536 / 7744 / 16280
------------------
     ethr =  1.24E-07,  avg # of iterations =  2.0

     negative rho (up, down):  0.000E+00 1.017E-04

     total cpu time spent up to now is     2567.8 secs

     total energy              =    -617.59426157 Ry
     estimated scf accuracy    <       0.00010609 Ry

     total magnetization       =     4.17 Bohr mag/cell
     absolute magnetization    =     5.09 Bohr mag/cell
[tb_dev] Currently allocated     3.84E+01 Mbytes, locked:    0 /  14
[tb_pin] Currently allocated     0.00E+00 Mbytes, locked:    0 /   0

     iteration # 80     ecut=    90.00 Ry     beta= 0.40
     Davidson diagonalization with overlap

---- Real-time Memory Report at c_bands before calling an iterative solver
          9868 MiB given to the printing process from OS
           734 MiB allocation reported by mallinfo(arena+hblkhd)
         49427 MiB available memory on the node where the printing process lives
     GPU memory used/free/total (MiB): 8536 / 7744 / 16280
------------------
     ethr =  1.24E-07,  avg # of iterations =  1.0

     negative rho (up, down):  0.000E+00 1.020E-04

     total cpu time spent up to now is     2595.5 secs

     total energy              =    -617.59427644 Ry
     estimated scf accuracy    <       0.00016577 Ry

     total magnetization       =     4.17 Bohr mag/cell
     absolute magnetization    =     5.10 Bohr mag/cell

     End of self-consistent calculation

     convergence NOT achieved after  80 iterations: stopping

     Writing config to output data dir ./out/aiida.save/
 
     init_run     :     86.16s CPU     41.84s WALL (       1 calls)
     electrons    :   3468.82s CPU   2552.92s WALL (       1 calls)

     Called by init_run:
     wfcinit      :     20.07s CPU     23.91s WALL (       1 calls)
                                       23.91s GPU  (       1 calls)
     wfcinit:atom :      0.15s CPU      0.53s WALL (     326 calls)
                                        0.53s GPU  (     326 calls)
     wfcinit:wfcr :      9.86s CPU     10.89s WALL (     326 calls)
                                       10.89s GPU  (     326 calls)
     potinit      :     39.26s CPU      3.51s WALL (       1 calls)
     hinit0       :     18.63s CPU     12.14s WALL (       1 calls)

     Called by electrons:
     c_bands      :   1842.35s CPU   1948.30s WALL (      80 calls)
     sum_band     :    445.83s CPU    465.04s WALL (      80 calls)
     v_of_rho     :     92.27s CPU     16.93s WALL (      81 calls)
     v_h          :     31.60s CPU      3.06s WALL (      81 calls)
     v_xc         :     60.67s CPU     13.87s WALL (      81 calls)
     newd         :    191.45s CPU     36.42s WALL (      81 calls)
                                       36.42s GPU  (      81 calls)
     PAW_pot      :    701.70s CPU     64.64s WALL (      81 calls)
     mix_rho      :    148.96s CPU     15.14s WALL (      80 calls)

     Called by c_bands:
     init_us_2    :     75.25s CPU    103.47s WALL (   52486 calls)
     init_us_2:gp :     74.20s CPU    102.46s WALL (   52486 calls)
     cegterg      :   1437.28s CPU   1497.69s WALL (   26080 calls)

     Called by sum_band:
     sum_band:wei :      1.07s CPU      1.08s WALL (      80 calls)
                                        1.07s GPU  (      80 calls)
     sum_band:loo :    409.55s CPU    428.61s WALL (      80 calls)
                                      428.61s GPU  (      80 calls)
     sum_band:buf :    159.81s CPU    162.64s WALL (   26080 calls)
                                      162.47s GPU  (   26080 calls)
     sum_band:ini :     36.25s CPU     42.45s WALL (   26080 calls)
                                       42.30s GPU  (   26080 calls)
     sum_band:cal :      1.07s CPU     25.07s WALL (   26080 calls)
                                       17.28s GPU  (   26080 calls)
     sum_band:bec :      8.20s CPU      8.68s WALL (   26080 calls)
                                        8.50s GPU  (   26080 calls)
     addusdens    :     30.05s CPU     30.17s WALL (      80 calls)
                                       30.17s GPU  (      80 calls)
     addusd:skk   :      0.11s CPU      0.11s WALL (     240 calls)
                                        0.10s GPU  (     240 calls)

     Called by *egterg:
     cdiaghg      :    220.49s CPU    255.77s WALL (   82527 calls)
                                      255.21s GPU  (   82527 calls)
     cegterg:over :     39.29s CPU     40.52s WALL (   56447 calls)
     cegterg:upda :     37.98s CPU     41.16s WALL (   56447 calls)
     cegterg:last :     33.32s CPU     34.06s WALL (   45219 calls)
     h_psi        :    999.86s CPU   1017.30s WALL (   82853 calls)
                                     1014.76s GPU  (   82853 calls)
     s_psi        :     15.28s CPU     56.93s WALL (   82853 calls)
                                       51.61s GPU  (   82853 calls)
     g_psi        :      0.40s CPU      5.65s WALL (   56447 calls)
                                        5.29s GPU  (   56447 calls)

     Called by h_psi:
     h_psi:calbec :      3.00s CPU     48.65s WALL (   82853 calls)
                                       48.11s GPU  (   82853 calls)
     vloc_psi     :    881.03s CPU    895.92s WALL (   82853 calls)
                                      895.40s GPU  (   82853 calls)
     add_vuspsi   :     21.41s CPU     60.16s WALL (   82853 calls)
                                       59.62s GPU  (   82853 calls)

     General routines
     calbec       :      3.03s CPU      3.13s WALL (  108933 calls)
     fft          :      9.51s CPU      2.01s WALL (    2023 calls)
                                        1.36s GPU  (    1861 calls)
     ffts         :      0.44s CPU      0.13s WALL (     322 calls)
                                        0.03s GPU  (     160 calls)
     fftw         :      9.21s CPU    760.14s WALL (  479062 calls)
                                      754.74s GPU  (  479062 calls)
     interpolate  :     27.32s CPU      2.38s WALL (     162 calls)
     davcio       :      0.21s CPU      4.31s WALL (     344 calls)
 
     Parallel routines

     PAW routines
     PAW_pot      :    701.70s CPU     64.64s WALL (      81 calls)
 
     PWSCF        :  59m18.76s CPU  43m21.10s WALL

 
   This run was terminated on:  17:55:20  22Oct2023            

=------------------------------------------------------------------------------=
   JOB DONE.
=------------------------------------------------------------------------------=
