
     Program PWSCF v.7.2 starts on 23Oct2023 at 22:18:42 

     This program is part of the open-source Quantum ESPRESSO suite
     for quantum simulation of materials; please cite
         "P. Giannozzi et al., J. Phys.:Condens. Matter 21 395502 (2009);
         "P. Giannozzi et al., J. Phys.:Condens. Matter 29 465901 (2017);
         "P. Giannozzi et al., J. Chem. Phys. 152 154105 (2020);
          URL http://www.quantum-espresso.org", 
     in publications or presentations arising from this work. More details at
     http://www.quantum-espresso.org/quote

     Parallel version (MPI & OpenMP), running on      12 processor cores
     Number of MPI processes:                 1
     Threads/MPI process:                    12

     MPI processes distributed on     1 nodes
     60305 MiB available memory on the printing compute node when the environment starts
 
     Reading input from aiida.in

     Current dimensions of program PWSCF are:
     Max number of different atomic species (ntypx) = 10
     Max number of k-points (npk) =  40000
     Max angular momentum in pseudopotentials (lmaxx) =  4
     file Fe.pbesol-spn-kjpaw_psl.0.2.1.UPF: wavefunction(s)  3D renormalized
     Message from routine setup:
     using ibrav=0 with symmetry is DISCOURAGED, use correct ibrav instead
 
     Subspace diagonalization in iterative solution of the eigenvalue problem:
     a serial algorithm will be used

 
     G-vector sticks info
     --------------------
     sticks:   dense  smooth     PW     G-vecs:    dense   smooth      PW
     Sum        4507    1507    433               310909    59765    9079
 
     Using Slab Decomposition
 


     bravais-lattice index     =            0
     lattice parameter (alat)  =       7.7706  a.u.
     unit-cell volume          =     518.0008 (a.u.)^3
     number of atoms/cell      =            6
     number of atomic types    =            3
     number of electrons       =        90.00
     number of Kohn-Sham states=           54
     kinetic-energy cutoff     =      90.0000  Ry
     charge density cutoff     =    1080.0000  Ry
     scf convergence threshold =      1.2E-09
     mixing beta               =       0.2000
     number of iterations used =            8  plain     mixing
     Exchange-correlation= SLA  PW   PSX  PSC
                           (   1   4  10   8   0   0   0)

     GPU acceleration is ACTIVE.


     GPU used by master process:

        Device Number: 0
        Device name: Tesla P100-PCIE-16GB
        Compute capability : 60
        Ratio of single to double precision performance  : 2
        Memory Clock Rate (KHz): 715000
        Memory Bus Width (bits): 4096
        Peak Memory Bandwidth (GB/s): 732.16

     celldm(1)=   7.770554  celldm(2)=   0.000000  celldm(3)=   0.000000
     celldm(4)=   0.000000  celldm(5)=   0.000000  celldm(6)=   0.000000

     crystal axes: (cart. coord. in units of alat)
               a(1) = (   1.000000   0.000000   0.000000 )  
               a(2) = (  -0.500000   0.866025   0.000000 )  
               a(3) = (   0.000000   0.000000   1.274805 )  

     reciprocal axes: (cart. coord. in units 2 pi/alat)
               b(1) = (  1.000000  0.577350 -0.000000 )  
               b(2) = (  0.000000  1.154701  0.000000 )  
               b(3) = (  0.000000 -0.000000  0.784433 )  


     PseudoPot. # 1 for Fe read from file:
     ./pseudo/Fe.pbesol-spn-kjpaw_psl.0.2.1.UPF
     MD5 check sum: 4d7ec5aa2156491519a4322664fbbf52
     Pseudo is Projector augmented-wave + core cor, Zval = 16.0
     Generated using "atomic" code by A. Dal Corso  v.6.0 svn rev. 13079
     Shape of augmentation charge: PSQ
     Using radial grid of 1191 points,  6 beta functions with: 
                l(1) =   0
                l(2) =   0
                l(3) =   1
                l(4) =   1
                l(5) =   2
                l(6) =   2
     Q(r) pseudized with 0 coefficients 


     PseudoPot. # 2 for Ge read from file:
     ./pseudo/ge_pbesol_v1.4.uspp.F.UPF
     MD5 check sum: 7bed0412183f5e553a4d27ec7023354d
     Pseudo is Ultrasoft + core correction, Zval = 14.0
     Generated by new atomic code, or converted to UPF format
     Using radial grid of  873 points,  6 beta functions with: 
                l(1) =   0
                l(2) =   0
                l(3) =   1
                l(4) =   1
                l(5) =   2
                l(6) =   2
     Q(r) pseudized with  8 coefficients,  rinner =    1.400   1.400   1.400
                                                       1.400   1.400

     PseudoPot. # 3 for Mn read from file:
     ./pseudo/mn_pbesol_v1.5.uspp.F.UPF
     MD5 check sum: 0716d5f563e6e95a34f9080f4c78c109
     Pseudo is Ultrasoft + core correction, Zval = 15.0
     Generated by new atomic code, or converted to UPF format
     Using radial grid of  859 points,  6 beta functions with: 
                l(1) =   0
                l(2) =   0
                l(3) =   1
                l(4) =   1
                l(5) =   2
                l(6) =   2
     Q(r) pseudized with  8 coefficients,  rinner =    0.950   0.950   0.950
                                                       0.950   0.950

     atomic species   valence    mass     pseudopotential
        Fe            16.00    55.84500     Fe( 1.00)
        Ge            14.00    72.64000     Ge( 1.00)
        Mn            15.00    54.93805     Mn( 1.00)

     Starting magnetic structure 
     atomic species   magnetization
        Fe           0.313
        Ge           0.100
        Mn           0.333

     24 Sym. Ops., with inversion, found (12 have fractional translation)


                                    s                        frac. trans.

      isym =  1     identity                                     

 cryst.   s( 1) = (     1          0          0      )
                  (     0          1          0      )
                  (     0          0          1      )

 cart.    s( 1) = (  1.0000000  0.0000000  0.0000000 )
                  (  0.0000000  1.0000000  0.0000000 )
                  (  0.0000000  0.0000000  1.0000000 )


      isym =  2     180 deg rotation - cart. axis [0,0,1]        

 cryst.   s( 2) = (    -1          0          0      )    f =(  0.0000000 )
                  (     0         -1          0      )       (  0.0000000 )
                  (     0          0          1      )       (  0.5000000 )

 cart.    s( 2) = ( -1.0000000  0.0000000  0.0000000 )    f =(  0.0000000 )
                  (  0.0000000 -1.0000000  0.0000000 )       (  0.0000000 )
                  (  0.0000000  0.0000000  1.0000000 )       (  0.6374027 )


      isym =  3     180 deg rotation - cart. axis [0,1,0]        

 cryst.   s( 3) = (    -1          0          0      )    f =(  0.0000000 )
                  (     1          1          0      )       (  0.0000000 )
                  (     0          0         -1      )       (  0.5000000 )

 cart.    s( 3) = ( -1.0000000  0.0000000  0.0000000 )    f =(  0.0000000 )
                  (  0.0000000  1.0000000  0.0000000 )       (  0.0000000 )
                  (  0.0000000  0.0000000 -1.0000000 )       (  0.6374027 )


      isym =  4     180 deg rotation - cart. axis [1,0,0]        

 cryst.   s( 4) = (     1          0          0      )
                  (    -1         -1          0      )
                  (     0          0         -1      )

 cart.    s( 4) = (  1.0000000  0.0000000  0.0000000 )
                  (  0.0000000 -1.0000000  0.0000000 )
                  (  0.0000000  0.0000000 -1.0000000 )


      isym =  5      60 deg rotation - cryst. axis [0,0,1]       

 cryst.   s( 5) = (     1          1          0      )    f =(  0.0000000 )
                  (    -1          0          0      )       (  0.0000000 )
                  (     0          0          1      )       (  0.5000000 )

 cart.    s( 5) = (  0.5000000 -0.8660254  0.0000000 )    f =(  0.0000000 )
                  (  0.8660254  0.5000000  0.0000000 )       (  0.0000000 )
                  (  0.0000000  0.0000000  1.0000000 )       (  0.6374027 )


      isym =  6      60 deg rotation - cryst. axis [0,0,-1]      

 cryst.   s( 6) = (     0         -1          0      )    f =(  0.0000000 )
                  (     1          1          0      )       (  0.0000000 )
                  (     0          0          1      )       (  0.5000000 )

 cart.    s( 6) = (  0.5000000  0.8660254  0.0000000 )    f =(  0.0000000 )
                  ( -0.8660254  0.5000000  0.0000000 )       (  0.0000000 )
                  (  0.0000000  0.0000000  1.0000000 )       (  0.6374027 )


      isym =  7     120 deg rotation - cryst. axis [0,0,1]       

 cryst.   s( 7) = (     0          1          0      )
                  (    -1         -1          0      )
                  (     0          0          1      )

 cart.    s( 7) = ( -0.5000000 -0.8660254  0.0000000 )
                  (  0.8660254 -0.5000000  0.0000000 )
                  (  0.0000000  0.0000000  1.0000000 )


      isym =  8     120 deg rotation - cryst. axis [0,0,-1]      

 cryst.   s( 8) = (    -1         -1          0      )
                  (     1          0          0      )
                  (     0          0          1      )

 cart.    s( 8) = ( -0.5000000  0.8660254  0.0000000 )
                  ( -0.8660254 -0.5000000  0.0000000 )
                  (  0.0000000  0.0000000  1.0000000 )


      isym =  9     180 deg rotation - cryst. axis [1,-1,0]      

 cryst.   s( 9) = (     0         -1          0      )    f =(  0.0000000 )
                  (    -1          0          0      )       (  0.0000000 )
                  (     0          0         -1      )       (  0.5000000 )

 cart.    s( 9) = (  0.5000000 -0.8660254  0.0000000 )    f =(  0.0000000 )
                  ( -0.8660254 -0.5000000  0.0000000 )       (  0.0000000 )
                  (  0.0000000  0.0000000 -1.0000000 )       (  0.6374027 )


      isym = 10     180 deg rotation - cryst. axis [2,1,0]       

 cryst.   s(10) = (     1          1          0      )    f =(  0.0000000 )
                  (     0         -1          0      )       (  0.0000000 )
                  (     0          0         -1      )       (  0.5000000 )

 cart.    s(10) = (  0.5000000  0.8660254  0.0000000 )    f =(  0.0000000 )
                  (  0.8660254 -0.5000000  0.0000000 )       (  0.0000000 )
                  (  0.0000000  0.0000000 -1.0000000 )       (  0.6374027 )


      isym = 11     180 deg rotation - cryst. axis [0,1,0]       

 cryst.   s(11) = (    -1         -1          0      )
                  (     0          1          0      )
                  (     0          0         -1      )

 cart.    s(11) = ( -0.5000000 -0.8660254  0.0000000 )
                  ( -0.8660254  0.5000000  0.0000000 )
                  (  0.0000000  0.0000000 -1.0000000 )


      isym = 12     180 deg rotation - cryst. axis [1,1,0]       

 cryst.   s(12) = (     0          1          0      )
                  (     1          0          0      )
                  (     0          0         -1      )

 cart.    s(12) = ( -0.5000000  0.8660254  0.0000000 )
                  (  0.8660254  0.5000000  0.0000000 )
                  (  0.0000000  0.0000000 -1.0000000 )


      isym = 13     inversion                                    

 cryst.   s(13) = (    -1          0          0      )
                  (     0         -1          0      )
                  (     0          0         -1      )

 cart.    s(13) = ( -1.0000000  0.0000000  0.0000000 )
                  (  0.0000000 -1.0000000  0.0000000 )
                  (  0.0000000  0.0000000 -1.0000000 )


      isym = 14     inv. 180 deg rotation - cart. axis [0,0,1]   

 cryst.   s(14) = (     1          0          0      )    f =(  0.0000000 )
                  (     0          1          0      )       (  0.0000000 )
                  (     0          0         -1      )       (  0.5000000 )

 cart.    s(14) = (  1.0000000  0.0000000  0.0000000 )    f =(  0.0000000 )
                  (  0.0000000  1.0000000  0.0000000 )       (  0.0000000 )
                  (  0.0000000  0.0000000 -1.0000000 )       (  0.6374027 )


      isym = 15     inv. 180 deg rotation - cart. axis [0,1,0]   

 cryst.   s(15) = (     1          0          0      )    f =(  0.0000000 )
                  (    -1         -1          0      )       (  0.0000000 )
                  (     0          0          1      )       (  0.5000000 )

 cart.    s(15) = (  1.0000000  0.0000000  0.0000000 )    f =(  0.0000000 )
                  (  0.0000000 -1.0000000  0.0000000 )       (  0.0000000 )
                  (  0.0000000  0.0000000  1.0000000 )       (  0.6374027 )


      isym = 16     inv. 180 deg rotation - cart. axis [1,0,0]   

 cryst.   s(16) = (    -1          0          0      )
                  (     1          1          0      )
                  (     0          0          1      )

 cart.    s(16) = ( -1.0000000  0.0000000  0.0000000 )
                  (  0.0000000  1.0000000  0.0000000 )
                  (  0.0000000  0.0000000  1.0000000 )


      isym = 17     inv.  60 deg rotation - cryst. axis [0,0,1]  

 cryst.   s(17) = (    -1         -1          0      )    f =(  0.0000000 )
                  (     1          0          0      )       (  0.0000000 )
                  (     0          0         -1      )       (  0.5000000 )

 cart.    s(17) = ( -0.5000000  0.8660254  0.0000000 )    f =(  0.0000000 )
                  ( -0.8660254 -0.5000000  0.0000000 )       (  0.0000000 )
                  (  0.0000000  0.0000000 -1.0000000 )       (  0.6374027 )


      isym = 18     inv.  60 deg rotation - cryst. axis [0,0,-1] 

 cryst.   s(18) = (     0          1          0      )    f =(  0.0000000 )
                  (    -1         -1          0      )       (  0.0000000 )
                  (     0          0         -1      )       (  0.5000000 )

 cart.    s(18) = ( -0.5000000 -0.8660254  0.0000000 )    f =(  0.0000000 )
                  (  0.8660254 -0.5000000  0.0000000 )       (  0.0000000 )
                  (  0.0000000  0.0000000 -1.0000000 )       (  0.6374027 )


      isym = 19     inv. 120 deg rotation - cryst. axis [0,0,1]  

 cryst.   s(19) = (     0         -1          0      )
                  (     1          1          0      )
                  (     0          0         -1      )

 cart.    s(19) = (  0.5000000  0.8660254  0.0000000 )
                  ( -0.8660254  0.5000000  0.0000000 )
                  (  0.0000000  0.0000000 -1.0000000 )


      isym = 20     inv. 120 deg rotation - cryst. axis [0,0,-1] 

 cryst.   s(20) = (     1          1          0      )
                  (    -1          0          0      )
                  (     0          0         -1      )

 cart.    s(20) = (  0.5000000 -0.8660254  0.0000000 )
                  (  0.8660254  0.5000000  0.0000000 )
                  (  0.0000000  0.0000000 -1.0000000 )


      isym = 21     inv. 180 deg rotation - cryst. axis [1,-1,0] 

 cryst.   s(21) = (     0          1          0      )    f =(  0.0000000 )
                  (     1          0          0      )       (  0.0000000 )
                  (     0          0          1      )       (  0.5000000 )

 cart.    s(21) = ( -0.5000000  0.8660254  0.0000000 )    f =(  0.0000000 )
                  (  0.8660254  0.5000000  0.0000000 )       (  0.0000000 )
                  (  0.0000000  0.0000000  1.0000000 )       (  0.6374027 )


      isym = 22     inv. 180 deg rotation - cryst. axis [2,1,0]  

 cryst.   s(22) = (    -1         -1          0      )    f =(  0.0000000 )
                  (     0          1          0      )       (  0.0000000 )
                  (     0          0          1      )       (  0.5000000 )

 cart.    s(22) = ( -0.5000000 -0.8660254  0.0000000 )    f =(  0.0000000 )
                  ( -0.8660254  0.5000000  0.0000000 )       (  0.0000000 )
                  (  0.0000000  0.0000000  1.0000000 )       (  0.6374027 )


      isym = 23     inv. 180 deg rotation - cryst. axis [0,1,0]  

 cryst.   s(23) = (     1          1          0      )
                  (     0         -1          0      )
                  (     0          0          1      )

 cart.    s(23) = (  0.5000000  0.8660254  0.0000000 )
                  (  0.8660254 -0.5000000  0.0000000 )
                  (  0.0000000  0.0000000  1.0000000 )


      isym = 24     inv. 180 deg rotation - cryst. axis [1,1,0]  

 cryst.   s(24) = (     0         -1          0      )
                  (    -1          0          0      )
                  (     0          0          1      )

 cart.    s(24) = (  0.5000000 -0.8660254  0.0000000 )
                  ( -0.8660254 -0.5000000  0.0000000 )
                  (  0.0000000  0.0000000  1.0000000 )


   Cartesian axes

     site n.     atom                  positions (alat units)
         1           Mn  tau(   1) = (   0.0000000   0.0000000   0.6374027  )
         2           Mn  tau(   2) = (   0.0000000   0.0000000   0.0000000  )
         3           Fe  tau(   3) = (   0.0000000   0.5773503   0.9561041  )
         4           Fe  tau(   4) = (   0.5000000   0.2886751   0.3187014  )
         5           Ge  tau(   5) = (   0.0000000   0.5773503   0.3187014  )
         6           Ge  tau(   6) = (   0.5000000   0.2886751   0.9561041  )

   Crystallographic axes

     site n.     atom                  positions (cryst. coord.)
         1           Mn  tau(   1) = (  0.0000000  0.0000000  0.5000000  )
         2           Mn  tau(   2) = (  0.0000000  0.0000000  0.0000000  )
         3           Fe  tau(   3) = (  0.3333333  0.6666667  0.7500000  )
         4           Fe  tau(   4) = (  0.6666667  0.3333333  0.2500000  )
         5           Ge  tau(   5) = (  0.3333333  0.6666667  0.2500000  )
         6           Ge  tau(   6) = (  0.6666667  0.3333333  0.7500000  )

     number of k points=    95  Marzari-Vanderbilt smearing, width (Ry)=  0.0100
                       cart. coord. in units 2pi/alat
        k(    1) = (   0.0000000   0.0000000   0.0000000), wk =   0.0008681
        k(    2) = (   0.0000000   0.0000000   0.0980542), wk =   0.0017361
        k(    3) = (   0.0000000   0.0000000   0.1961084), wk =   0.0017361
        k(    4) = (   0.0000000   0.0000000   0.2941625), wk =   0.0017361
        k(    5) = (   0.0000000   0.0000000  -0.3922167), wk =   0.0008681
        k(    6) = (   0.0000000   0.0962250   0.0000000), wk =   0.0052083
        k(    7) = (   0.0000000   0.0962250   0.0980542), wk =   0.0104167
        k(    8) = (   0.0000000   0.0962250   0.1961084), wk =   0.0104167
        k(    9) = (   0.0000000   0.0962250   0.2941625), wk =   0.0104167
        k(   10) = (   0.0000000   0.0962250  -0.3922167), wk =   0.0052083
        k(   11) = (   0.0000000   0.1924501   0.0000000), wk =   0.0052083
        k(   12) = (   0.0000000   0.1924501   0.0980542), wk =   0.0104167
        k(   13) = (   0.0000000   0.1924501   0.1961084), wk =   0.0104167
        k(   14) = (   0.0000000   0.1924501   0.2941625), wk =   0.0104167
        k(   15) = (   0.0000000   0.1924501  -0.3922167), wk =   0.0052083
        k(   16) = (   0.0000000   0.2886751   0.0000000), wk =   0.0052083
        k(   17) = (   0.0000000   0.2886751   0.0980542), wk =   0.0104167
        k(   18) = (   0.0000000   0.2886751   0.1961084), wk =   0.0104167
        k(   19) = (   0.0000000   0.2886751   0.2941625), wk =   0.0104167
        k(   20) = (   0.0000000   0.2886751  -0.3922167), wk =   0.0052083
        k(   21) = (   0.0000000   0.3849002   0.0000000), wk =   0.0052083
        k(   22) = (   0.0000000   0.3849002   0.0980542), wk =   0.0104167
        k(   23) = (   0.0000000   0.3849002   0.1961084), wk =   0.0104167
        k(   24) = (   0.0000000   0.3849002   0.2941625), wk =   0.0104167
        k(   25) = (   0.0000000   0.3849002  -0.3922167), wk =   0.0052083
        k(   26) = (   0.0000000   0.4811252   0.0000000), wk =   0.0052083
        k(   27) = (   0.0000000   0.4811252   0.0980542), wk =   0.0104167
        k(   28) = (   0.0000000   0.4811252   0.1961084), wk =   0.0104167
        k(   29) = (   0.0000000   0.4811252   0.2941625), wk =   0.0104167
        k(   30) = (   0.0000000   0.4811252  -0.3922167), wk =   0.0052083
        k(   31) = (   0.0000000  -0.5773503   0.0000000), wk =   0.0026042
        k(   32) = (   0.0000000  -0.5773503   0.0980542), wk =   0.0052083
        k(   33) = (   0.0000000  -0.5773503   0.1961084), wk =   0.0052083
        k(   34) = (   0.0000000  -0.5773503   0.2941625), wk =   0.0052083
        k(   35) = (   0.0000000  -0.5773503  -0.3922167), wk =   0.0026042
        k(   36) = (   0.0833333   0.1443376   0.0000000), wk =   0.0052083
        k(   37) = (   0.0833333   0.1443376   0.0980542), wk =   0.0104167
        k(   38) = (   0.0833333   0.1443376   0.1961084), wk =   0.0104167
        k(   39) = (   0.0833333   0.1443376   0.2941625), wk =   0.0104167
        k(   40) = (   0.0833333   0.1443376  -0.3922167), wk =   0.0052083
        k(   41) = (   0.0833333   0.2405626   0.0000000), wk =   0.0104167
        k(   42) = (   0.0833333   0.2405626   0.0980542), wk =   0.0208333
        k(   43) = (   0.0833333   0.2405626   0.1961084), wk =   0.0208333
        k(   44) = (   0.0833333   0.2405626   0.2941625), wk =   0.0208333
        k(   45) = (   0.0833333   0.2405626  -0.3922167), wk =   0.0104167
        k(   46) = (   0.0833333   0.3367877   0.0000000), wk =   0.0104167
        k(   47) = (   0.0833333   0.3367877   0.0980542), wk =   0.0208333
        k(   48) = (   0.0833333   0.3367877   0.1961084), wk =   0.0208333
        k(   49) = (   0.0833333   0.3367877   0.2941625), wk =   0.0208333
        k(   50) = (   0.0833333   0.3367877  -0.3922167), wk =   0.0104167
        k(   51) = (   0.0833333   0.4330127   0.0000000), wk =   0.0104167
        k(   52) = (   0.0833333   0.4330127   0.0980542), wk =   0.0208333
        k(   53) = (   0.0833333   0.4330127   0.1961084), wk =   0.0208333
        k(   54) = (   0.0833333   0.4330127   0.2941625), wk =   0.0208333
        k(   55) = (   0.0833333   0.4330127  -0.3922167), wk =   0.0104167
        k(   56) = (   0.0833333   0.5292377   0.0000000), wk =   0.0104167
        k(   57) = (   0.0833333   0.5292377   0.0980542), wk =   0.0208333
        k(   58) = (   0.0833333   0.5292377   0.1961084), wk =   0.0208333
        k(   59) = (   0.0833333   0.5292377   0.2941625), wk =   0.0208333
        k(   60) = (   0.0833333   0.5292377  -0.3922167), wk =   0.0104167
        k(   61) = (   0.1666667   0.2886751   0.0000000), wk =   0.0052083
        k(   62) = (   0.1666667   0.2886751   0.0980542), wk =   0.0104167
        k(   63) = (   0.1666667   0.2886751   0.1961084), wk =   0.0104167
        k(   64) = (   0.1666667   0.2886751   0.2941625), wk =   0.0104167
        k(   65) = (   0.1666667   0.2886751  -0.3922167), wk =   0.0052083
        k(   66) = (   0.1666667   0.3849002   0.0000000), wk =   0.0104167
        k(   67) = (   0.1666667   0.3849002   0.0980542), wk =   0.0208333
        k(   68) = (   0.1666667   0.3849002   0.1961084), wk =   0.0208333
        k(   69) = (   0.1666667   0.3849002   0.2941625), wk =   0.0208333
        k(   70) = (   0.1666667   0.3849002  -0.3922167), wk =   0.0104167
        k(   71) = (   0.1666667   0.4811252   0.0000000), wk =   0.0104167
        k(   72) = (   0.1666667   0.4811252   0.0980542), wk =   0.0208333
        k(   73) = (   0.1666667   0.4811252   0.1961084), wk =   0.0208333
        k(   74) = (   0.1666667   0.4811252   0.2941625), wk =   0.0208333
        k(   75) = (   0.1666667   0.4811252  -0.3922167), wk =   0.0104167
        k(   76) = (   0.1666667   0.5773503   0.0000000), wk =   0.0052083
        k(   77) = (   0.1666667   0.5773503   0.0980542), wk =   0.0104167
        k(   78) = (   0.1666667   0.5773503   0.1961084), wk =   0.0104167
        k(   79) = (   0.1666667   0.5773503   0.2941625), wk =   0.0104167
        k(   80) = (   0.1666667   0.5773503  -0.3922167), wk =   0.0052083
        k(   81) = (   0.2500000   0.4330127   0.0000000), wk =   0.0052083
        k(   82) = (   0.2500000   0.4330127   0.0980542), wk =   0.0104167
        k(   83) = (   0.2500000   0.4330127   0.1961084), wk =   0.0104167
        k(   84) = (   0.2500000   0.4330127   0.2941625), wk =   0.0104167
        k(   85) = (   0.2500000   0.4330127  -0.3922167), wk =   0.0052083
        k(   86) = (   0.2500000   0.5292377   0.0000000), wk =   0.0104167
        k(   87) = (   0.2500000   0.5292377   0.0980542), wk =   0.0208333
        k(   88) = (   0.2500000   0.5292377   0.1961084), wk =   0.0208333
        k(   89) = (   0.2500000   0.5292377   0.2941625), wk =   0.0208333
        k(   90) = (   0.2500000   0.5292377  -0.3922167), wk =   0.0104167
        k(   91) = (   0.3333333   0.5773503   0.0000000), wk =   0.0017361
        k(   92) = (   0.3333333   0.5773503   0.0980542), wk =   0.0034722
        k(   93) = (   0.3333333   0.5773503   0.1961084), wk =   0.0034722
        k(   94) = (   0.3333333   0.5773503   0.2941625), wk =   0.0034722
        k(   95) = (   0.3333333   0.5773503  -0.3922167), wk =   0.0017361

                       cryst. coord.
        k(    1) = (   0.0000000   0.0000000   0.0000000), wk =   0.0008681
        k(    2) = (   0.0000000   0.0000000   0.1250000), wk =   0.0017361
        k(    3) = (   0.0000000   0.0000000   0.2500000), wk =   0.0017361
        k(    4) = (   0.0000000   0.0000000   0.3750000), wk =   0.0017361
        k(    5) = (   0.0000000   0.0000000  -0.5000000), wk =   0.0008681
        k(    6) = (   0.0000000   0.0833333   0.0000000), wk =   0.0052083
        k(    7) = (   0.0000000   0.0833333   0.1250000), wk =   0.0104167
        k(    8) = (   0.0000000   0.0833333   0.2500000), wk =   0.0104167
        k(    9) = (   0.0000000   0.0833333   0.3750000), wk =   0.0104167
        k(   10) = (   0.0000000   0.0833333  -0.5000000), wk =   0.0052083
        k(   11) = (   0.0000000   0.1666667   0.0000000), wk =   0.0052083
        k(   12) = (   0.0000000   0.1666667   0.1250000), wk =   0.0104167
        k(   13) = (   0.0000000   0.1666667   0.2500000), wk =   0.0104167
        k(   14) = (   0.0000000   0.1666667   0.3750000), wk =   0.0104167
        k(   15) = (   0.0000000   0.1666667  -0.5000000), wk =   0.0052083
        k(   16) = (   0.0000000   0.2500000   0.0000000), wk =   0.0052083
        k(   17) = (   0.0000000   0.2500000   0.1250000), wk =   0.0104167
        k(   18) = (   0.0000000   0.2500000   0.2500000), wk =   0.0104167
        k(   19) = (   0.0000000   0.2500000   0.3750000), wk =   0.0104167
        k(   20) = (   0.0000000   0.2500000  -0.5000000), wk =   0.0052083
        k(   21) = (   0.0000000   0.3333333   0.0000000), wk =   0.0052083
        k(   22) = (   0.0000000   0.3333333   0.1250000), wk =   0.0104167
        k(   23) = (   0.0000000   0.3333333   0.2500000), wk =   0.0104167
        k(   24) = (   0.0000000   0.3333333   0.3750000), wk =   0.0104167
        k(   25) = (   0.0000000   0.3333333  -0.5000000), wk =   0.0052083
        k(   26) = (   0.0000000   0.4166667   0.0000000), wk =   0.0052083
        k(   27) = (   0.0000000   0.4166667   0.1250000), wk =   0.0104167
        k(   28) = (   0.0000000   0.4166667   0.2500000), wk =   0.0104167
        k(   29) = (   0.0000000   0.4166667   0.3750000), wk =   0.0104167
        k(   30) = (   0.0000000   0.4166667  -0.5000000), wk =   0.0052083
        k(   31) = (   0.0000000  -0.5000000   0.0000000), wk =   0.0026042
        k(   32) = (   0.0000000  -0.5000000   0.1250000), wk =   0.0052083
        k(   33) = (   0.0000000  -0.5000000   0.2500000), wk =   0.0052083
        k(   34) = (   0.0000000  -0.5000000   0.3750000), wk =   0.0052083
        k(   35) = (   0.0000000  -0.5000000  -0.5000000), wk =   0.0026042
        k(   36) = (   0.0833333   0.0833333   0.0000000), wk =   0.0052083
        k(   37) = (   0.0833333   0.0833333   0.1250000), wk =   0.0104167
        k(   38) = (   0.0833333   0.0833333   0.2500000), wk =   0.0104167
        k(   39) = (   0.0833333   0.0833333   0.3750000), wk =   0.0104167
        k(   40) = (   0.0833333   0.0833333  -0.5000000), wk =   0.0052083
        k(   41) = (   0.0833333   0.1666667   0.0000000), wk =   0.0104167
        k(   42) = (   0.0833333   0.1666667   0.1250000), wk =   0.0208333
        k(   43) = (   0.0833333   0.1666667   0.2500000), wk =   0.0208333
        k(   44) = (   0.0833333   0.1666667   0.3750000), wk =   0.0208333
        k(   45) = (   0.0833333   0.1666667  -0.5000000), wk =   0.0104167
        k(   46) = (   0.0833333   0.2500000   0.0000000), wk =   0.0104167
        k(   47) = (   0.0833333   0.2500000   0.1250000), wk =   0.0208333
        k(   48) = (   0.0833333   0.2500000   0.2500000), wk =   0.0208333
        k(   49) = (   0.0833333   0.2500000   0.3750000), wk =   0.0208333
        k(   50) = (   0.0833333   0.2500000  -0.5000000), wk =   0.0104167
        k(   51) = (   0.0833333   0.3333333   0.0000000), wk =   0.0104167
        k(   52) = (   0.0833333   0.3333333   0.1250000), wk =   0.0208333
        k(   53) = (   0.0833333   0.3333333   0.2500000), wk =   0.0208333
        k(   54) = (   0.0833333   0.3333333   0.3750000), wk =   0.0208333
        k(   55) = (   0.0833333   0.3333333  -0.5000000), wk =   0.0104167
        k(   56) = (   0.0833333   0.4166667   0.0000000), wk =   0.0104167
        k(   57) = (   0.0833333   0.4166667   0.1250000), wk =   0.0208333
        k(   58) = (   0.0833333   0.4166667   0.2500000), wk =   0.0208333
        k(   59) = (   0.0833333   0.4166667   0.3750000), wk =   0.0208333
        k(   60) = (   0.0833333   0.4166667  -0.5000000), wk =   0.0104167
        k(   61) = (   0.1666667   0.1666667   0.0000000), wk =   0.0052083
        k(   62) = (   0.1666667   0.1666667   0.1250000), wk =   0.0104167
        k(   63) = (   0.1666667   0.1666667   0.2500000), wk =   0.0104167
        k(   64) = (   0.1666667   0.1666667   0.3750000), wk =   0.0104167
        k(   65) = (   0.1666667   0.1666667  -0.5000000), wk =   0.0052083
        k(   66) = (   0.1666667   0.2500000   0.0000000), wk =   0.0104167
        k(   67) = (   0.1666667   0.2500000   0.1250000), wk =   0.0208333
        k(   68) = (   0.1666667   0.2500000   0.2500000), wk =   0.0208333
        k(   69) = (   0.1666667   0.2500000   0.3750000), wk =   0.0208333
        k(   70) = (   0.1666667   0.2500000  -0.5000000), wk =   0.0104167
        k(   71) = (   0.1666667   0.3333333   0.0000000), wk =   0.0104167
        k(   72) = (   0.1666667   0.3333333   0.1250000), wk =   0.0208333
        k(   73) = (   0.1666667   0.3333333   0.2500000), wk =   0.0208333
        k(   74) = (   0.1666667   0.3333333   0.3750000), wk =   0.0208333
        k(   75) = (   0.1666667   0.3333333  -0.5000000), wk =   0.0104167
        k(   76) = (   0.1666667   0.4166667   0.0000000), wk =   0.0052083
        k(   77) = (   0.1666667   0.4166667   0.1250000), wk =   0.0104167
        k(   78) = (   0.1666667   0.4166667   0.2500000), wk =   0.0104167
        k(   79) = (   0.1666667   0.4166667   0.3750000), wk =   0.0104167
        k(   80) = (   0.1666667   0.4166667  -0.5000000), wk =   0.0052083
        k(   81) = (   0.2500000   0.2500000   0.0000000), wk =   0.0052083
        k(   82) = (   0.2500000   0.2500000   0.1250000), wk =   0.0104167
        k(   83) = (   0.2500000   0.2500000   0.2500000), wk =   0.0104167
        k(   84) = (   0.2500000   0.2500000   0.3750000), wk =   0.0104167
        k(   85) = (   0.2500000   0.2500000  -0.5000000), wk =   0.0052083
        k(   86) = (   0.2500000   0.3333333   0.0000000), wk =   0.0104167
        k(   87) = (   0.2500000   0.3333333   0.1250000), wk =   0.0208333
        k(   88) = (   0.2500000   0.3333333   0.2500000), wk =   0.0208333
        k(   89) = (   0.2500000   0.3333333   0.3750000), wk =   0.0208333
        k(   90) = (   0.2500000   0.3333333  -0.5000000), wk =   0.0104167
        k(   91) = (   0.3333333   0.3333333   0.0000000), wk =   0.0017361
        k(   92) = (   0.3333333   0.3333333   0.1250000), wk =   0.0034722
        k(   93) = (   0.3333333   0.3333333   0.2500000), wk =   0.0034722
        k(   94) = (   0.3333333   0.3333333   0.3750000), wk =   0.0034722
        k(   95) = (   0.3333333   0.3333333  -0.5000000), wk =   0.0017361

     Dense  grid:   310909 G-vectors     FFT dimensions: (  81,  81, 108)

     Smooth grid:    59765 G-vectors     FFT dimensions: (  48,  48,  60)

     Dynamical RAM for                 wfc:       6.15 MB

     Dynamical RAM for     wfc (w. buffer):    1175.46 MB

     Dynamical RAM for           str. fact:      14.23 MB

     Dynamical RAM for           local pot:       0.00 MB

     Dynamical RAM for          nlocal pot:      12.31 MB

     Dynamical RAM for                qrad:       7.91 MB

     Dynamical RAM for          rho,v,vnew:      60.90 MB

     Dynamical RAM for               rhoin:      20.30 MB

     Dynamical RAM for            rho*nmix:     151.81 MB

     Dynamical RAM for           G-vectors:      18.25 MB

     Dynamical RAM for          h,s,v(r/c):       0.53 MB

     Dynamical RAM for          <psi|beta>:       0.09 MB

     Dynamical RAM for                 psi:      12.31 MB

     Dynamical RAM for                hpsi:      12.31 MB

     Dynamical RAM for                spsi:      12.31 MB

     Dynamical RAM for      wfcinit/wfcrot:      12.38 MB

     Dynamical RAM for           addusdens:     896.63 MB

     Dynamical RAM for          addusforce:     906.14 MB

     Dynamical RAM for         addusstress:     960.68 MB

     Estimated static dynamical RAM per process >       1.33 GB

     Estimated max dynamical RAM per process >       2.42 GB

     Atomic positions and unit cell read from directory:
     ./out/aiida.save/
 

     Check: negative core charge=   -0.000009
     Generating pointlists ...
     new r_m :   0.2382 (alat units)  1.8506 (a.u.) for type    1
     new r_m :   0.2382 (alat units)  1.8506 (a.u.) for type    2
     new r_m :   0.2629 (alat units)  2.0431 (a.u.) for type    3

     The initial density is read from file :
     ./out/aiida.save/charge-density

     Starting wfcs from file
     Checking if some PAW data can be deallocated... 

     total cpu time spent up to now is        6.4 secs

     per-process dynamical memory:   572.2 Mb

     Self-consistent Calculation
[tb_dev] Currently allocated     4.58E-05 Mbytes, locked:    0 /   2
[tb_pin] Currently allocated     0.00E+00 Mbytes, locked:    0 /   0

     iteration #  1     ecut=    90.00 Ry     beta= 0.20
     Davidson diagonalization with overlap

---- Real-time Memory Report at c_bands before calling an iterative solver
           832 MiB given to the printing process from OS
           577 MiB allocation reported by mallinfo(arena+hblkhd)
         58756 MiB available memory on the node where the printing process lives
     GPU memory used/free/total (MiB): 1026 / 15254 / 16280
------------------
     ethr =  1.00E-05,  avg # of iterations =  2.0

     Threshold (ethr) on eigenvalues was too large:
     Diagonalizing with lowered threshold

     Davidson diagonalization with overlap

---- Real-time Memory Report at c_bands before calling an iterative solver
          2365 MiB given to the printing process from OS
         -2016 MiB allocation reported by mallinfo(arena+hblkhd)
         55530 MiB available memory on the node where the printing process lives
     GPU memory used/free/total (MiB): 2484 / 13796 / 16280
------------------
     ethr =  1.15E-09,  avg # of iterations =  5.8

     total cpu time spent up to now is       32.0 secs

     total energy              =   -1502.40690114 Ry
     estimated scf accuracy    <       0.00000326 Ry

     total magnetization       =     6.89 Bohr mag/cell
     absolute magnetization    =     7.41 Bohr mag/cell
[tb_dev] Currently allocated     6.21E+00 Mbytes, locked:    0 /  11
[tb_pin] Currently allocated     0.00E+00 Mbytes, locked:    0 /   0

     iteration #  2     ecut=    90.00 Ry     beta= 0.20
     Davidson diagonalization with overlap

---- Real-time Memory Report at c_bands before calling an iterative solver
          2517 MiB given to the printing process from OS
         -2025 MiB allocation reported by mallinfo(arena+hblkhd)
         55511 MiB available memory on the node where the printing process lives
     GPU memory used/free/total (MiB): 2490 / 13790 / 16280
------------------
     ethr =  3.62E-09,  avg # of iterations =  2.4

     total cpu time spent up to now is       41.9 secs

     total energy              =   -1502.40690096 Ry
     estimated scf accuracy    <       0.00004552 Ry

     total magnetization       =     6.88 Bohr mag/cell
     absolute magnetization    =     7.40 Bohr mag/cell
[tb_dev] Currently allocated     6.21E+00 Mbytes, locked:    0 /  11
[tb_pin] Currently allocated     0.00E+00 Mbytes, locked:    0 /   0

     iteration #  3     ecut=    90.00 Ry     beta= 0.20
     Davidson diagonalization with overlap

---- Real-time Memory Report at c_bands before calling an iterative solver
          2654 MiB given to the printing process from OS
         -2016 MiB allocation reported by mallinfo(arena+hblkhd)
         55504 MiB available memory on the node where the printing process lives
     GPU memory used/free/total (MiB): 2490 / 13790 / 16280
------------------
     ethr =  3.62E-09,  avg # of iterations =  2.0

     total cpu time spent up to now is       51.2 secs

     total energy              =   -1502.40690294 Ry
     estimated scf accuracy    <       0.00000054 Ry

     total magnetization       =     6.89 Bohr mag/cell
     absolute magnetization    =     7.40 Bohr mag/cell
[tb_dev] Currently allocated     6.21E+00 Mbytes, locked:    0 /  11
[tb_pin] Currently allocated     0.00E+00 Mbytes, locked:    0 /   0

     iteration #  4     ecut=    90.00 Ry     beta= 0.20
     Davidson diagonalization with overlap

---- Real-time Memory Report at c_bands before calling an iterative solver
          2794 MiB given to the printing process from OS
         -2005 MiB allocation reported by mallinfo(arena+hblkhd)
         55491 MiB available memory on the node where the printing process lives
     GPU memory used/free/total (MiB): 2490 / 13790 / 16280
------------------
     ethr =  6.01E-10,  avg # of iterations =  2.6

     total cpu time spent up to now is       61.2 secs

     total energy              =   -1502.40690331 Ry
     estimated scf accuracy    <       0.00000048 Ry

     total magnetization       =     6.88 Bohr mag/cell
     absolute magnetization    =     7.40 Bohr mag/cell
[tb_dev] Currently allocated     6.21E+00 Mbytes, locked:    0 /  11
[tb_pin] Currently allocated     0.00E+00 Mbytes, locked:    0 /   0

     iteration #  5     ecut=    90.00 Ry     beta= 0.20
     Davidson diagonalization with overlap

---- Real-time Memory Report at c_bands before calling an iterative solver
          2841 MiB given to the printing process from OS
         -1997 MiB allocation reported by mallinfo(arena+hblkhd)
         55484 MiB available memory on the node where the printing process lives
     GPU memory used/free/total (MiB): 2490 / 13790 / 16280
------------------
     ethr =  5.38E-10,  avg # of iterations =  1.0

     total cpu time spent up to now is       69.3 secs

     total energy              =   -1502.40690363 Ry
     estimated scf accuracy    <       0.00000134 Ry

     total magnetization       =     6.88 Bohr mag/cell
     absolute magnetization    =     7.40 Bohr mag/cell
[tb_dev] Currently allocated     6.21E+00 Mbytes, locked:    0 /  11
[tb_pin] Currently allocated     0.00E+00 Mbytes, locked:    0 /   0

     iteration #  6     ecut=    90.00 Ry     beta= 0.20
     Davidson diagonalization with overlap

---- Real-time Memory Report at c_bands before calling an iterative solver
          2889 MiB given to the printing process from OS
         -1990 MiB allocation reported by mallinfo(arena+hblkhd)
         55477 MiB available memory on the node where the printing process lives
     GPU memory used/free/total (MiB): 2490 / 13790 / 16280
------------------
     ethr =  5.38E-10,  avg # of iterations =  1.9

     total cpu time spent up to now is       78.3 secs

     total energy              =   -1502.40690168 Ry
     estimated scf accuracy    <       0.00000125 Ry

     total magnetization       =     6.88 Bohr mag/cell
     absolute magnetization    =     7.40 Bohr mag/cell
[tb_dev] Currently allocated     6.21E+00 Mbytes, locked:    0 /  11
[tb_pin] Currently allocated     0.00E+00 Mbytes, locked:    0 /   0

     iteration #  7     ecut=    90.00 Ry     beta= 0.20
     Davidson diagonalization with overlap

---- Real-time Memory Report at c_bands before calling an iterative solver
          2938 MiB given to the printing process from OS
         -1981 MiB allocation reported by mallinfo(arena+hblkhd)
         55468 MiB available memory on the node where the printing process lives
     GPU memory used/free/total (MiB): 2490 / 13790 / 16280
------------------
     ethr =  5.38E-10,  avg # of iterations =  3.0

     total cpu time spent up to now is       88.9 secs

     total energy              =   -1502.40685351 Ry
     estimated scf accuracy    <       0.00000112 Ry

     total magnetization       =     6.89 Bohr mag/cell
     absolute magnetization    =     7.41 Bohr mag/cell
[tb_dev] Currently allocated     6.21E+00 Mbytes, locked:    0 /  11
[tb_pin] Currently allocated     0.00E+00 Mbytes, locked:    0 /   0

     iteration #  8     ecut=    90.00 Ry     beta= 0.20
     Davidson diagonalization with overlap

---- Real-time Memory Report at c_bands before calling an iterative solver
          2986 MiB given to the printing process from OS
         -1973 MiB allocation reported by mallinfo(arena+hblkhd)
         55463 MiB available memory on the node where the printing process lives
     GPU memory used/free/total (MiB): 2490 / 13790 / 16280
------------------
     ethr =  5.38E-10,  avg # of iterations =  6.0

     total cpu time spent up to now is      105.2 secs

     total energy              =   -1502.40679313 Ry
     estimated scf accuracy    <       0.00000950 Ry

     total magnetization       =     6.81 Bohr mag/cell
     absolute magnetization    =     7.33 Bohr mag/cell
[tb_dev] Currently allocated     6.21E+00 Mbytes, locked:    0 /  11
[tb_pin] Currently allocated     0.00E+00 Mbytes, locked:    0 /   0

     iteration #  9     ecut=    90.00 Ry     beta= 0.20
     Davidson diagonalization with overlap

---- Real-time Memory Report at c_bands before calling an iterative solver
          3025 MiB given to the printing process from OS
         -1966 MiB allocation reported by mallinfo(arena+hblkhd)
         55456 MiB available memory on the node where the printing process lives
     GPU memory used/free/total (MiB): 2490 / 13790 / 16280
------------------
     ethr =  5.38E-10,  avg # of iterations =  6.7

     total cpu time spent up to now is      123.0 secs

     total energy              =   -1502.40688650 Ry
     estimated scf accuracy    <       0.00000096 Ry

     total magnetization       =     6.92 Bohr mag/cell
     absolute magnetization    =     7.44 Bohr mag/cell
[tb_dev] Currently allocated     6.21E+00 Mbytes, locked:    0 /  11
[tb_pin] Currently allocated     0.00E+00 Mbytes, locked:    0 /   0

     iteration # 10     ecut=    90.00 Ry     beta= 0.20
     Davidson diagonalization with overlap

---- Real-time Memory Report at c_bands before calling an iterative solver
          3056 MiB given to the printing process from OS
         -1959 MiB allocation reported by mallinfo(arena+hblkhd)
         55452 MiB available memory on the node where the printing process lives
     GPU memory used/free/total (MiB): 2490 / 13790 / 16280
------------------
     ethr =  5.38E-10,  avg # of iterations =  5.0

     total cpu time spent up to now is      137.9 secs

     total energy              =   -1502.40689744 Ry
     estimated scf accuracy    <       0.00000036 Ry

     total magnetization       =     6.95 Bohr mag/cell
     absolute magnetization    =     7.47 Bohr mag/cell
[tb_dev] Currently allocated     6.21E+00 Mbytes, locked:    0 /  11
[tb_pin] Currently allocated     0.00E+00 Mbytes, locked:    0 /   0

     iteration # 11     ecut=    90.00 Ry     beta= 0.20
     Davidson diagonalization with overlap

---- Real-time Memory Report at c_bands before calling an iterative solver
          3061 MiB given to the printing process from OS
         -1955 MiB allocation reported by mallinfo(arena+hblkhd)
         55448 MiB available memory on the node where the printing process lives
     GPU memory used/free/total (MiB): 2490 / 13790 / 16280
------------------
     ethr =  3.99E-10,  avg # of iterations =  2.8

     total cpu time spent up to now is      148.5 secs

     total energy              =   -1502.40688223 Ry
     estimated scf accuracy    <       0.00000374 Ry

     total magnetization       =     6.96 Bohr mag/cell
     absolute magnetization    =     7.48 Bohr mag/cell
[tb_dev] Currently allocated     6.21E+00 Mbytes, locked:    0 /  11
[tb_pin] Currently allocated     0.00E+00 Mbytes, locked:    0 /   0

     iteration # 12     ecut=    90.00 Ry     beta= 0.20
     Davidson diagonalization with overlap

---- Real-time Memory Report at c_bands before calling an iterative solver
          3063 MiB given to the printing process from OS
         -1941 MiB allocation reported by mallinfo(arena+hblkhd)
         55443 MiB available memory on the node where the printing process lives
     GPU memory used/free/total (MiB): 2490 / 13790 / 16280
------------------
     ethr =  3.99E-10,  avg # of iterations =  5.4

     total cpu time spent up to now is      163.8 secs

     total energy              =   -1502.40688946 Ry
     estimated scf accuracy    <       0.00000229 Ry

     total magnetization       =     6.99 Bohr mag/cell
     absolute magnetization    =     7.51 Bohr mag/cell
[tb_dev] Currently allocated     6.21E+00 Mbytes, locked:    0 /  11
[tb_pin] Currently allocated     0.00E+00 Mbytes, locked:    0 /   0

     iteration # 13     ecut=    90.00 Ry     beta= 0.20
     Davidson diagonalization with overlap

---- Real-time Memory Report at c_bands before calling an iterative solver
          3070 MiB given to the printing process from OS
         -1937 MiB allocation reported by mallinfo(arena+hblkhd)
         55442 MiB available memory on the node where the printing process lives
     GPU memory used/free/total (MiB): 2490 / 13790 / 16280
------------------
     ethr =  3.99E-10,  avg # of iterations =  4.8

     total cpu time spent up to now is      177.8 secs

     total energy              =   -1502.40682897 Ry
     estimated scf accuracy    <       0.00000219 Ry

     total magnetization       =     6.96 Bohr mag/cell
     absolute magnetization    =     7.49 Bohr mag/cell
[tb_dev] Currently allocated     6.21E+00 Mbytes, locked:    0 /  11
[tb_pin] Currently allocated     0.00E+00 Mbytes, locked:    0 /   0

     iteration # 14     ecut=    90.00 Ry     beta= 0.20
     Davidson diagonalization with overlap

---- Real-time Memory Report at c_bands before calling an iterative solver
          3073 MiB given to the printing process from OS
         -1933 MiB allocation reported by mallinfo(arena+hblkhd)
         55439 MiB available memory on the node where the printing process lives
     GPU memory used/free/total (MiB): 2490 / 13790 / 16280
------------------
     ethr =  3.99E-10,  avg # of iterations =  6.8

     total cpu time spent up to now is      195.9 secs

     total energy              =   -1502.40685386 Ry
     estimated scf accuracy    <       0.00000325 Ry

     total magnetization       =     6.88 Bohr mag/cell
     absolute magnetization    =     7.40 Bohr mag/cell
[tb_dev] Currently allocated     6.21E+00 Mbytes, locked:    0 /  11
[tb_pin] Currently allocated     0.00E+00 Mbytes, locked:    0 /   0

     iteration # 15     ecut=    90.00 Ry     beta= 0.20
     Davidson diagonalization with overlap

---- Real-time Memory Report at c_bands before calling an iterative solver
          3078 MiB given to the printing process from OS
         -1930 MiB allocation reported by mallinfo(arena+hblkhd)
         55436 MiB available memory on the node where the printing process lives
     GPU memory used/free/total (MiB): 2490 / 13790 / 16280
------------------
     ethr =  3.99E-10,  avg # of iterations =  6.0

     total cpu time spent up to now is      212.3 secs

     total energy              =   -1502.40682165 Ry
     estimated scf accuracy    <       0.00000174 Ry

     total magnetization       =     6.94 Bohr mag/cell
     absolute magnetization    =     7.47 Bohr mag/cell
[tb_dev] Currently allocated     6.21E+00 Mbytes, locked:    0 /  11
[tb_pin] Currently allocated     0.00E+00 Mbytes, locked:    0 /   0

     iteration # 16     ecut=    90.00 Ry     beta= 0.20
     Davidson diagonalization with overlap

---- Real-time Memory Report at c_bands before calling an iterative solver
          3083 MiB given to the printing process from OS
         -1926 MiB allocation reported by mallinfo(arena+hblkhd)
         55427 MiB available memory on the node where the printing process lives
     GPU memory used/free/total (MiB): 2490 / 13790 / 16280
------------------
     ethr =  3.99E-10,  avg # of iterations =  6.9

     total cpu time spent up to now is      230.4 secs

     total energy              =   -1502.40688589 Ry
     estimated scf accuracy    <       0.00000118 Ry

     total magnetization       =     7.02 Bohr mag/cell
     absolute magnetization    =     7.55 Bohr mag/cell
[tb_dev] Currently allocated     6.21E+00 Mbytes, locked:    0 /  11
[tb_pin] Currently allocated     0.00E+00 Mbytes, locked:    0 /   0

     iteration # 17     ecut=    90.00 Ry     beta= 0.20
     Davidson diagonalization with overlap

---- Real-time Memory Report at c_bands before calling an iterative solver
          3087 MiB given to the printing process from OS
         -1922 MiB allocation reported by mallinfo(arena+hblkhd)
         55427 MiB available memory on the node where the printing process lives
     GPU memory used/free/total (MiB): 2490 / 13790 / 16280
------------------
     ethr =  3.99E-10,  avg # of iterations =  4.8

     total cpu time spent up to now is      244.4 secs

     total energy              =   -1502.40688504 Ry
     estimated scf accuracy    <       0.00000140 Ry

     total magnetization       =     7.05 Bohr mag/cell
     absolute magnetization    =     7.57 Bohr mag/cell
[tb_dev] Currently allocated     6.21E+00 Mbytes, locked:    0 /  11
[tb_pin] Currently allocated     0.00E+00 Mbytes, locked:    0 /   0

     iteration # 18     ecut=    90.00 Ry     beta= 0.20
     Davidson diagonalization with overlap

---- Real-time Memory Report at c_bands before calling an iterative solver
          3091 MiB given to the printing process from OS
         -1919 MiB allocation reported by mallinfo(arena+hblkhd)
         55423 MiB available memory on the node where the printing process lives
     GPU memory used/free/total (MiB): 2490 / 13790 / 16280
------------------
     ethr =  3.99E-10,  avg # of iterations =  5.0

     total cpu time spent up to now is      259.0 secs

     total energy              =   -1502.40675302 Ry
     estimated scf accuracy    <       0.00000119 Ry

     total magnetization       =     7.02 Bohr mag/cell
     absolute magnetization    =     7.54 Bohr mag/cell
[tb_dev] Currently allocated     6.21E+00 Mbytes, locked:    0 /  11
[tb_pin] Currently allocated     0.00E+00 Mbytes, locked:    0 /   0

     iteration # 19     ecut=    90.00 Ry     beta= 0.20
     Davidson diagonalization with overlap

---- Real-time Memory Report at c_bands before calling an iterative solver
          3094 MiB given to the printing process from OS
         -1915 MiB allocation reported by mallinfo(arena+hblkhd)
         55420 MiB available memory on the node where the printing process lives
     GPU memory used/free/total (MiB): 2490 / 13790 / 16280
------------------
     ethr =  3.99E-10,  avg # of iterations =  7.6

     total cpu time spent up to now is      278.6 secs

     total energy              =   -1502.40682408 Ry
     estimated scf accuracy    <       0.00000278 Ry

     total magnetization       =     6.90 Bohr mag/cell
     absolute magnetization    =     7.42 Bohr mag/cell
[tb_dev] Currently allocated     6.21E+00 Mbytes, locked:    0 /  11
[tb_pin] Currently allocated     0.00E+00 Mbytes, locked:    0 /   0

     iteration # 20     ecut=    90.00 Ry     beta= 0.20
     Davidson diagonalization with overlap

---- Real-time Memory Report at c_bands before calling an iterative solver
          3099 MiB given to the printing process from OS
         -1911 MiB allocation reported by mallinfo(arena+hblkhd)
         55417 MiB available memory on the node where the printing process lives
     GPU memory used/free/total (MiB): 2490 / 13790 / 16280
------------------
     ethr =  3.99E-10,  avg # of iterations =  6.6

     total cpu time spent up to now is      296.1 secs

     total energy              =   -1502.40689251 Ry
     estimated scf accuracy    <       0.00000118 Ry

     total magnetization       =     6.98 Bohr mag/cell
     absolute magnetization    =     7.51 Bohr mag/cell
[tb_dev] Currently allocated     6.21E+00 Mbytes, locked:    0 /  11
[tb_pin] Currently allocated     0.00E+00 Mbytes, locked:    0 /   0

     iteration # 21     ecut=    90.00 Ry     beta= 0.20
     Davidson diagonalization with overlap

---- Real-time Memory Report at c_bands before calling an iterative solver
          3100 MiB given to the printing process from OS
         -1908 MiB allocation reported by mallinfo(arena+hblkhd)
         55413 MiB available memory on the node where the printing process lives
     GPU memory used/free/total (MiB): 2490 / 13790 / 16280
------------------
     ethr =  3.99E-10,  avg # of iterations =  4.3

     total cpu time spent up to now is      309.3 secs

     total energy              =   -1502.40688726 Ry
     estimated scf accuracy    <       0.00000127 Ry

     total magnetization       =     6.96 Bohr mag/cell
     absolute magnetization    =     7.49 Bohr mag/cell
[tb_dev] Currently allocated     6.21E+00 Mbytes, locked:    0 /  11
[tb_pin] Currently allocated     0.00E+00 Mbytes, locked:    0 /   0

     iteration # 22     ecut=    90.00 Ry     beta= 0.20
     Davidson diagonalization with overlap

---- Real-time Memory Report at c_bands before calling an iterative solver
          3106 MiB given to the printing process from OS
         -1904 MiB allocation reported by mallinfo(arena+hblkhd)
         55407 MiB available memory on the node where the printing process lives
     GPU memory used/free/total (MiB): 2490 / 13790 / 16280
------------------
     ethr =  3.99E-10,  avg # of iterations =  5.2

     total cpu time spent up to now is      324.1 secs

     total energy              =   -1502.40689962 Ry
     estimated scf accuracy    <       0.00000208 Ry

     total magnetization       =     6.93 Bohr mag/cell
     absolute magnetization    =     7.45 Bohr mag/cell
[tb_dev] Currently allocated     6.21E+00 Mbytes, locked:    0 /  11
[tb_pin] Currently allocated     0.00E+00 Mbytes, locked:    0 /   0

     iteration # 23     ecut=    90.00 Ry     beta= 0.20
     Davidson diagonalization with overlap

---- Real-time Memory Report at c_bands before calling an iterative solver
          3109 MiB given to the printing process from OS
         -1900 MiB allocation reported by mallinfo(arena+hblkhd)
         55405 MiB available memory on the node where the printing process lives
     GPU memory used/free/total (MiB): 2490 / 13790 / 16280
------------------
     ethr =  3.99E-10,  avg # of iterations =  1.0

     total cpu time spent up to now is      332.1 secs

     total energy              =   -1502.40679033 Ry
     estimated scf accuracy    <       0.00000209 Ry

     total magnetization       =     6.93 Bohr mag/cell
     absolute magnetization    =     7.45 Bohr mag/cell
[tb_dev] Currently allocated     6.21E+00 Mbytes, locked:    0 /  11
[tb_pin] Currently allocated     0.00E+00 Mbytes, locked:    0 /   0

     iteration # 24     ecut=    90.00 Ry     beta= 0.20
     Davidson diagonalization with overlap

---- Real-time Memory Report at c_bands before calling an iterative solver
          3112 MiB given to the printing process from OS
         -1897 MiB allocation reported by mallinfo(arena+hblkhd)
         55401 MiB available memory on the node where the printing process lives
     GPU memory used/free/total (MiB): 2490 / 13790 / 16280
------------------
     ethr =  3.99E-10,  avg # of iterations =  6.9

     total cpu time spent up to now is      350.3 secs

     total energy              =   -1502.40676542 Ry
     estimated scf accuracy    <       0.00000116 Ry

     total magnetization       =     7.03 Bohr mag/cell
     absolute magnetization    =     7.55 Bohr mag/cell
[tb_dev] Currently allocated     6.21E+00 Mbytes, locked:    0 /  11
[tb_pin] Currently allocated     0.00E+00 Mbytes, locked:    0 /   0

     iteration # 25     ecut=    90.00 Ry     beta= 0.20
     Davidson diagonalization with overlap

---- Real-time Memory Report at c_bands before calling an iterative solver
          3117 MiB given to the printing process from OS
         -1893 MiB allocation reported by mallinfo(arena+hblkhd)
         55398 MiB available memory on the node where the printing process lives
     GPU memory used/free/total (MiB): 2490 / 13790 / 16280
------------------
     ethr =  3.99E-10,  avg # of iterations =  7.2

     total cpu time spent up to now is      369.2 secs

     total energy              =   -1502.40680750 Ry
     estimated scf accuracy    <       0.00000220 Ry

     total magnetization       =     6.92 Bohr mag/cell
     absolute magnetization    =     7.44 Bohr mag/cell
[tb_dev] Currently allocated     6.21E+00 Mbytes, locked:    0 /  11
[tb_pin] Currently allocated     0.00E+00 Mbytes, locked:    0 /   0

     iteration # 26     ecut=    90.00 Ry     beta= 0.20
     Davidson diagonalization with overlap

---- Real-time Memory Report at c_bands before calling an iterative solver
          3122 MiB given to the printing process from OS
         -1890 MiB allocation reported by mallinfo(arena+hblkhd)
         55395 MiB available memory on the node where the printing process lives
     GPU memory used/free/total (MiB): 2490 / 13790 / 16280
------------------
     ethr =  3.99E-10,  avg # of iterations =  6.9

     total cpu time spent up to now is      387.3 secs

     total energy              =   -1502.40683229 Ry
     estimated scf accuracy    <       0.00000121 Ry

     total magnetization       =     7.01 Bohr mag/cell
     absolute magnetization    =     7.53 Bohr mag/cell
[tb_dev] Currently allocated     6.21E+00 Mbytes, locked:    0 /  11
[tb_pin] Currently allocated     0.00E+00 Mbytes, locked:    0 /   0

     iteration # 27     ecut=    90.00 Ry     beta= 0.20
     Davidson diagonalization with overlap

---- Real-time Memory Report at c_bands before calling an iterative solver
          3126 MiB given to the printing process from OS
         -1886 MiB allocation reported by mallinfo(arena+hblkhd)
         55388 MiB available memory on the node where the printing process lives
     GPU memory used/free/total (MiB): 2490 / 13790 / 16280
------------------
     ethr =  3.99E-10,  avg # of iterations =  6.6

     total cpu time spent up to now is      404.7 secs

     total energy              =   -1502.40688323 Ry
     estimated scf accuracy    <       0.00000218 Ry

     total magnetization       =     6.93 Bohr mag/cell
     absolute magnetization    =     7.45 Bohr mag/cell
[tb_dev] Currently allocated     6.21E+00 Mbytes, locked:    0 /  11
[tb_pin] Currently allocated     0.00E+00 Mbytes, locked:    0 /   0

     iteration # 28     ecut=    90.00 Ry     beta= 0.20
     Davidson diagonalization with overlap

---- Real-time Memory Report at c_bands before calling an iterative solver
          3127 MiB given to the printing process from OS
         -1882 MiB allocation reported by mallinfo(arena+hblkhd)
         55389 MiB available memory on the node where the printing process lives
     GPU memory used/free/total (MiB): 2490 / 13790 / 16280
------------------
     ethr =  3.99E-10,  avg # of iterations =  5.1

     total cpu time spent up to now is      419.2 secs

     total energy              =   -1502.40625846 Ry
     estimated scf accuracy    <       0.00000141 Ry

     total magnetization       =     6.96 Bohr mag/cell
     absolute magnetization    =     7.48 Bohr mag/cell
[tb_dev] Currently allocated     6.21E+00 Mbytes, locked:    0 /  11
[tb_pin] Currently allocated     0.00E+00 Mbytes, locked:    0 /   0

     iteration # 29     ecut=    90.00 Ry     beta= 0.20
     Davidson diagonalization with overlap

---- Real-time Memory Report at c_bands before calling an iterative solver
          3132 MiB given to the printing process from OS
         -1879 MiB allocation reported by mallinfo(arena+hblkhd)
         55383 MiB available memory on the node where the printing process lives
     GPU memory used/free/total (MiB): 2490 / 13790 / 16280
------------------
     ethr =  3.99E-10,  avg # of iterations =  9.2

     total cpu time spent up to now is      442.0 secs

     total energy              =   -1502.40614604 Ry
     estimated scf accuracy    <       0.00001206 Ry

     total magnetization       =     7.19 Bohr mag/cell
     absolute magnetization    =     7.73 Bohr mag/cell
[tb_dev] Currently allocated     6.21E+00 Mbytes, locked:    0 /  11
[tb_pin] Currently allocated     0.00E+00 Mbytes, locked:    0 /   0

     iteration # 30     ecut=    90.00 Ry     beta= 0.20
     Davidson diagonalization with overlap

---- Real-time Memory Report at c_bands before calling an iterative solver
          3138 MiB given to the printing process from OS
         -1875 MiB allocation reported by mallinfo(arena+hblkhd)
         55380 MiB available memory on the node where the printing process lives
     GPU memory used/free/total (MiB): 2490 / 13790 / 16280
------------------
     ethr =  3.99E-10,  avg # of iterations =  9.5

     total cpu time spent up to now is      465.2 secs

     total energy              =   -1502.40689697 Ry
     estimated scf accuracy    <       0.00000163 Ry

     total magnetization       =     6.93 Bohr mag/cell
     absolute magnetization    =     7.46 Bohr mag/cell
[tb_dev] Currently allocated     6.21E+00 Mbytes, locked:    0 /  11
[tb_pin] Currently allocated     0.00E+00 Mbytes, locked:    0 /   0

     iteration # 31     ecut=    90.00 Ry     beta= 0.20
     Davidson diagonalization with overlap

---- Real-time Memory Report at c_bands before calling an iterative solver
          3138 MiB given to the printing process from OS
         -1871 MiB allocation reported by mallinfo(arena+hblkhd)
         55376 MiB available memory on the node where the printing process lives
     GPU memory used/free/total (MiB): 2490 / 13790 / 16280
------------------
     ethr =  3.99E-10,  avg # of iterations =  4.2

     total cpu time spent up to now is      478.3 secs

     total energy              =   -1502.40690074 Ry
     estimated scf accuracy    <       0.00000206 Ry

     total magnetization       =     6.92 Bohr mag/cell
     absolute magnetization    =     7.44 Bohr mag/cell
[tb_dev] Currently allocated     6.21E+00 Mbytes, locked:    0 /  11
[tb_pin] Currently allocated     0.00E+00 Mbytes, locked:    0 /   0

     iteration # 32     ecut=    90.00 Ry     beta= 0.20
     Davidson diagonalization with overlap

---- Real-time Memory Report at c_bands before calling an iterative solver
          3145 MiB given to the printing process from OS
         -1867 MiB allocation reported by mallinfo(arena+hblkhd)
         55371 MiB available memory on the node where the printing process lives
     GPU memory used/free/total (MiB): 2490 / 13790 / 16280
------------------
     ethr =  3.99E-10,  avg # of iterations =  1.9

     total cpu time spent up to now is      487.3 secs

     total energy              =   -1502.40690072 Ry
     estimated scf accuracy    <       0.00000215 Ry

     total magnetization       =     6.91 Bohr mag/cell
     absolute magnetization    =     7.43 Bohr mag/cell
[tb_dev] Currently allocated     6.21E+00 Mbytes, locked:    0 /  11
[tb_pin] Currently allocated     0.00E+00 Mbytes, locked:    0 /   0

     iteration # 33     ecut=    90.00 Ry     beta= 0.20
     Davidson diagonalization with overlap

---- Real-time Memory Report at c_bands before calling an iterative solver
          3148 MiB given to the printing process from OS
         -1863 MiB allocation reported by mallinfo(arena+hblkhd)
         55365 MiB available memory on the node where the printing process lives
     GPU memory used/free/total (MiB): 2490 / 13790 / 16280
------------------
     ethr =  3.99E-10,  avg # of iterations =  1.0

     total cpu time spent up to now is      495.3 secs

     total energy              =   -1502.40689948 Ry
     estimated scf accuracy    <       0.00000209 Ry

     total magnetization       =     6.92 Bohr mag/cell
     absolute magnetization    =     7.44 Bohr mag/cell
[tb_dev] Currently allocated     6.21E+00 Mbytes, locked:    0 /  11
[tb_pin] Currently allocated     0.00E+00 Mbytes, locked:    0 /   0

     iteration # 34     ecut=    90.00 Ry     beta= 0.20
     Davidson diagonalization with overlap

---- Real-time Memory Report at c_bands before calling an iterative solver
          3151 MiB given to the printing process from OS
         -1859 MiB allocation reported by mallinfo(arena+hblkhd)
         55360 MiB available memory on the node where the printing process lives
     GPU memory used/free/total (MiB): 2490 / 13790 / 16280
------------------
     ethr =  3.99E-10,  avg # of iterations =  2.9

     total cpu time spent up to now is      505.7 secs

     total energy              =   -1502.40689645 Ry
     estimated scf accuracy    <       0.00000194 Ry

     total magnetization       =     6.92 Bohr mag/cell
     absolute magnetization    =     7.44 Bohr mag/cell
[tb_dev] Currently allocated     6.21E+00 Mbytes, locked:    0 /  11
[tb_pin] Currently allocated     0.00E+00 Mbytes, locked:    0 /   0

     iteration # 35     ecut=    90.00 Ry     beta= 0.20
     Davidson diagonalization with overlap

---- Real-time Memory Report at c_bands before calling an iterative solver
          3158 MiB given to the printing process from OS
         -1855 MiB allocation reported by mallinfo(arena+hblkhd)
         55359 MiB available memory on the node where the printing process lives
     GPU memory used/free/total (MiB): 2490 / 13790 / 16280
------------------
     ethr =  3.99E-10,  avg # of iterations =  4.4

     total cpu time spent up to now is      518.9 secs

     total energy              =   -1502.40689258 Ry
     estimated scf accuracy    <       0.00000248 Ry

     total magnetization       =     6.90 Bohr mag/cell
     absolute magnetization    =     7.42 Bohr mag/cell
[tb_dev] Currently allocated     6.21E+00 Mbytes, locked:    0 /  11
[tb_pin] Currently allocated     0.00E+00 Mbytes, locked:    0 /   0

     iteration # 36     ecut=    90.00 Ry     beta= 0.20
     Davidson diagonalization with overlap

---- Real-time Memory Report at c_bands before calling an iterative solver
          3161 MiB given to the printing process from OS
         -1851 MiB allocation reported by mallinfo(arena+hblkhd)
         55354 MiB available memory on the node where the printing process lives
     GPU memory used/free/total (MiB): 2490 / 13790 / 16280
------------------
     ethr =  3.99E-10,  avg # of iterations =  4.6

     total cpu time spent up to now is      532.7 secs

     total energy              =   -1502.40689814 Ry
     estimated scf accuracy    <       0.00000178 Ry

     total magnetization       =     6.93 Bohr mag/cell
     absolute magnetization    =     7.45 Bohr mag/cell
[tb_dev] Currently allocated     6.21E+00 Mbytes, locked:    0 /  11
[tb_pin] Currently allocated     0.00E+00 Mbytes, locked:    0 /   0

     iteration # 37     ecut=    90.00 Ry     beta= 0.20
     Davidson diagonalization with overlap

---- Real-time Memory Report at c_bands before calling an iterative solver
          3166 MiB given to the printing process from OS
         -1847 MiB allocation reported by mallinfo(arena+hblkhd)
         55350 MiB available memory on the node where the printing process lives
     GPU memory used/free/total (MiB): 2490 / 13790 / 16280
------------------
     ethr =  3.99E-10,  avg # of iterations =  3.7

     total cpu time spent up to now is      544.2 secs

     total energy              =   -1502.40689844 Ry
     estimated scf accuracy    <       0.00000153 Ry

     total magnetization       =     6.94 Bohr mag/cell
     absolute magnetization    =     7.46 Bohr mag/cell
[tb_dev] Currently allocated     6.21E+00 Mbytes, locked:    0 /  11
[tb_pin] Currently allocated     0.00E+00 Mbytes, locked:    0 /   0

     iteration # 38     ecut=    90.00 Ry     beta= 0.20
     Davidson diagonalization with overlap

---- Real-time Memory Report at c_bands before calling an iterative solver
          3169 MiB given to the printing process from OS
         -1837 MiB allocation reported by mallinfo(arena+hblkhd)
         55337 MiB available memory on the node where the printing process lives
     GPU memory used/free/total (MiB): 2490 / 13790 / 16280
------------------
     ethr =  3.99E-10,  avg # of iterations =  2.5

     total cpu time spent up to now is      554.2 secs

     total energy              =   -1502.40670831 Ry
     estimated scf accuracy    <       0.00000150 Ry

     total magnetization       =     6.94 Bohr mag/cell
     absolute magnetization    =     7.46 Bohr mag/cell
[tb_dev] Currently allocated     6.21E+00 Mbytes, locked:    0 /  11
[tb_pin] Currently allocated     0.00E+00 Mbytes, locked:    0 /   0

     iteration # 39     ecut=    90.00 Ry     beta= 0.20
     Davidson diagonalization with overlap

---- Real-time Memory Report at c_bands before calling an iterative solver
          3175 MiB given to the printing process from OS
         -1833 MiB allocation reported by mallinfo(arena+hblkhd)
         55335 MiB available memory on the node where the printing process lives
     GPU memory used/free/total (MiB): 2490 / 13790 / 16280
------------------
     ethr =  3.99E-10,  avg # of iterations =  8.0

     total cpu time spent up to now is      574.6 secs

     total energy              =   -1502.40689086 Ry
     estimated scf accuracy    <       0.00000161 Ry

     total magnetization       =     7.07 Bohr mag/cell
     absolute magnetization    =     7.60 Bohr mag/cell
[tb_dev] Currently allocated     6.21E+00 Mbytes, locked:    0 /  11
[tb_pin] Currently allocated     0.00E+00 Mbytes, locked:    0 /   0

     iteration # 40     ecut=    90.00 Ry     beta= 0.20
     Davidson diagonalization with overlap

---- Real-time Memory Report at c_bands before calling an iterative solver
          3180 MiB given to the printing process from OS
         -1829 MiB allocation reported by mallinfo(arena+hblkhd)
         55333 MiB available memory on the node where the printing process lives
     GPU memory used/free/total (MiB): 2490 / 13790 / 16280
------------------
     ethr =  3.99E-10,  avg # of iterations =  1.4

     total cpu time spent up to now is      583.0 secs

     total energy              =   -1502.40618680 Ry
     estimated scf accuracy    <       0.00000214 Ry

     total magnetization       =     7.07 Bohr mag/cell
     absolute magnetization    =     7.60 Bohr mag/cell
[tb_dev] Currently allocated     6.21E+00 Mbytes, locked:    0 /  11
[tb_pin] Currently allocated     0.00E+00 Mbytes, locked:    0 /   0

     iteration # 41     ecut=    90.00 Ry     beta= 0.20
     Davidson diagonalization with overlap

---- Real-time Memory Report at c_bands before calling an iterative solver
          3183 MiB given to the printing process from OS
         -1825 MiB allocation reported by mallinfo(arena+hblkhd)
         55329 MiB available memory on the node where the printing process lives
     GPU memory used/free/total (MiB): 2490 / 13790 / 16280
------------------
     ethr =  3.99E-10,  avg # of iterations =  9.4

     total cpu time spent up to now is      605.9 secs

     total energy              =   -1502.40636876 Ry
     estimated scf accuracy    <       0.00000979 Ry

     total magnetization       =     6.81 Bohr mag/cell
     absolute magnetization    =     7.33 Bohr mag/cell
[tb_dev] Currently allocated     6.21E+00 Mbytes, locked:    0 /  11
[tb_pin] Currently allocated     0.00E+00 Mbytes, locked:    0 /   0

     iteration # 42     ecut=    90.00 Ry     beta= 0.20
     Davidson diagonalization with overlap

---- Real-time Memory Report at c_bands before calling an iterative solver
          3188 MiB given to the printing process from OS
         -1821 MiB allocation reported by mallinfo(arena+hblkhd)
         55324 MiB available memory on the node where the printing process lives
     GPU memory used/free/total (MiB): 2490 / 13790 / 16280
------------------
     ethr =  3.99E-10,  avg # of iterations =  9.0

     total cpu time spent up to now is      628.2 secs

     total energy              =   -1502.40686067 Ry
     estimated scf accuracy    <       0.00000111 Ry

     total magnetization       =     7.03 Bohr mag/cell
     absolute magnetization    =     7.56 Bohr mag/cell
[tb_dev] Currently allocated     6.21E+00 Mbytes, locked:    0 /  11
[tb_pin] Currently allocated     0.00E+00 Mbytes, locked:    0 /   0

     iteration # 43     ecut=    90.00 Ry     beta= 0.20
     Davidson diagonalization with overlap

---- Real-time Memory Report at c_bands before calling an iterative solver
          3193 MiB given to the printing process from OS
         -1817 MiB allocation reported by mallinfo(arena+hblkhd)
         55319 MiB available memory on the node where the printing process lives
     GPU memory used/free/total (MiB): 2490 / 13790 / 16280
------------------
     ethr =  3.99E-10,  avg # of iterations =  5.9

     total cpu time spent up to now is      644.4 secs

     total energy              =   -1502.40643473 Ry
     estimated scf accuracy    <       0.00000221 Ry

     total magnetization       =     7.08 Bohr mag/cell
     absolute magnetization    =     7.61 Bohr mag/cell
[tb_dev] Currently allocated     6.21E+00 Mbytes, locked:    0 /  11
[tb_pin] Currently allocated     0.00E+00 Mbytes, locked:    0 /   0

     iteration # 44     ecut=    90.00 Ry     beta= 0.20
     Davidson diagonalization with overlap

---- Real-time Memory Report at c_bands before calling an iterative solver
          3198 MiB given to the printing process from OS
         -1813 MiB allocation reported by mallinfo(arena+hblkhd)
         55307 MiB available memory on the node where the printing process lives
     GPU memory used/free/total (MiB): 2490 / 13790 / 16280
------------------
     ethr =  3.99E-10,  avg # of iterations =  8.8

     total cpu time spent up to now is      666.5 secs

     total energy              =   -1502.40688291 Ry
     estimated scf accuracy    <       0.00000404 Ry

     total magnetization       =     6.87 Bohr mag/cell
     absolute magnetization    =     7.39 Bohr mag/cell
[tb_dev] Currently allocated     6.21E+00 Mbytes, locked:    0 /  11
[tb_pin] Currently allocated     0.00E+00 Mbytes, locked:    0 /   0

     iteration # 45     ecut=    90.00 Ry     beta= 0.20
     Davidson diagonalization with overlap

---- Real-time Memory Report at c_bands before calling an iterative solver
          3201 MiB given to the printing process from OS
         -1809 MiB allocation reported by mallinfo(arena+hblkhd)
         55309 MiB available memory on the node where the printing process lives
     GPU memory used/free/total (MiB): 2490 / 13790 / 16280
------------------
     ethr =  3.99E-10,  avg # of iterations =  5.3

     total cpu time spent up to now is      681.3 secs

     total energy              =   -1502.40676340 Ry
     estimated scf accuracy    <       0.00000222 Ry

     total magnetization       =     6.92 Bohr mag/cell
     absolute magnetization    =     7.44 Bohr mag/cell
[tb_dev] Currently allocated     6.21E+00 Mbytes, locked:    0 /  11
[tb_pin] Currently allocated     0.00E+00 Mbytes, locked:    0 /   0

     iteration # 46     ecut=    90.00 Ry     beta= 0.20
     Davidson diagonalization with overlap

---- Real-time Memory Report at c_bands before calling an iterative solver
          3205 MiB given to the printing process from OS
         -1805 MiB allocation reported by mallinfo(arena+hblkhd)
         55306 MiB available memory on the node where the printing process lives
     GPU memory used/free/total (MiB): 2490 / 13790 / 16280
------------------
     ethr =  3.99E-10,  avg # of iterations =  7.6

     total cpu time spent up to now is      700.7 secs

     total energy              =   -1502.40689069 Ry
     estimated scf accuracy    <       0.00000099 Ry

     total magnetization       =     7.02 Bohr mag/cell
     absolute magnetization    =     7.55 Bohr mag/cell
[tb_dev] Currently allocated     6.21E+00 Mbytes, locked:    0 /  11
[tb_pin] Currently allocated     0.00E+00 Mbytes, locked:    0 /   0

     iteration # 47     ecut=    90.00 Ry     beta= 0.20
     Davidson diagonalization with overlap

---- Real-time Memory Report at c_bands before calling an iterative solver
          3210 MiB given to the printing process from OS
         -1801 MiB allocation reported by mallinfo(arena+hblkhd)
         55305 MiB available memory on the node where the printing process lives
     GPU memory used/free/total (MiB): 2490 / 13790 / 16280
------------------
     ethr =  3.99E-10,  avg # of iterations =  4.2

     total cpu time spent up to now is      713.7 secs

     total energy              =   -1502.40689067 Ry
     estimated scf accuracy    <       0.00000093 Ry

     total magnetization       =     7.00 Bohr mag/cell
     absolute magnetization    =     7.53 Bohr mag/cell
[tb_dev] Currently allocated     6.21E+00 Mbytes, locked:    0 /  11
[tb_pin] Currently allocated     0.00E+00 Mbytes, locked:    0 /   0

     iteration # 48     ecut=    90.00 Ry     beta= 0.20
     Davidson diagonalization with overlap

---- Real-time Memory Report at c_bands before calling an iterative solver
          3213 MiB given to the printing process from OS
         -1797 MiB allocation reported by mallinfo(arena+hblkhd)
         55300 MiB available memory on the node where the printing process lives
     GPU memory used/free/total (MiB): 2490 / 13790 / 16280
------------------
     ethr =  3.99E-10,  avg # of iterations =  4.7

     total cpu time spent up to now is      727.6 secs

     total energy              =   -1502.40676365 Ry
     estimated scf accuracy    <       0.00000101 Ry

     total magnetization       =     6.98 Bohr mag/cell
     absolute magnetization    =     7.50 Bohr mag/cell
[tb_dev] Currently allocated     6.21E+00 Mbytes, locked:    0 /  11
[tb_pin] Currently allocated     0.00E+00 Mbytes, locked:    0 /   0

     iteration # 49     ecut=    90.00 Ry     beta= 0.20
     Davidson diagonalization with overlap

---- Real-time Memory Report at c_bands before calling an iterative solver
          3220 MiB given to the printing process from OS
         -1793 MiB allocation reported by mallinfo(arena+hblkhd)
         55291 MiB available memory on the node where the printing process lives
[...]

     total cpu time spent up to now is     1005.6 secs

     total energy              =   -1502.40687463 Ry
     estimated scf accuracy    <       0.00000120 Ry

     total magnetization       =     7.03 Bohr mag/cell
     absolute magnetization    =     7.55 Bohr mag/cell
[tb_dev] Currently allocated     6.21E+00 Mbytes, locked:    0 /  11
[tb_pin] Currently allocated     0.00E+00 Mbytes, locked:    0 /   0

     iteration # 65     ecut=    90.00 Ry     beta= 0.20
     Davidson diagonalization with overlap

---- Real-time Memory Report at c_bands before calling an iterative solver
          3290 MiB given to the printing process from OS
         -1724 MiB allocation reported by mallinfo(arena+hblkhd)
         55204 MiB available memory on the node where the printing process lives
     GPU memory used/free/total (MiB): 2490 / 13790 / 16280
------------------
     ethr =  3.99E-10,  avg # of iterations =  5.5

     total cpu time spent up to now is     1020.9 secs

     total energy              =   -1502.40682633 Ry
     estimated scf accuracy    <       0.00000108 Ry

     total magnetization       =     6.98 Bohr mag/cell
     absolute magnetization    =     7.51 Bohr mag/cell
[tb_dev] Currently allocated     6.21E+00 Mbytes, locked:    0 /  11
[tb_pin] Currently allocated     0.00E+00 Mbytes, locked:    0 /   0

     iteration # 66     ecut=    90.00 Ry     beta= 0.20
     Davidson diagonalization with overlap

---- Real-time Memory Report at c_bands before calling an iterative solver
          3295 MiB given to the printing process from OS
         -1720 MiB allocation reported by mallinfo(arena+hblkhd)
         55211 MiB available memory on the node where the printing process lives
     GPU memory used/free/total (MiB): 2490 / 13790 / 16280
------------------
     ethr =  3.99E-10,  avg # of iterations =  6.5

     total cpu time spent up to now is     1038.1 secs

     total energy              =   -1502.40688716 Ry
     estimated scf accuracy    <       0.00000164 Ry

     total magnetization       =     7.06 Bohr mag/cell
     absolute magnetization    =     7.58 Bohr mag/cell
[tb_dev] Currently allocated     6.21E+00 Mbytes, locked:    0 /  11
[tb_pin] Currently allocated     0.00E+00 Mbytes, locked:    0 /   0

     iteration # 67     ecut=    90.00 Ry     beta= 0.20
     Davidson diagonalization with overlap

---- Real-time Memory Report at c_bands before calling an iterative solver
          3298 MiB given to the printing process from OS
         -1716 MiB allocation reported by mallinfo(arena+hblkhd)
         55203 MiB available memory on the node where the printing process lives
     GPU memory used/free/total (MiB): 2490 / 13790 / 16280
------------------
     ethr =  3.99E-10,  avg # of iterations =  4.3

     total cpu time spent up to now is     1051.3 secs

     total energy              =   -1502.40688569 Ry
     estimated scf accuracy    <       0.00000200 Ry

     total magnetization       =     7.08 Bohr mag/cell
     absolute magnetization    =     7.60 Bohr mag/cell
[tb_dev] Currently allocated     6.21E+00 Mbytes, locked:    0 /  11
[tb_pin] Currently allocated     0.00E+00 Mbytes, locked:    0 /   0

     iteration # 68     ecut=    90.00 Ry     beta= 0.20
     Davidson diagonalization with overlap

---- Real-time Memory Report at c_bands before calling an iterative solver
          3303 MiB given to the printing process from OS
         -1701 MiB allocation reported by mallinfo(arena+hblkhd)
         55193 MiB available memory on the node where the printing process lives
     GPU memory used/free/total (MiB): 2490 / 13790 / 16280
------------------
     ethr =  3.99E-10,  avg # of iterations =  4.6

     total cpu time spent up to now is     1065.0 secs

     total energy              =   -1502.40689248 Ry
     estimated scf accuracy    <       0.00000145 Ry

     total magnetization       =     7.05 Bohr mag/cell
     absolute magnetization    =     7.58 Bohr mag/cell
[tb_dev] Currently allocated     6.21E+00 Mbytes, locked:    0 /  11
[tb_pin] Currently allocated     0.00E+00 Mbytes, locked:    0 /   0

     iteration # 69     ecut=    90.00 Ry     beta= 0.20
     Davidson diagonalization with overlap

---- Real-time Memory Report at c_bands before calling an iterative solver
          3307 MiB given to the printing process from OS
         -1697 MiB allocation reported by mallinfo(arena+hblkhd)
         55191 MiB available memory on the node where the printing process lives
     GPU memory used/free/total (MiB): 2490 / 13790 / 16280
------------------
     ethr =  3.99E-10,  avg # of iterations =  2.1

     total cpu time spent up to now is     1074.3 secs

     total energy              =   -1502.40643264 Ry
     estimated scf accuracy    <       0.00000138 Ry

     total magnetization       =     7.05 Bohr mag/cell
     absolute magnetization    =     7.57 Bohr mag/cell
[tb_dev] Currently allocated     6.21E+00 Mbytes, locked:    0 /  11
[tb_pin] Currently allocated     0.00E+00 Mbytes, locked:    0 /   0

     iteration # 70     ecut=    90.00 Ry     beta= 0.20
     Davidson diagonalization with overlap

---- Real-time Memory Report at c_bands before calling an iterative solver
          3312 MiB given to the printing process from OS
         -1693 MiB allocation reported by mallinfo(arena+hblkhd)
         55186 MiB available memory on the node where the printing process lives
     GPU memory used/free/total (MiB): 2490 / 13790 / 16280
------------------
     ethr =  3.99E-10,  avg # of iterations =  9.0

     total cpu time spent up to now is     1096.5 secs

     total energy              =   -1502.40654264 Ry
     estimated scf accuracy    <       0.00000655 Ry

     total magnetization       =     6.84 Bohr mag/cell
     absolute magnetization    =     7.36 Bohr mag/cell
[tb_dev] Currently allocated     6.21E+00 Mbytes, locked:    0 /  11
[tb_pin] Currently allocated     0.00E+00 Mbytes, locked:    0 /   0

     iteration # 71     ecut=    90.00 Ry     beta= 0.20
     Davidson diagonalization with overlap

---- Real-time Memory Report at c_bands before calling an iterative solver
          3317 MiB given to the printing process from OS
         -1689 MiB allocation reported by mallinfo(arena+hblkhd)
         55183 MiB available memory on the node where the printing process lives
     GPU memory used/free/total (MiB): 2490 / 13790 / 16280
------------------
     ethr =  3.99E-10,  avg # of iterations =  8.4

     total cpu time spent up to now is     1117.9 secs

     total energy              =   -1502.40658645 Ry
     estimated scf accuracy    <       0.00000113 Ry

     total magnetization       =     7.02 Bohr mag/cell
     absolute magnetization    =     7.54 Bohr mag/cell
[tb_dev] Currently allocated     6.21E+00 Mbytes, locked:    0 /  11
[tb_pin] Currently allocated     0.00E+00 Mbytes, locked:    0 /   0

     iteration # 72     ecut=    90.00 Ry     beta= 0.20
     Davidson diagonalization with overlap

---- Real-time Memory Report at c_bands before calling an iterative solver
          3320 MiB given to the printing process from OS
         -1685 MiB allocation reported by mallinfo(arena+hblkhd)
         55183 MiB available memory on the node where the printing process lives
     GPU memory used/free/total (MiB): 2490 / 13790 / 16280
------------------
     ethr =  3.99E-10,  avg # of iterations =  8.4

     total cpu time spent up to now is     1139.3 secs

     total energy              =   -1502.40684986 Ry
     estimated scf accuracy    <       0.00000934 Ry

     total magnetization       =     7.17 Bohr mag/cell
     absolute magnetization    =     7.71 Bohr mag/cell
[tb_dev] Currently allocated     6.21E+00 Mbytes, locked:    0 /  11
[tb_pin] Currently allocated     0.00E+00 Mbytes, locked:    0 /   0

     iteration # 73     ecut=    90.00 Ry     beta= 0.20
     Davidson diagonalization with overlap

---- Real-time Memory Report at c_bands before calling an iterative solver
          3325 MiB given to the printing process from OS
         -1681 MiB allocation reported by mallinfo(arena+hblkhd)
         55178 MiB available memory on the node where the printing process lives
     GPU memory used/free/total (MiB): 2490 / 13790 / 16280
------------------
     ethr =  3.99E-10,  avg # of iterations =  5.7

     total cpu time spent up to now is     1155.0 secs

     total energy              =   -1502.40686848 Ry
     estimated scf accuracy    <       0.00001693 Ry

     total magnetization       =     7.22 Bohr mag/cell
     absolute magnetization    =     7.75 Bohr mag/cell
[tb_dev] Currently allocated     6.21E+00 Mbytes, locked:    0 /  11
[tb_pin] Currently allocated     0.00E+00 Mbytes, locked:    0 /   0

     iteration # 74     ecut=    90.00 Ry     beta= 0.20
     Davidson diagonalization with overlap

---- Real-time Memory Report at c_bands before calling an iterative solver
          3329 MiB given to the printing process from OS
         -1677 MiB allocation reported by mallinfo(arena+hblkhd)
         55175 MiB available memory on the node where the printing process lives
     GPU memory used/free/total (MiB): 2490 / 13790 / 16280
------------------
     ethr =  3.99E-10,  avg # of iterations =  4.7

     total cpu time spent up to now is     1168.8 secs

     total energy              =   -1502.40676335 Ry
     estimated scf accuracy    <       0.00001164 Ry

     total magnetization       =     7.19 Bohr mag/cell
     absolute magnetization    =     7.72 Bohr mag/cell
[tb_dev] Currently allocated     6.21E+00 Mbytes, locked:    0 /  11
[tb_pin] Currently allocated     0.00E+00 Mbytes, locked:    0 /   0

     iteration # 75     ecut=    90.00 Ry     beta= 0.20
     Davidson diagonalization with overlap

---- Real-time Memory Report at c_bands before calling an iterative solver
          3333 MiB given to the printing process from OS
         -1673 MiB allocation reported by mallinfo(arena+hblkhd)
         55173 MiB available memory on the node where the printing process lives
     GPU memory used/free/total (MiB): 2490 / 13790 / 16280
------------------
     ethr =  3.99E-10,  avg # of iterations =  7.6

     total cpu time spent up to now is     1188.2 secs

     total energy              =   -1502.40688180 Ry
     estimated scf accuracy    <       0.00000232 Ry

     total magnetization       =     7.09 Bohr mag/cell
     absolute magnetization    =     7.62 Bohr mag/cell
[tb_dev] Currently allocated     6.21E+00 Mbytes, locked:    0 /  11
[tb_pin] Currently allocated     0.00E+00 Mbytes, locked:    0 /   0

     iteration # 76     ecut=    90.00 Ry     beta= 0.20
     Davidson diagonalization with overlap

---- Real-time Memory Report at c_bands before calling an iterative solver
          3337 MiB given to the printing process from OS
         -1669 MiB allocation reported by mallinfo(arena+hblkhd)
         55167 MiB available memory on the node where the printing process lives
     GPU memory used/free/total (MiB): 2490 / 13790 / 16280
------------------
     ethr =  3.99E-10,  avg # of iterations =  5.1

     total cpu time spent up to now is     1202.9 secs

     total energy              =   -1502.40688910 Ry
     estimated scf accuracy    <       0.00000152 Ry

     total magnetization       =     7.06 Bohr mag/cell
     absolute magnetization    =     7.58 Bohr mag/cell
[tb_dev] Currently allocated     6.21E+00 Mbytes, locked:    0 /  11
[tb_pin] Currently allocated     0.00E+00 Mbytes, locked:    0 /   0

     iteration # 77     ecut=    90.00 Ry     beta= 0.20
     Davidson diagonalization with overlap

---- Real-time Memory Report at c_bands before calling an iterative solver
          3340 MiB given to the printing process from OS
         -1665 MiB allocation reported by mallinfo(arena+hblkhd)
         55167 MiB available memory on the node where the printing process lives
     GPU memory used/free/total (MiB): 2490 / 13790 / 16280
------------------
     ethr =  3.99E-10,  avg # of iterations =  4.0

     total cpu time spent up to now is     1215.0 secs

     total energy              =   -1502.40680198 Ry
     estimated scf accuracy    <       0.00000178 Ry

     total magnetization       =     7.07 Bohr mag/cell
     absolute magnetization    =     7.60 Bohr mag/cell
[tb_dev] Currently allocated     6.21E+00 Mbytes, locked:    0 /  11
[tb_pin] Currently allocated     0.00E+00 Mbytes, locked:    0 /   0

     iteration # 78     ecut=    90.00 Ry     beta= 0.20
     Davidson diagonalization with overlap

---- Real-time Memory Report at c_bands before calling an iterative solver
          3346 MiB given to the printing process from OS
         -1661 MiB allocation reported by mallinfo(arena+hblkhd)
         55161 MiB available memory on the node where the printing process lives
     GPU memory used/free/total (MiB): 2490 / 13790 / 16280
------------------
     ethr =  3.99E-10,  avg # of iterations =  6.9

     total cpu time spent up to now is     1233.2 secs

     total energy              =   -1502.40685314 Ry
     estimated scf accuracy    <       0.00000646 Ry

     total magnetization       =     7.15 Bohr mag/cell
     absolute magnetization    =     7.68 Bohr mag/cell
[tb_dev] Currently allocated     6.21E+00 Mbytes, locked:    0 /  11
[tb_pin] Currently allocated     0.00E+00 Mbytes, locked:    0 /   0

     iteration # 79     ecut=    90.00 Ry     beta= 0.20
     Davidson diagonalization with overlap

---- Real-time Memory Report at c_bands before calling an iterative solver
          3349 MiB given to the printing process from OS
         -1662 MiB allocation reported by mallinfo(arena+hblkhd)
         55162 MiB available memory on the node where the printing process lives
     GPU memory used/free/total (MiB): 2490 / 13790 / 16280
------------------
     ethr =  3.99E-10,  avg # of iterations =  5.8

     total cpu time spent up to now is     1249.3 secs

     total energy              =   -1502.40646832 Ry
     estimated scf accuracy    <       0.00000265 Ry

     total magnetization       =     7.10 Bohr mag/cell
     absolute magnetization    =     7.63 Bohr mag/cell
[tb_dev] Currently allocated     6.21E+00 Mbytes, locked:    0 /  11
[tb_pin] Currently allocated     0.00E+00 Mbytes, locked:    0 /   0

     iteration # 80     ecut=    90.00 Ry     beta= 0.20
     Davidson diagonalization with overlap

---- Real-time Memory Report at c_bands before calling an iterative solver
          3355 MiB given to the printing process from OS
         -1647 MiB allocation reported by mallinfo(arena+hblkhd)
         55152 MiB available memory on the node where the printing process lives
     GPU memory used/free/total (MiB): 2490 / 13790 / 16280
------------------
     ethr =  3.99E-10,  avg # of iterations =  8.9

     total cpu time spent up to now is     1271.6 secs

     total energy              =   -1502.40685123 Ry
     estimated scf accuracy    <       0.00000258 Ry

     total magnetization       =     6.90 Bohr mag/cell
     absolute magnetization    =     7.42 Bohr mag/cell

     End of self-consistent calculation

     convergence NOT achieved after  80 iterations: stopping

     Writing config to output data dir ./out/aiida.save/
 
     init_run     :     27.26s CPU      5.55s WALL (       1 calls)
     electrons    :   1927.84s CPU   1265.24s WALL (       1 calls)

     Called by init_run:
     wfcinit      :      0.82s CPU      0.82s WALL (       1 calls)
                                        0.82s GPU  (       1 calls)
     potinit      :     11.44s CPU      1.21s WALL (       1 calls)
     hinit0       :      8.96s CPU      2.61s WALL (       1 calls)

     Called by electrons:
     c_bands      :   1035.82s CPU   1080.25s WALL (      81 calls)
     sum_band     :    102.78s CPU    112.89s WALL (      81 calls)
     v_of_rho     :     47.63s CPU      4.35s WALL (      81 calls)
     v_h          :      8.53s CPU      0.76s WALL (      81 calls)
     v_xc         :     39.09s CPU      3.58s WALL (      81 calls)
     newd         :     94.95s CPU      9.04s WALL (      81 calls)
                                        9.04s GPU  (      81 calls)
     PAW_pot      :    603.16s CPU     54.61s WALL (      81 calls)
     mix_rho      :     35.74s CPU      3.54s WALL (      81 calls)

     Called by c_bands:
     init_us_2    :     38.15s CPU     41.76s WALL (   30780 calls)
     init_us_2:gp :     37.61s CPU     41.24s WALL (   30780 calls)
     cegterg      :    942.73s CPU    983.81s WALL (   15390 calls)

     Called by sum_band:
     sum_band:wei :      0.72s CPU      0.73s WALL (      81 calls)
                                        0.73s GPU  (      81 calls)
     sum_band:loo :     87.87s CPU     97.72s WALL (      81 calls)
                                       97.72s GPU  (      81 calls)
     sum_band:buf :     27.32s CPU     28.81s WALL (   15390 calls)
                                       28.72s GPU  (   15390 calls)
     sum_band:ini :     17.61s CPU     20.42s WALL (   15390 calls)
                                       20.34s GPU  (   15390 calls)
     sum_band:cal :      0.42s CPU      3.27s WALL (   15390 calls)
                                        2.89s GPU  (   15390 calls)
     sum_band:bec :      3.24s CPU      3.63s WALL (   15390 calls)
                                        3.53s GPU  (   15390 calls)
     addusdens    :     10.56s CPU     10.80s WALL (      81 calls)
                                       10.80s GPU  (      81 calls)
     addusd:skk   :      0.03s CPU      0.03s WALL (     243 calls)
                                        0.03s GPU  (     243 calls)

     Called by *egterg:
     cdiaghg      :    415.59s CPU    461.60s WALL (   99951 calls)
                                      460.94s GPU  (   99951 calls)
     cegterg:over :     23.45s CPU     23.69s WALL (   84941 calls)
     cegterg:upda :     47.60s CPU     48.43s WALL (   84941 calls)
     cegterg:last :     21.80s CPU     21.66s WALL (   55183 calls)
     h_psi        :    374.98s CPU    371.30s WALL (  100331 calls)
                                      370.32s GPU  (  100331 calls)
     s_psi        :     11.41s CPU     23.96s WALL (  100331 calls)
                                       21.98s GPU  (  100331 calls)
     g_psi        :      0.60s CPU      3.32s WALL (   84941 calls)
                                        2.77s GPU  (   84941 calls)

     Called by h_psi:
     h_psi:calbec :      3.18s CPU     18.09s WALL (  100331 calls)
                                       17.43s GPU  (  100331 calls)
     vloc_psi     :    321.11s CPU    319.66s WALL (  100331 calls)
                                      319.02s GPU  (  100331 calls)
     add_vuspsi   :     15.81s CPU     25.69s WALL (  100331 calls)
                                       25.04s GPU  (  100331 calls)

     General routines
     calbec       :      2.56s CPU      2.59s WALL (  115721 calls)
     fft          :      2.72s CPU      0.63s WALL (    2025 calls)
                                        0.50s GPU  (    1863 calls)
     ffts         :      0.04s CPU      0.03s WALL (     324 calls)
                                        0.01s GPU  (     162 calls)
     fftw         :     10.87s CPU    227.96s WALL (  557348 calls)
                                      224.92s GPU  (  557348 calls)
     interpolate  :      4.94s CPU      0.44s WALL (     162 calls)
     davcio       :      0.38s CPU      1.62s WALL (     398 calls)
 
     Parallel routines

     PAW routines
     PAW_pot      :    603.16s CPU     54.61s WALL (      81 calls)
     PAW_symme    :      0.74s CPU      0.12s WALL (     161 calls)
 
     PWSCF        :  32m38.17s CPU  21m12.85s WALL

 
   This run was terminated on:  22:39:55  23Oct2023            

=------------------------------------------------------------------------------=
   JOB DONE.
=------------------------------------------------------------------------------=
