
     Program PWSCF v.7.2 starts on 23Oct2023 at 21:44:46 

     This program is part of the open-source Quantum ESPRESSO suite
     for quantum simulation of materials; please cite
         "P. Giannozzi et al., J. Phys.:Condens. Matter 21 395502 (2009);
         "P. Giannozzi et al., J. Phys.:Condens. Matter 29 465901 (2017);
         "P. Giannozzi et al., J. Chem. Phys. 152 154105 (2020);
          URL http://www.quantum-espresso.org", 
     in publications or presentations arising from this work. More details at
     http://www.quantum-espresso.org/quote

     Parallel version (MPI & OpenMP), running on      12 processor cores
     Number of MPI processes:                 1
     Threads/MPI process:                    12

     MPI processes distributed on     1 nodes
     60361 MiB available memory on the printing compute node when the environment starts
 
     Reading input from aiida.in

     Current dimensions of program PWSCF are:
     Max number of different atomic species (ntypx) = 10
     Max number of k-points (npk) =  40000
     Max angular momentum in pseudopotentials (lmaxx) =  4
     file Ba.pbesol-spn-kjpaw_psl.1.0.0.UPF: wavefunction(s)  5S 6S renormalized
     Message from routine setup:
     using ibrav=0 with symmetry is DISCOURAGED, use correct ibrav instead
 
     Subspace diagonalization in iterative solution of the eigenvalue problem:
     a serial algorithm will be used

 
     G-vector sticks info
     --------------------
     sticks:   dense  smooth     PW     G-vecs:    dense   smooth      PW
     Sum        6377    3191    871               544375   192345   27653
 
     Using Slab Decomposition
 


     bravais-lattice index     =            0
     lattice parameter (alat)  =      16.6863  a.u.
     unit-cell volume          =    3066.0244 (a.u.)^3
     number of atoms/cell      =           12
     number of atomic types    =            3
     number of electrons       =       136.00
     number of Kohn-Sham states=           82
     kinetic-energy cutoff     =      60.0000  Ry
     charge density cutoff     =     480.0000  Ry
     scf convergence threshold =      2.4E-09
     mixing beta               =       0.2000
     number of iterations used =            8  plain     mixing
     Exchange-correlation= SLA  PW   PSX  PSC
                           (   1   4  10   8   0   0   0)

     GPU acceleration is ACTIVE.


     GPU used by master process:

        Device Number: 0
        Device name: Tesla P100-PCIE-16GB
        Compute capability : 60
        Ratio of single to double precision performance  : 2
        Memory Clock Rate (KHz): 715000
        Memory Bus Width (bits): 4096
        Peak Memory Bandwidth (GB/s): 732.16

     celldm(1)=  16.686282  celldm(2)=   0.000000  celldm(3)=   0.000000
     celldm(4)=   0.000000  celldm(5)=   0.000000  celldm(6)=   0.000000

     crystal axes: (cart. coord. in units of alat)
               a(1) = (   1.000000   0.000000   0.000000 )  
               a(2) = (   0.000000   0.601359   0.000000 )  
               a(3) = (   0.000000   0.000000   1.097395 )  

     reciprocal axes: (cart. coord. in units 2 pi/alat)
               b(1) = (  1.000000  0.000000  0.000000 )  
               b(2) = (  0.000000  1.662900  0.000000 )  
               b(3) = (  0.000000  0.000000  0.911249 )  


     PseudoPot. # 1 for Ba read from file:
     ./pseudo/Ba.pbesol-spn-kjpaw_psl.1.0.0.UPF
     MD5 check sum: f28c4a63d325c1a0d00fd3a4f19b8d73
     Pseudo is Projector augmented-wave + core cor, Zval = 10.0
     Generated using "atomic" code by A. Dal Corso  v.6.0 svn rev. 13079
     Shape of augmentation charge: PSQ
     Using radial grid of 1251 points,  7 beta functions with: 
                l(1) =   0
                l(2) =   0
                l(3) =   0
                l(4) =   1
                l(5) =   1
                l(6) =   2
                l(7) =   2
     Q(r) pseudized with 0 coefficients 


     PseudoPot. # 2 for Ca read from file:
     ./pseudo/ca_pbesol_v1.uspp.F.UPF
     MD5 check sum: 0533207b58cddeaa036efa5b63902087
     Pseudo is Ultrasoft + core correction, Zval = 10.0
     Generated by new atomic code, or converted to UPF format
     Using radial grid of  845 points,  6 beta functions with: 
                l(1) =   0
                l(2) =   0
                l(3) =   1
                l(4) =   1
                l(5) =   2
                l(6) =   2
     Q(r) pseudized with  8 coefficients,  rinner =    1.500   1.500   1.500
                                                       1.500   1.500

     PseudoPot. # 3 for Sn read from file:
     ./pseudo/sn_pbesol_v1.4.uspp.F.UPF
     MD5 check sum: 463fec1d5456f1e96ec1bfcad4b7b038
     Pseudo is Ultrasoft + core correction, Zval = 14.0
     Generated by new atomic code, or converted to UPF format
     Using radial grid of  891 points,  6 beta functions with: 
                l(1) =   0
                l(2) =   0
                l(3) =   1
                l(4) =   1
                l(5) =   2
                l(6) =   2
     Q(r) pseudized with  8 coefficients,  rinner =    1.350   1.350   1.350
                                                       1.350   1.350

     atomic species   valence    mass     pseudopotential
        Ba            10.00   137.32700     Ba( 1.00)
        Ca            10.00    40.07800     Ca( 1.00)
        Sn            14.00   118.71000     Sn( 1.00)

     Starting magnetic structure 
     atomic species   magnetization
        Ba           0.100
        Ca           0.100
        Sn           0.100

      8 Sym. Ops., with inversion, found ( 6 have fractional translation)


                                    s                        frac. trans.

      isym =  1     identity                                     

 cryst.   s( 1) = (     1          0          0      )
                  (     0          1          0      )
                  (     0          0          1      )

 cart.    s( 1) = (  1.0000000  0.0000000  0.0000000 )
                  (  0.0000000  1.0000000  0.0000000 )
                  (  0.0000000  0.0000000  1.0000000 )


      isym =  2     180 deg rotation - cart. axis [0,0,1]        

 cryst.   s( 2) = (    -1          0          0      )    f =(  0.5000000 )
                  (     0         -1          0      )       (  0.0000000 )
                  (     0          0          1      )       (  0.5000000 )

 cart.    s( 2) = ( -1.0000000  0.0000000  0.0000000 )    f =(  0.5000000 )
                  (  0.0000000 -1.0000000  0.0000000 )       (  0.0000000 )
                  (  0.0000000  0.0000000  1.0000000 )       (  0.5486976 )


      isym =  3     180 deg rotation - cart. axis [0,1,0]        

 cryst.   s( 3) = (    -1          0          0      )    f =(  0.0000000 )
                  (     0          1          0      )       (  0.5000000 )
                  (     0          0         -1      )       (  0.0000000 )

 cart.    s( 3) = ( -1.0000000  0.0000000  0.0000000 )    f =(  0.0000000 )
                  (  0.0000000  1.0000000  0.0000000 )       (  0.3006795 )
                  (  0.0000000  0.0000000 -1.0000000 )       (  0.0000000 )


      isym =  4     180 deg rotation - cart. axis [1,0,0]        

 cryst.   s( 4) = (     1          0          0      )    f =(  0.5000000 )
                  (     0         -1          0      )       (  0.5000000 )
                  (     0          0         -1      )       (  0.5000000 )

 cart.    s( 4) = (  1.0000000  0.0000000  0.0000000 )    f =(  0.5000000 )
                  (  0.0000000 -1.0000000  0.0000000 )       (  0.3006795 )
                  (  0.0000000  0.0000000 -1.0000000 )       (  0.5486976 )


      isym =  5     inversion                                    

 cryst.   s( 5) = (    -1          0          0      )
                  (     0         -1          0      )
                  (     0          0         -1      )

 cart.    s( 5) = ( -1.0000000  0.0000000  0.0000000 )
                  (  0.0000000 -1.0000000  0.0000000 )
                  (  0.0000000  0.0000000 -1.0000000 )


      isym =  6     inv. 180 deg rotation - cart. axis [0,0,1]   

 cryst.   s( 6) = (     1          0          0      )    f =(  0.5000000 )
                  (     0          1          0      )       (  0.0000000 )
                  (     0          0         -1      )       (  0.5000000 )

 cart.    s( 6) = (  1.0000000  0.0000000  0.0000000 )    f =(  0.5000000 )
                  (  0.0000000  1.0000000  0.0000000 )       (  0.0000000 )
                  (  0.0000000  0.0000000 -1.0000000 )       (  0.5486976 )


      isym =  7     inv. 180 deg rotation - cart. axis [0,1,0]   

 cryst.   s( 7) = (     1          0          0      )    f =(  0.0000000 )
                  (     0         -1          0      )       (  0.5000000 )
                  (     0          0          1      )       (  0.0000000 )

 cart.    s( 7) = (  1.0000000  0.0000000  0.0000000 )    f =(  0.0000000 )
                  (  0.0000000 -1.0000000  0.0000000 )       (  0.3006795 )
                  (  0.0000000  0.0000000  1.0000000 )       (  0.0000000 )


      isym =  8     inv. 180 deg rotation - cart. axis [1,0,0]   

 cryst.   s( 8) = (    -1          0          0      )    f =(  0.5000000 )
                  (     0          1          0      )       (  0.5000000 )
                  (     0          0          1      )       (  0.5000000 )

 cart.    s( 8) = ( -1.0000000  0.0000000  0.0000000 )    f =(  0.5000000 )
                  (  0.0000000  1.0000000  0.0000000 )       (  0.3006795 )
                  (  0.0000000  0.0000000  1.0000000 )       (  0.5486976 )


   Cartesian axes

     site n.     atom                  positions (alat units)
         1           Ba  tau(   1) = (   0.9790000   0.4510193   0.7473262  )
         2           Ba  tau(   2) = (   0.4790000   0.4510193   0.8987667  )
         3           Ba  tau(   3) = (   0.0210000   0.1503398   0.3500691  )
         4           Ba  tau(   4) = (   0.5210000   0.1503398   0.1986285  )
         5           Ca  tau(   5) = (   0.8540000   0.4510193   0.0768177  )
         6           Ca  tau(   6) = (   0.3540000   0.4510193   0.4718800  )
         7           Ca  tau(   7) = (   0.1460000   0.1503398   1.0205776  )
         8           Ca  tau(   8) = (   0.6460000   0.1503398   0.6255153  )
         9           Sn  tau(   9) = (   0.7260000   0.4510193   0.4312763  )
        10           Sn  tau(  10) = (   0.2260000   0.4510193   0.1174213  )
        11           Sn  tau(  11) = (   0.2740000   0.1503398   0.6661189  )
        12           Sn  tau(  12) = (   0.7740000   0.1503398   0.9799740  )

   Crystallographic axes

     site n.     atom                  positions (cryst. coord.)
         1           Ba  tau(   1) = (  0.9790000  0.7500000  0.6810000  )
         2           Ba  tau(   2) = (  0.4790000  0.7500000  0.8190000  )
         3           Ba  tau(   3) = (  0.0210000  0.2500000  0.3190000  )
         4           Ba  tau(   4) = (  0.5210000  0.2500000  0.1810000  )
         5           Ca  tau(   5) = (  0.8540000  0.7500000  0.0700000  )
         6           Ca  tau(   6) = (  0.3540000  0.7500000  0.4300000  )
         7           Ca  tau(   7) = (  0.1460000  0.2500000  0.9300000  )
         8           Ca  tau(   8) = (  0.6460000  0.2500000  0.5700000  )
         9           Sn  tau(   9) = (  0.7260000  0.7500000  0.3930000  )
        10           Sn  tau(  10) = (  0.2260000  0.7500000  0.1070000  )
        11           Sn  tau(  11) = (  0.2740000  0.2500000  0.6070000  )
        12           Sn  tau(  12) = (  0.7740000  0.2500000  0.8930000  )

     number of k points=    45  Marzari-Vanderbilt smearing, width (Ry)=  0.0100
                       cart. coord. in units 2pi/alat
        k(    1) = (   0.0000000   0.0000000   0.0000000), wk =   0.0050000
        k(    2) = (   0.0000000   0.0000000   0.1822497), wk =   0.0100000
        k(    3) = (   0.0000000   0.0000000   0.3644995), wk =   0.0100000
        k(    4) = (   0.0000000   0.2078625   0.0000000), wk =   0.0100000
        k(    5) = (   0.0000000   0.2078625   0.1822497), wk =   0.0200000
        k(    6) = (   0.0000000   0.2078625   0.3644995), wk =   0.0200000
        k(    7) = (   0.0000000   0.4157250   0.0000000), wk =   0.0100000
        k(    8) = (   0.0000000   0.4157250   0.1822497), wk =   0.0200000
        k(    9) = (   0.0000000   0.4157250   0.3644995), wk =   0.0200000
        k(   10) = (   0.0000000   0.6235876   0.0000000), wk =   0.0100000
        k(   11) = (   0.0000000   0.6235876   0.1822497), wk =   0.0200000
        k(   12) = (   0.0000000   0.6235876   0.3644995), wk =   0.0200000
        k(   13) = (   0.0000000  -0.8314501   0.0000000), wk =   0.0050000
        k(   14) = (   0.0000000  -0.8314501   0.1822497), wk =   0.0100000
        k(   15) = (   0.0000000  -0.8314501   0.3644995), wk =   0.0100000
        k(   16) = (   0.2000000   0.0000000   0.0000000), wk =   0.0100000
        k(   17) = (   0.2000000   0.0000000   0.1822497), wk =   0.0200000
        k(   18) = (   0.2000000   0.0000000   0.3644995), wk =   0.0200000
        k(   19) = (   0.2000000   0.2078625   0.0000000), wk =   0.0200000
        k(   20) = (   0.2000000   0.2078625   0.1822497), wk =   0.0400000
        k(   21) = (   0.2000000   0.2078625   0.3644995), wk =   0.0400000
        k(   22) = (   0.2000000   0.4157250   0.0000000), wk =   0.0200000
        k(   23) = (   0.2000000   0.4157250   0.1822497), wk =   0.0400000
        k(   24) = (   0.2000000   0.4157250   0.3644995), wk =   0.0400000
        k(   25) = (   0.2000000   0.6235876   0.0000000), wk =   0.0200000
        k(   26) = (   0.2000000   0.6235876   0.1822497), wk =   0.0400000
        k(   27) = (   0.2000000   0.6235876   0.3644995), wk =   0.0400000
        k(   28) = (   0.2000000  -0.8314501   0.0000000), wk =   0.0100000
        k(   29) = (   0.2000000  -0.8314501   0.1822497), wk =   0.0200000
        k(   30) = (   0.2000000  -0.8314501   0.3644995), wk =   0.0200000
        k(   31) = (   0.4000000   0.0000000   0.0000000), wk =   0.0100000
        k(   32) = (   0.4000000   0.0000000   0.1822497), wk =   0.0200000
        k(   33) = (   0.4000000   0.0000000   0.3644995), wk =   0.0200000
        k(   34) = (   0.4000000   0.2078625   0.0000000), wk =   0.0200000
        k(   35) = (   0.4000000   0.2078625   0.1822497), wk =   0.0400000
        k(   36) = (   0.4000000   0.2078625   0.3644995), wk =   0.0400000
        k(   37) = (   0.4000000   0.4157250   0.0000000), wk =   0.0200000
        k(   38) = (   0.4000000   0.4157250   0.1822497), wk =   0.0400000
        k(   39) = (   0.4000000   0.4157250   0.3644995), wk =   0.0400000
        k(   40) = (   0.4000000   0.6235876   0.0000000), wk =   0.0200000
        k(   41) = (   0.4000000   0.6235876   0.1822497), wk =   0.0400000
        k(   42) = (   0.4000000   0.6235876   0.3644995), wk =   0.0400000
        k(   43) = (   0.4000000  -0.8314501   0.0000000), wk =   0.0100000
        k(   44) = (   0.4000000  -0.8314501   0.1822497), wk =   0.0200000
        k(   45) = (   0.4000000  -0.8314501   0.3644995), wk =   0.0200000

                       cryst. coord.
        k(    1) = (   0.0000000   0.0000000   0.0000000), wk =   0.0050000
        k(    2) = (   0.0000000   0.0000000   0.2000000), wk =   0.0100000
        k(    3) = (   0.0000000   0.0000000   0.4000000), wk =   0.0100000
        k(    4) = (   0.0000000   0.1250000   0.0000000), wk =   0.0100000
        k(    5) = (   0.0000000   0.1250000   0.2000000), wk =   0.0200000
        k(    6) = (   0.0000000   0.1250000   0.4000000), wk =   0.0200000
        k(    7) = (   0.0000000   0.2500000   0.0000000), wk =   0.0100000
        k(    8) = (   0.0000000   0.2500000   0.2000000), wk =   0.0200000
        k(    9) = (   0.0000000   0.2500000   0.4000000), wk =   0.0200000
        k(   10) = (   0.0000000   0.3750000   0.0000000), wk =   0.0100000
        k(   11) = (   0.0000000   0.3750000   0.2000000), wk =   0.0200000
        k(   12) = (   0.0000000   0.3750000   0.4000000), wk =   0.0200000
        k(   13) = (   0.0000000  -0.5000000   0.0000000), wk =   0.0050000
        k(   14) = (   0.0000000  -0.5000000   0.2000000), wk =   0.0100000
        k(   15) = (   0.0000000  -0.5000000   0.4000000), wk =   0.0100000
        k(   16) = (   0.2000000   0.0000000   0.0000000), wk =   0.0100000
        k(   17) = (   0.2000000   0.0000000   0.2000000), wk =   0.0200000
        k(   18) = (   0.2000000   0.0000000   0.4000000), wk =   0.0200000
        k(   19) = (   0.2000000   0.1250000   0.0000000), wk =   0.0200000
        k(   20) = (   0.2000000   0.1250000   0.2000000), wk =   0.0400000
        k(   21) = (   0.2000000   0.1250000   0.4000000), wk =   0.0400000
        k(   22) = (   0.2000000   0.2500000   0.0000000), wk =   0.0200000
        k(   23) = (   0.2000000   0.2500000   0.2000000), wk =   0.0400000
        k(   24) = (   0.2000000   0.2500000   0.4000000), wk =   0.0400000
        k(   25) = (   0.2000000   0.3750000   0.0000000), wk =   0.0200000
        k(   26) = (   0.2000000   0.3750000   0.2000000), wk =   0.0400000
        k(   27) = (   0.2000000   0.3750000   0.4000000), wk =   0.0400000
        k(   28) = (   0.2000000  -0.5000000   0.0000000), wk =   0.0100000
        k(   29) = (   0.2000000  -0.5000000   0.2000000), wk =   0.0200000
        k(   30) = (   0.2000000  -0.5000000   0.4000000), wk =   0.0200000
        k(   31) = (   0.4000000   0.0000000   0.0000000), wk =   0.0100000
        k(   32) = (   0.4000000   0.0000000   0.2000000), wk =   0.0200000
        k(   33) = (   0.4000000   0.0000000   0.4000000), wk =   0.0200000
        k(   34) = (   0.4000000   0.1250000   0.0000000), wk =   0.0200000
        k(   35) = (   0.4000000   0.1250000   0.2000000), wk =   0.0400000
        k(   36) = (   0.4000000   0.1250000   0.4000000), wk =   0.0400000
        k(   37) = (   0.4000000   0.2500000   0.0000000), wk =   0.0200000
        k(   38) = (   0.4000000   0.2500000   0.2000000), wk =   0.0400000
        k(   39) = (   0.4000000   0.2500000   0.4000000), wk =   0.0400000
        k(   40) = (   0.4000000   0.3750000   0.0000000), wk =   0.0200000
        k(   41) = (   0.4000000   0.3750000   0.2000000), wk =   0.0400000
        k(   42) = (   0.4000000   0.3750000   0.4000000), wk =   0.0400000
        k(   43) = (   0.4000000  -0.5000000   0.0000000), wk =   0.0100000
        k(   44) = (   0.4000000  -0.5000000   0.2000000), wk =   0.0200000
        k(   45) = (   0.4000000  -0.5000000   0.4000000), wk =   0.0200000

     Dense  grid:   544375 G-vectors     FFT dimensions: ( 120,  72, 128)

     Smooth grid:   192345 G-vectors     FFT dimensions: (  90,  50,  96)

     Dynamical RAM for                 wfc:      30.11 MB

     Dynamical RAM for     wfc (w. buffer):    2739.84 MB

     Dynamical RAM for           str. fact:      24.92 MB

     Dynamical RAM for           local pot:       0.00 MB

     Dynamical RAM for          nlocal pot:      80.78 MB

     Dynamical RAM for                qrad:       7.03 MB

     Dynamical RAM for          rho,v,vnew:     100.46 MB

     Dynamical RAM for               rhoin:      33.49 MB

     Dynamical RAM for            rho*nmix:     265.81 MB

     Dynamical RAM for           G-vectors:      32.62 MB

     Dynamical RAM for          h,s,v(r/c):       1.23 MB

     Dynamical RAM for          <psi|beta>:       0.28 MB

     Dynamical RAM for                 psi:      60.22 MB

     Dynamical RAM for                hpsi:      60.22 MB

     Dynamical RAM for                spsi:      60.22 MB

     Dynamical RAM for      wfcinit/wfcrot:      60.37 MB

     Dynamical RAM for           addusdens:    1744.37 MB

     Dynamical RAM for          addusforce:    1794.24 MB

     Dynamical RAM for         addusstress:    1839.89 MB

     Estimated static dynamical RAM per process >       3.03 GB

     Estimated max dynamical RAM per process >       5.09 GB

     Atomic positions and unit cell read from directory:
     ./out/aiida.save/
 
     Generating pointlists ...
     new r_m :   0.1670 (alat units)  2.7866 (a.u.) for type    1
     new r_m :   0.1513 (alat units)  2.5247 (a.u.) for type    2
     new r_m :   0.1513 (alat units)  2.5247 (a.u.) for type    3

     The initial density is read from file :
     ./out/aiida.save/charge-density


     negative rho (up, down):  3.057E+00 7.911E-01
     Starting wfcs from file
     Checking if some PAW data can be deallocated... 

     total cpu time spent up to now is        8.5 secs

     per-process dynamical memory:   700.1 Mb

     Self-consistent Calculation
[tb_dev] Currently allocated     9.16E-05 Mbytes, locked:    0 /   2
[tb_pin] Currently allocated     0.00E+00 Mbytes, locked:    0 /   0

     iteration #  1     ecut=    60.00 Ry     beta= 0.20
     Davidson diagonalization with overlap

---- Real-time Memory Report at c_bands before calling an iterative solver
          1107 MiB given to the printing process from OS
           715 MiB allocation reported by mallinfo(arena+hblkhd)
         58579 MiB available memory on the node where the printing process lives
     GPU memory used/free/total (MiB): 1668 / 14612 / 16280
------------------
     c_bands:  2 eigenvalues not converged
     c_bands:  1 eigenvalues not converged
     c_bands:  1 eigenvalues not converged
     c_bands:  1 eigenvalues not converged
     c_bands:  2 eigenvalues not converged
     c_bands:  2 eigenvalues not converged
     c_bands:  1 eigenvalues not converged
     c_bands:  2 eigenvalues not converged
     c_bands:  1 eigenvalues not converged
     c_bands:  1 eigenvalues not converged
     c_bands:  1 eigenvalues not converged
     c_bands:  1 eigenvalues not converged
     c_bands:  1 eigenvalues not converged
     ethr =  1.00E-05,  avg # of iterations = 11.2
     Minimization algorithm failed to find Fermi energy: reverting to bisection
     Possible cause: smearing is larger than the electronic band-gap.

     negative rho (up, down):  3.065E+00 7.132E-01

     total cpu time spent up to now is       37.1 secs

     total energy              =   -2654.53428483 Ry
     estimated scf accuracy    <       0.23505455 Ry

     total magnetization       =     0.00 Bohr mag/cell
     absolute magnetization    =     6.68 Bohr mag/cell
[tb_dev] Currently allocated     2.09E+01 Mbytes, locked:    0 /  11
[tb_pin] Currently allocated     0.00E+00 Mbytes, locked:    0 /   0

     iteration #  2     ecut=    60.00 Ry     beta= 0.20
     Davidson diagonalization with overlap

---- Real-time Memory Report at c_bands before calling an iterative solver
          4555 MiB given to the printing process from OS
          -267 MiB allocation reported by mallinfo(arena+hblkhd)
         51975 MiB available memory on the node where the printing process lives
     GPU memory used/free/total (MiB): 4796 / 11484 / 16280
------------------
     ethr =  1.73E-04,  avg # of iterations =  5.0
     Minimization algorithm failed to find Fermi energy: reverting to bisection
     Possible cause: smearing is larger than the electronic band-gap.

     negative rho (up, down):  3.037E+00 7.266E-01

     total cpu time spent up to now is       54.3 secs

     total energy              =   -2654.57050176 Ry
     estimated scf accuracy    <       1.67558673 Ry

     total magnetization       =     0.00 Bohr mag/cell
     absolute magnetization    =     6.58 Bohr mag/cell
[tb_dev] Currently allocated     2.09E+01 Mbytes, locked:    0 /  11
[tb_pin] Currently allocated     0.00E+00 Mbytes, locked:    0 /   0

     iteration #  3     ecut=    60.00 Ry     beta= 0.20
     Davidson diagonalization with overlap

---- Real-time Memory Report at c_bands before calling an iterative solver
          4663 MiB given to the printing process from OS
          -241 MiB allocation reported by mallinfo(arena+hblkhd)
         51954 MiB available memory on the node where the printing process lives
     GPU memory used/free/total (MiB): 4796 / 11484 / 16280
------------------
     ethr =  1.73E-04,  avg # of iterations =  1.5
     Minimization algorithm failed to find Fermi energy: reverting to bisection
     Possible cause: smearing is larger than the electronic band-gap.

     negative rho (up, down):  3.037E+00 7.295E-01

     total cpu time spent up to now is       67.9 secs

     total energy              =   -2654.57268555 Ry
     estimated scf accuracy    <       1.90157890 Ry

     total magnetization       =     0.00 Bohr mag/cell
     absolute magnetization    =     7.02 Bohr mag/cell
[tb_dev] Currently allocated     2.09E+01 Mbytes, locked:    0 /  11
[tb_pin] Currently allocated     0.00E+00 Mbytes, locked:    0 /   0

     iteration #  4     ecut=    60.00 Ry     beta= 0.20
     Davidson diagonalization with overlap

---- Real-time Memory Report at c_bands before calling an iterative solver
          4774 MiB given to the printing process from OS
          -215 MiB allocation reported by mallinfo(arena+hblkhd)
         51927 MiB available memory on the node where the printing process lives
     GPU memory used/free/total (MiB): 4796 / 11484 / 16280
------------------
     ethr =  1.73E-04,  avg # of iterations =  1.0
     Minimization algorithm failed to find Fermi energy: reverting to bisection
     Possible cause: smearing is larger than the electronic band-gap.

     negative rho (up, down):  3.009E+00 6.970E-01

     total cpu time spent up to now is       81.2 secs

     total energy              =   -2654.58422208 Ry
     estimated scf accuracy    <       2.03964176 Ry

     total magnetization       =     0.00 Bohr mag/cell
     absolute magnetization    =     7.17 Bohr mag/cell
[tb_dev] Currently allocated     2.09E+01 Mbytes, locked:    0 /  11
[tb_pin] Currently allocated     0.00E+00 Mbytes, locked:    0 /   0

     iteration #  5     ecut=    60.00 Ry     beta= 0.20
     Davidson diagonalization with overlap

---- Real-time Memory Report at c_bands before calling an iterative solver
          4834 MiB given to the printing process from OS
          -189 MiB allocation reported by mallinfo(arena+hblkhd)
         51904 MiB available memory on the node where the printing process lives
     GPU memory used/free/total (MiB): 4796 / 11484 / 16280
------------------
     ethr =  1.73E-04,  avg # of iterations =  2.0
     Minimization algorithm failed to find Fermi energy: reverting to bisection
     Possible cause: smearing is larger than the electronic band-gap.

     negative rho (up, down):  3.084E+00 5.499E-01

     total cpu time spent up to now is       95.6 secs

     total energy              =   -2654.50687335 Ry
     estimated scf accuracy    <       2.48724609 Ry

     total magnetization       =     0.00 Bohr mag/cell
     absolute magnetization    =     8.17 Bohr mag/cell
[tb_dev] Currently allocated     2.09E+01 Mbytes, locked:    0 /  11
[tb_pin] Currently allocated     0.00E+00 Mbytes, locked:    0 /   0

     iteration #  6     ecut=    60.00 Ry     beta= 0.20
     Davidson diagonalization with overlap

---- Real-time Memory Report at c_bands before calling an iterative solver
          4876 MiB given to the printing process from OS
          -163 MiB allocation reported by mallinfo(arena+hblkhd)
         51878 MiB available memory on the node where the printing process lives
     GPU memory used/free/total (MiB): 4796 / 11484 / 16280
------------------
     ethr =  1.73E-04,  avg # of iterations =  3.5
     Minimization algorithm failed to find Fermi energy: reverting to bisection
     Possible cause: smearing is larger than the electronic band-gap.

     negative rho (up, down):  3.082E+00 6.540E-01

     total cpu time spent up to now is      111.9 secs

     total energy              =   -2654.54289029 Ry
     estimated scf accuracy    <       1.79689424 Ry

     total magnetization       =     0.00 Bohr mag/cell
     absolute magnetization    =     4.85 Bohr mag/cell
[tb_dev] Currently allocated     2.09E+01 Mbytes, locked:    0 /  11
[tb_pin] Currently allocated     0.00E+00 Mbytes, locked:    0 /   0

     iteration #  7     ecut=    60.00 Ry     beta= 0.20
     Davidson diagonalization with overlap

---- Real-time Memory Report at c_bands before calling an iterative solver
          4891 MiB given to the printing process from OS
          -148 MiB allocation reported by mallinfo(arena+hblkhd)
         51865 MiB available memory on the node where the printing process lives
     GPU memory used/free/total (MiB): 4796 / 11484 / 16280
------------------
     ethr =  1.73E-04,  avg # of iterations =  1.5
     Minimization algorithm failed to find Fermi energy: reverting to bisection
     Possible cause: smearing is larger than the electronic band-gap.

     negative rho (up, down):  3.078E+00 6.738E-01

     total cpu time spent up to now is      125.8 secs

     total energy              =   -2654.54386763 Ry
     estimated scf accuracy    <       0.94948239 Ry

     total magnetization       =     0.00 Bohr mag/cell
     absolute magnetization    =     5.19 Bohr mag/cell
[tb_dev] Currently allocated     2.09E+01 Mbytes, locked:    0 /  11
[tb_pin] Currently allocated     0.00E+00 Mbytes, locked:    0 /   0

     iteration #  8     ecut=    60.00 Ry     beta= 0.20
     Davidson diagonalization with overlap

---- Real-time Memory Report at c_bands before calling an iterative solver
          4917 MiB given to the printing process from OS
          -122 MiB allocation reported by mallinfo(arena+hblkhd)
         51837 MiB available memory on the node where the printing process lives
     GPU memory used/free/total (MiB): 4796 / 11484 / 16280
------------------
     ethr =  1.73E-04,  avg # of iterations =  1.5
     Minimization algorithm failed to find Fermi energy: reverting to bisection
     Possible cause: smearing is larger than the electronic band-gap.

     negative rho (up, down):  3.080E+00 6.694E-01

     total cpu time spent up to now is      139.6 secs

     total energy              =   -2654.54544735 Ry
     estimated scf accuracy    <       0.69242947 Ry

     total magnetization       =     0.00 Bohr mag/cell
     absolute magnetization    =     5.44 Bohr mag/cell
[tb_dev] Currently allocated     2.09E+01 Mbytes, locked:    0 /  11
[tb_pin] Currently allocated     0.00E+00 Mbytes, locked:    0 /   0

     iteration #  9     ecut=    60.00 Ry     beta= 0.20
     Davidson diagonalization with overlap

---- Real-time Memory Report at c_bands before calling an iterative solver
          4937 MiB given to the printing process from OS
          -102 MiB allocation reported by mallinfo(arena+hblkhd)
         51820 MiB available memory on the node where the printing process lives
     GPU memory used/free/total (MiB): 4796 / 11484 / 16280
------------------
     ethr =  1.73E-04,  avg # of iterations =  1.1
     Minimization algorithm failed to find Fermi energy: reverting to bisection
     Possible cause: smearing is larger than the electronic band-gap.

     negative rho (up, down):  3.063E+00 7.118E-01

     total cpu time spent up to now is      153.0 secs

     total energy              =   -2654.54438829 Ry
     estimated scf accuracy    <       0.67100045 Ry

     total magnetization       =     0.00 Bohr mag/cell
     absolute magnetization    =     5.56 Bohr mag/cell
[tb_dev] Currently allocated     2.09E+01 Mbytes, locked:    0 /  11
[tb_pin] Currently allocated     0.00E+00 Mbytes, locked:    0 /   0

     iteration # 10     ecut=    60.00 Ry     beta= 0.20
     Davidson diagonalization with overlap

---- Real-time Memory Report at c_bands before calling an iterative solver
          4957 MiB given to the printing process from OS
           -82 MiB allocation reported by mallinfo(arena+hblkhd)
         51790 MiB available memory on the node where the printing process lives
     GPU memory used/free/total (MiB): 4796 / 11484 / 16280
------------------
     ethr =  1.73E-04,  avg # of iterations =  1.5
     Minimization algorithm failed to find Fermi energy: reverting to bisection
     Possible cause: smearing is larger than the electronic band-gap.

     negative rho (up, down):  2.950E+00 9.673E-01

     total cpu time spent up to now is      167.0 secs

     total energy              =   -2654.53340874 Ry
     estimated scf accuracy    <       0.50938016 Ry

     total magnetization       =     0.00 Bohr mag/cell
     absolute magnetization    =     5.99 Bohr mag/cell
[tb_dev] Currently allocated     2.09E+01 Mbytes, locked:    0 /  11
[tb_pin] Currently allocated     0.00E+00 Mbytes, locked:    0 /   0

     iteration # 11     ecut=    60.00 Ry     beta= 0.20
     Davidson diagonalization with overlap

---- Real-time Memory Report at c_bands before calling an iterative solver
          4965 MiB given to the printing process from OS
           -73 MiB allocation reported by mallinfo(arena+hblkhd)
         51788 MiB available memory on the node where the printing process lives
     GPU memory used/free/total (MiB): 4796 / 11484 / 16280
------------------
     ethr =  1.73E-04,  avg # of iterations =  3.6
     Minimization algorithm failed to find Fermi energy: reverting to bisection
     Possible cause: smearing is larger than the electronic band-gap.

     negative rho (up, down):  2.938E+00 1.003E+00

     total cpu time spent up to now is      182.9 secs

     total energy              =   -2654.53959054 Ry
     estimated scf accuracy    <       0.20165481 Ry

     total magnetization       =     0.00 Bohr mag/cell
     absolute magnetization    =     5.99 Bohr mag/cell
[tb_dev] Currently allocated     2.09E+01 Mbytes, locked:    0 /  11
[tb_pin] Currently allocated     0.00E+00 Mbytes, locked:    0 /   0

     iteration # 12     ecut=    60.00 Ry     beta= 0.20
     Davidson diagonalization with overlap

---- Real-time Memory Report at c_bands before calling an iterative solver
          4979 MiB given to the printing process from OS
           -65 MiB allocation reported by mallinfo(arena+hblkhd)
         51780 MiB available memory on the node where the printing process lives
     GPU memory used/free/total (MiB): 4796 / 11484 / 16280
------------------
     ethr =  1.48E-04,  avg # of iterations =  2.1
     Minimization algorithm failed to find Fermi energy: reverting to bisection
     Possible cause: smearing is larger than the electronic band-gap.

     negative rho (up, down):  2.989E+00 8.883E-01

     total cpu time spent up to now is      197.4 secs

     total energy              =   -2654.53907075 Ry
     estimated scf accuracy    <       0.12990064 Ry

     total magnetization       =     0.00 Bohr mag/cell
     absolute magnetization    =     5.95 Bohr mag/cell
[tb_dev] Currently allocated     2.09E+01 Mbytes, locked:    0 /  11
[tb_pin] Currently allocated     0.00E+00 Mbytes, locked:    0 /   0

     iteration # 13     ecut=    60.00 Ry     beta= 0.20
     Davidson diagonalization with overlap

---- Real-time Memory Report at c_bands before calling an iterative solver
          4982 MiB given to the printing process from OS
           -56 MiB allocation reported by mallinfo(arena+hblkhd)
         51772 MiB available memory on the node where the printing process lives
     GPU memory used/free/total (MiB): 4796 / 11484 / 16280
------------------
     ethr =  9.55E-05,  avg # of iterations =  1.9
     Minimization algorithm failed to find Fermi energy: reverting to bisection
     Possible cause: smearing is larger than the electronic band-gap.

     negative rho (up, down):  3.027E+00 9.265E-01

     total cpu time spent up to now is      211.7 secs

     total energy              =   -2654.54012136 Ry
     estimated scf accuracy    <       0.08419504 Ry

     total magnetization       =     0.00 Bohr mag/cell
     absolute magnetization    =     6.20 Bohr mag/cell
[tb_dev] Currently allocated     2.09E+01 Mbytes, locked:    0 /  11
[tb_pin] Currently allocated     0.00E+00 Mbytes, locked:    0 /   0

     iteration # 14     ecut=    60.00 Ry     beta= 0.20
     Davidson diagonalization with overlap

---- Real-time Memory Report at c_bands before calling an iterative solver
          4996 MiB given to the printing process from OS
           -48 MiB allocation reported by mallinfo(arena+hblkhd)
         51764 MiB available memory on the node where the printing process lives
     GPU memory used/free/total (MiB): 4796 / 11484 / 16280
------------------
     ethr =  6.19E-05,  avg # of iterations =  3.4
     Minimization algorithm failed to find Fermi energy: reverting to bisection
     Possible cause: smearing is larger than the electronic band-gap.

     negative rho (up, down):  3.034E+00 7.971E-01

     total cpu time spent up to now is      227.6 secs

     total energy              =   -2654.53835359 Ry
     estimated scf accuracy    <       0.27192618 Ry

     total magnetization       =     0.00 Bohr mag/cell
     absolute magnetization    =     7.37 Bohr mag/cell
[tb_dev] Currently allocated     2.09E+01 Mbytes, locked:    0 /  11
[tb_pin] Currently allocated     0.00E+00 Mbytes, locked:    0 /   0

     iteration # 15     ecut=    60.00 Ry     beta= 0.20
     Davidson diagonalization with overlap

---- Real-time Memory Report at c_bands before calling an iterative solver
          5004 MiB given to the printing process from OS
           -40 MiB allocation reported by mallinfo(arena+hblkhd)
         51756 MiB available memory on the node where the printing process lives
     GPU memory used/free/total (MiB): 4796 / 11484 / 16280
------------------
     ethr =  6.19E-05,  avg # of iterations =  2.3
     Minimization algorithm failed to find Fermi energy: reverting to bisection
     Possible cause: smearing is larger than the electronic band-gap.

     negative rho (up, down):  3.017E+00 9.003E-01

     total cpu time spent up to now is      242.5 secs

     total energy              =   -2654.54355286 Ry
     estimated scf accuracy    <       0.20592527 Ry

     total magnetization       =     0.00 Bohr mag/cell
     absolute magnetization    =     6.65 Bohr mag/cell
[tb_dev] Currently allocated     2.09E+01 Mbytes, locked:    0 /  11
[tb_pin] Currently allocated     0.00E+00 Mbytes, locked:    0 /   0

     iteration # 16     ecut=    60.00 Ry     beta= 0.20
     Davidson diagonalization with overlap

---- Real-time Memory Report at c_bands before calling an iterative solver
          5007 MiB given to the printing process from OS
           -31 MiB allocation reported by mallinfo(arena+hblkhd)
         51747 MiB available memory on the node where the printing process lives
     GPU memory used/free/total (MiB): 4796 / 11484 / 16280
------------------
     ethr =  6.19E-05,  avg # of iterations =  1.0
     Minimization algorithm failed to find Fermi energy: reverting to bisection
     Possible cause: smearing is larger than the electronic band-gap.

     negative rho (up, down):  3.025E+00 8.304E-01

     total cpu time spent up to now is      256.0 secs

     total energy              =   -2654.53962605 Ry
     estimated scf accuracy    <       0.31666867 Ry

     total magnetization       =     0.00 Bohr mag/cell
     absolute magnetization    =     7.04 Bohr mag/cell
[tb_dev] Currently allocated     2.09E+01 Mbytes, locked:    0 /  11
[tb_pin] Currently allocated     0.00E+00 Mbytes, locked:    0 /   0

     iteration # 17     ecut=    60.00 Ry     beta= 0.20
     Davidson diagonalization with overlap

---- Real-time Memory Report at c_bands before calling an iterative solver
          5022 MiB given to the printing process from OS
           -23 MiB allocation reported by mallinfo(arena+hblkhd)
         51739 MiB available memory on the node where the printing process lives
     GPU memory used/free/total (MiB): 4796 / 11484 / 16280
------------------
     ethr =  6.19E-05,  avg # of iterations =  1.5
     Minimization algorithm failed to find Fermi energy: reverting to bisection
     Possible cause: smearing is larger than the electronic band-gap.

     negative rho (up, down):  3.036E+00 7.941E-01

     total cpu time spent up to now is      269.9 secs

     total energy              =   -2654.54134545 Ry
     estimated scf accuracy    <       0.21709449 Ry

     total magnetization       =     0.00 Bohr mag/cell
     absolute magnetization    =     6.52 Bohr mag/cell
[tb_dev] Currently allocated     2.09E+01 Mbytes, locked:    0 /  11
[tb_pin] Currently allocated     0.00E+00 Mbytes, locked:    0 /   0

     iteration # 18     ecut=    60.00 Ry     beta= 0.20
     Davidson diagonalization with overlap

---- Real-time Memory Report at c_bands before calling an iterative solver
          5030 MiB given to the printing process from OS
           -14 MiB allocation reported by mallinfo(arena+hblkhd)
         51729 MiB available memory on the node where the printing process lives
     GPU memory used/free/total (MiB): 4796 / 11484 / 16280
------------------
     ethr =  6.19E-05,  avg # of iterations =  1.5
     Minimization algorithm failed to find Fermi energy: reverting to bisection
     Possible cause: smearing is larger than the electronic band-gap.

     negative rho (up, down):  3.066E+00 7.174E-01

     total cpu time spent up to now is      283.8 secs

     total energy              =   -2654.53777936 Ry
     estimated scf accuracy    <       0.27288737 Ry

     total magnetization       =     0.00 Bohr mag/cell
     absolute magnetization    =     6.25 Bohr mag/cell
[tb_dev] Currently allocated     2.09E+01 Mbytes, locked:    0 /  11
[tb_pin] Currently allocated     0.00E+00 Mbytes, locked:    0 /   0

     iteration # 19     ecut=    60.00 Ry     beta= 0.20
     Davidson diagonalization with overlap

---- Real-time Memory Report at c_bands before calling an iterative solver
          5044 MiB given to the printing process from OS
            -6 MiB allocation reported by mallinfo(arena+hblkhd)
         51722 MiB available memory on the node where the printing process lives
     GPU memory used/free/total (MiB): 4796 / 11484 / 16280
------------------
     ethr =  6.19E-05,  avg # of iterations =  1.6
     Minimization algorithm failed to find Fermi energy: reverting to bisection
     Possible cause: smearing is larger than the electronic band-gap.

     negative rho (up, down):  3.076E+00 7.859E-01

     total cpu time spent up to now is      297.6 secs

     total energy              =   -2654.54078822 Ry
     estimated scf accuracy    <       0.20491014 Ry

     total magnetization       =     0.00 Bohr mag/cell
     absolute magnetization    =     5.95 Bohr mag/cell
[tb_dev] Currently allocated     2.09E+01 Mbytes, locked:    0 /  11
[tb_pin] Currently allocated     0.00E+00 Mbytes, locked:    0 /   0

     iteration # 20     ecut=    60.00 Ry     beta= 0.20
     Davidson diagonalization with overlap

---- Real-time Memory Report at c_bands before calling an iterative solver
          5047 MiB given to the printing process from OS
             1 MiB allocation reported by mallinfo(arena+hblkhd)
         51715 MiB available memory on the node where the printing process lives
     GPU memory used/free/total (MiB): 4796 / 11484 / 16280
------------------
     ethr =  6.19E-05,  avg # of iterations =  2.1
     Minimization algorithm failed to find Fermi energy: reverting to bisection
     Possible cause: smearing is larger than the electronic band-gap.

     negative rho (up, down):  3.071E+00 8.197E-01

     total cpu time spent up to now is      312.0 secs

     total energy              =   -2654.54135080 Ry
     estimated scf accuracy    <       0.30074244 Ry

     total magnetization       =     0.00 Bohr mag/cell
     absolute magnetization    =     6.48 Bohr mag/cell
[tb_dev] Currently allocated     2.09E+01 Mbytes, locked:    0 /  11
[tb_pin] Currently allocated     0.00E+00 Mbytes, locked:    0 /   0

     iteration # 21     ecut=    60.00 Ry     beta= 0.20
     Davidson diagonalization with overlap

---- Real-time Memory Report at c_bands before calling an iterative solver
          5061 MiB given to the printing process from OS
            10 MiB allocation reported by mallinfo(arena+hblkhd)
         51703 MiB available memory on the node where the printing process lives
     GPU memory used/free/total (MiB): 4796 / 11484 / 16280
------------------
     ethr =  6.19E-05,  avg # of iterations =  1.7
     Minimization algorithm failed to find Fermi energy: reverting to bisection
     Possible cause: smearing is larger than the electronic band-gap.

     negative rho (up, down):  3.088E+00 7.026E-01

     total cpu time spent up to now is      326.0 secs

     total energy              =   -2654.53678753 Ry
     estimated scf accuracy    <       0.22747765 Ry

     total magnetization       =     0.00 Bohr mag/cell
     absolute magnetization    =     6.76 Bohr mag/cell
[tb_dev] Currently allocated     2.09E+01 Mbytes, locked:    0 /  11
[tb_pin] Currently allocated     0.00E+00 Mbytes, locked:    0 /   0

     iteration # 22     ecut=    60.00 Ry     beta= 0.20
     Davidson diagonalization with overlap

---- Real-time Memory Report at c_bands before calling an iterative solver
          5070 MiB given to the printing process from OS
            18 MiB allocation reported by mallinfo(arena+hblkhd)
         51697 MiB available memory on the node where the printing process lives
     GPU memory used/free/total (MiB): 4796 / 11484 / 16280
------------------
     ethr =  6.19E-05,  avg # of iterations =  1.5
     Minimization algorithm failed to find Fermi energy: reverting to bisection
     Possible cause: smearing is larger than the electronic band-gap.

     negative rho (up, down):  3.028E+00 7.544E-01

     total cpu time spent up to now is      339.9 secs

     total energy              =   -2654.53853336 Ry
     estimated scf accuracy    <       0.13586868 Ry

     total magnetization       =     0.00 Bohr mag/cell
     absolute magnetization    =     6.46 Bohr mag/cell
[tb_dev] Currently allocated     2.09E+01 Mbytes, locked:    0 /  11
[tb_pin] Currently allocated     0.00E+00 Mbytes, locked:    0 /   0

     iteration # 23     ecut=    60.00 Ry     beta= 0.20
     Davidson diagonalization with overlap

---- Real-time Memory Report at c_bands before calling an iterative solver
          5078 MiB given to the printing process from OS
            27 MiB allocation reported by mallinfo(arena+hblkhd)
         51690 MiB available memory on the node where the printing process lives
     GPU memory used/free/total (MiB): 4796 / 11484 / 16280
------------------
     ethr =  6.19E-05,  avg # of iterations =  2.0
     Minimization algorithm failed to find Fermi energy: reverting to bisection
     Possible cause: smearing is larger than the electronic band-gap.

     negative rho (up, down):  3.025E+00 6.751E-01

     total cpu time spent up to now is      354.4 secs

     total energy              =   -2654.53765285 Ry
     estimated scf accuracy    <       0.17222198 Ry

     total magnetization       =     0.00 Bohr mag/cell
     absolute magnetization    =     5.79 Bohr mag/cell
[tb_dev] Currently allocated     2.09E+01 Mbytes, locked:    0 /  11
[tb_pin] Currently allocated     0.00E+00 Mbytes, locked:    0 /   0

     iteration # 24     ecut=    60.00 Ry     beta= 0.20
     Davidson diagonalization with overlap

---- Real-time Memory Report at c_bands before calling an iterative solver
          5087 MiB given to the printing process from OS
            35 MiB allocation reported by mallinfo(arena+hblkhd)
         51681 MiB available memory on the node where the printing process lives
     GPU memory used/free/total (MiB): 4796 / 11484 / 16280
------------------
     ethr =  6.19E-05,  avg # of iterations =  4.0
     Minimization algorithm failed to find Fermi energy: reverting to bisection
     Possible cause: smearing is larger than the electronic band-gap.

     negative rho (up, down):  2.924E+00 8.821E-01

     total cpu time spent up to now is      370.6 secs

     total energy              =   -2654.53701925 Ry
     estimated scf accuracy    <       0.36871676 Ry

     total magnetization       =     0.00 Bohr mag/cell
     absolute magnetization    =     5.08 Bohr mag/cell
[tb_dev] Currently allocated     2.09E+01 Mbytes, locked:    0 /  11
[tb_pin] Currently allocated     0.00E+00 Mbytes, locked:    0 /   0

     iteration # 25     ecut=    60.00 Ry     beta= 0.20
     Davidson diagonalization with overlap

---- Real-time Memory Report at c_bands before calling an iterative solver
          5096 MiB given to the printing process from OS
            44 MiB allocation reported by mallinfo(arena+hblkhd)
         51673 MiB available memory on the node where the printing process lives
     GPU memory used/free/total (MiB): 4796 / 11484 / 16280
------------------
     ethr =  6.19E-05,  avg # of iterations =  3.4
     Minimization algorithm failed to find Fermi energy: reverting to bisection
     Possible cause: smearing is larger than the electronic band-gap.

     negative rho (up, down):  2.917E+00 8.365E-01

     total cpu time spent up to now is      386.5 secs

     total energy              =   -2654.53917040 Ry
     estimated scf accuracy    <       0.13164614 Ry

     total magnetization       =     0.00 Bohr mag/cell
     absolute magnetization    =     5.76 Bohr mag/cell
[tb_dev] Currently allocated     2.09E+01 Mbytes, locked:    0 /  11
[tb_pin] Currently allocated     0.00E+00 Mbytes, locked:    0 /   0

     iteration # 26     ecut=    60.00 Ry     beta= 0.20
     Davidson diagonalization with overlap

---- Real-time Memory Report at c_bands before calling an iterative solver
          5104 MiB given to the printing process from OS
            52 MiB allocation reported by mallinfo(arena+hblkhd)
         51663 MiB available memory on the node where the printing process lives
     GPU memory used/free/total (MiB): 4796 / 11484 / 16280
------------------
     ethr =  6.19E-05,  avg # of iterations =  3.1
     Minimization algorithm failed to find Fermi energy: reverting to bisection
     Possible cause: smearing is larger than the electronic band-gap.

     negative rho (up, down):  2.959E+00 7.388E-01

     total cpu time spent up to now is      401.8 secs

     total energy              =   -2654.54079414 Ry
     estimated scf accuracy    <       0.08156269 Ry

     total magnetization       =     0.00 Bohr mag/cell
     absolute magnetization    =     6.00 Bohr mag/cell
[tb_dev] Currently allocated     2.09E+01 Mbytes, locked:    0 /  11
[tb_pin] Currently allocated     0.00E+00 Mbytes, locked:    0 /   0

     iteration # 27     ecut=    60.00 Ry     beta= 0.20
     Davidson diagonalization with overlap

---- Real-time Memory Report at c_bands before calling an iterative solver
          5118 MiB given to the printing process from OS
            60 MiB allocation reported by mallinfo(arena+hblkhd)
         51655 MiB available memory on the node where the printing process lives
     GPU memory used/free/total (MiB): 4796 / 11484 / 16280
------------------
     ethr =  6.00E-05,  avg # of iterations =  2.9
     Minimization algorithm failed to find Fermi energy: reverting to bisection
     Possible cause: smearing is larger than the electronic band-gap.

     negative rho (up, down):  3.045E+00 8.157E-01

     total cpu time spent up to now is      417.0 secs

     total energy              =   -2654.53282182 Ry
     estimated scf accuracy    <       0.17534650 Ry

     total magnetization       =     0.00 Bohr mag/cell
     absolute magnetization    =     5.57 Bohr mag/cell
[tb_dev] Currently allocated     2.09E+01 Mbytes, locked:    0 /  11
[tb_pin] Currently allocated     0.00E+00 Mbytes, locked:    0 /   0

     iteration # 28     ecut=    60.00 Ry     beta= 0.20
     Davidson diagonalization with overlap

---- Real-time Memory Report at c_bands before calling an iterative solver
          5121 MiB given to the printing process from OS
            69 MiB allocation reported by mallinfo(arena+hblkhd)
         51647 MiB available memory on the node where the printing process lives
     GPU memory used/free/total (MiB): 4796 / 11484 / 16280
------------------
     ethr =  6.00E-05,  avg # of iterations =  3.4
     Minimization algorithm failed to find Fermi energy: reverting to bisection
     Possible cause: smearing is larger than the electronic band-gap.

     negative rho (up, down):  2.931E+00 6.188E-01

     total cpu time spent up to now is      432.7 secs

     total energy              =   -2654.53831537 Ry
     estimated scf accuracy    <       0.10847176 Ry

     total magnetization       =     0.00 Bohr mag/cell
     absolute magnetization    =     5.66 Bohr mag/cell
[tb_dev] Currently allocated     2.09E+01 Mbytes, locked:    0 /  11
[tb_pin] Currently allocated     0.00E+00 Mbytes, locked:    0 /   0

     iteration # 29     ecut=    60.00 Ry     beta= 0.20
     Davidson diagonalization with overlap

---- Real-time Memory Report at c_bands before calling an iterative solver
          5135 MiB given to the printing process from OS
            77 MiB allocation reported by mallinfo(arena+hblkhd)
         51636 MiB available memory on the node where the printing process lives
     GPU memory used/free/total (MiB): 4796 / 11484 / 16280
------------------
     ethr =  6.00E-05,  avg # of iterations =  4.8
     Minimization algorithm failed to find Fermi energy: reverting to bisection
     Possible cause: smearing is larger than the electronic band-gap.

     negative rho (up, down):  2.941E+00 7.075E-01

     total cpu time spent up to now is      450.4 secs

     total energy              =   -2654.54345862 Ry
     estimated scf accuracy    <       1.29809587 Ry

     total magnetization       =     0.00 Bohr mag/cell
     absolute magnetization    =     5.26 Bohr mag/cell
[tb_dev] Currently allocated     2.09E+01 Mbytes, locked:    0 /  11
[tb_pin] Currently allocated     0.00E+00 Mbytes, locked:    0 /   0

     iteration # 30     ecut=    60.00 Ry     beta= 0.20
     Davidson diagonalization with overlap

---- Real-time Memory Report at c_bands before calling an iterative solver
          5144 MiB given to the printing process from OS
            86 MiB allocation reported by mallinfo(arena+hblkhd)
         51632 MiB available memory on the node where the printing process lives
     GPU memory used/free/total (MiB): 4796 / 11484 / 16280
------------------
     ethr =  6.00E-05,  avg # of iterations =  2.8
     Minimization algorithm failed to find Fermi energy: reverting to bisection
     Possible cause: smearing is larger than the electronic band-gap.

     negative rho (up, down):  2.963E+00 8.048E-01

     total cpu time spent up to now is      465.5 secs

     total energy              =   -2654.53196875 Ry
     estimated scf accuracy    <       0.49714955 Ry

     total magnetization       =     0.00 Bohr mag/cell
     absolute magnetization    =     5.64 Bohr mag/cell
[tb_dev] Currently allocated     2.09E+01 Mbytes, locked:    0 /  11
[tb_pin] Currently allocated     0.00E+00 Mbytes, locked:    0 /   0

     iteration # 31     ecut=    60.00 Ry     beta= 0.20
     Davidson diagonalization with overlap

---- Real-time Memory Report at c_bands before calling an iterative solver
          5152 MiB given to the printing process from OS
            94 MiB allocation reported by mallinfo(arena+hblkhd)
         51620 MiB available memory on the node where the printing process lives
     GPU memory used/free/total (MiB): 4796 / 11484 / 16280
------------------
     ethr =  6.00E-05,  avg # of iterations =  3.1
     Minimization algorithm failed to find Fermi energy: reverting to bisection
     Possible cause: smearing is larger than the electronic band-gap.

     negative rho (up, down):  2.926E+00 7.216E-01

     total cpu time spent up to now is      480.9 secs

     total energy              =   -2654.54350461 Ry
     estimated scf accuracy    <       0.10545234 Ry

     total magnetization       =     0.00 Bohr mag/cell
     absolute magnetization    =     6.09 Bohr mag/cell
[tb_dev] Currently allocated     2.09E+01 Mbytes, locked:    0 /  11
[tb_pin] Currently allocated     0.00E+00 Mbytes, locked:    0 /   0

     iteration # 32     ecut=    60.00 Ry     beta= 0.20
     Davidson diagonalization with overlap

---- Real-time Memory Report at c_bands before calling an iterative solver
          5155 MiB given to the printing process from OS
           103 MiB allocation reported by mallinfo(arena+hblkhd)
         51613 MiB available memory on the node where the printing process lives
     GPU memory used/free/total (MiB): 4796 / 11484 / 16280
------------------
     ethr =  6.00E-05,  avg # of iterations =  3.5
     Minimization algorithm failed to find Fermi energy: reverting to bisection
     Possible cause: smearing is larger than the electronic band-gap.

     negative rho (up, down):  2.936E+00 7.240E-01

     total cpu time spent up to now is      496.8 secs

     total energy              =   -2654.55103796 Ry
     estimated scf accuracy    <       0.46666849 Ry

     total magnetization       =     0.00 Bohr mag/cell
     absolute magnetization    =     5.63 Bohr mag/cell
[tb_dev] Currently allocated     2.09E+01 Mbytes, locked:    0 /  11
[tb_pin] Currently allocated     0.00E+00 Mbytes, locked:    0 /   0

     iteration # 33     ecut=    60.00 Ry     beta= 0.20
     Davidson diagonalization with overlap

---- Real-time Memory Report at c_bands before calling an iterative solver
          5169 MiB given to the printing process from OS
           111 MiB allocation reported by mallinfo(arena+hblkhd)
         51605 MiB available memory on the node where the printing process lives
     GPU memory used/free/total (MiB): 4796 / 11484 / 16280
------------------
     ethr =  6.00E-05,  avg # of iterations =  1.0
     Minimization algorithm failed to find Fermi energy: reverting to bisection
     Possible cause: smearing is larger than the electronic band-gap.

     negative rho (up, down):  3.065E+00 7.183E-01

     total cpu time spent up to now is      510.2 secs

     total energy              =   -2654.54175418 Ry
     estimated scf accuracy    <       0.50799734 Ry

     total magnetization       =     0.00 Bohr mag/cell
     absolute magnetization    =     5.64 Bohr mag/cell
[tb_dev] Currently allocated     2.09E+01 Mbytes, locked:    0 /  11
[tb_pin] Currently allocated     0.00E+00 Mbytes, locked:    0 /   0

     iteration # 34     ecut=    60.00 Ry     beta= 0.20
     Davidson diagonalization with overlap

---- Real-time Memory Report at c_bands before calling an iterative solver
          5178 MiB given to the printing process from OS
           119 MiB allocation reported by mallinfo(arena+hblkhd)
         51596 MiB available memory on the node where the printing process lives
     GPU memory used/free/total (MiB): 4796 / 11484 / 16280
------------------
     ethr =  6.00E-05,  avg # of iterations =  5.5
     Minimization algorithm failed to find Fermi energy: reverting to bisection
     Possible cause: smearing is larger than the electronic band-gap.

     negative rho (up, down):  2.945E+00 8.309E-01

     total cpu time spent up to now is      528.8 secs

     total energy              =   -2654.51494476 Ry
     estimated scf accuracy    <       2.00847515 Ry

     total magnetization       =     0.00 Bohr mag/cell
     absolute magnetization    =     7.46 Bohr mag/cell
[tb_dev] Currently allocated     2.09E+01 Mbytes, locked:    0 /  11
[tb_pin] Currently allocated     0.00E+00 Mbytes, locked:    0 /   0

     iteration # 35     ecut=    60.00 Ry     beta= 0.20
     Davidson diagonalization with overlap

---- Real-time Memory Report at c_bands before calling an iterative solver
          5186 MiB given to the printing process from OS
           128 MiB allocation reported by mallinfo(arena+hblkhd)
         51588 MiB available memory on the node where the printing process lives
     GPU memory used/free/total (MiB): 4796 / 11484 / 16280
------------------
     ethr =  6.00E-05,  avg # of iterations =  4.0
     Minimization algorithm failed to find Fermi energy: reverting to bisection
     Possible cause: smearing is larger than the electronic band-gap.

     negative rho (up, down):  2.974E+00 8.820E-01

     total cpu time spent up to now is      545.7 secs

     total energy              =   -2654.53971075 Ry
     estimated scf accuracy    <       0.07213554 Ry

     total magnetization       =     0.00 Bohr mag/cell
     absolute magnetization    =     5.59 Bohr mag/cell
[tb_dev] Currently allocated     2.09E+01 Mbytes, locked:    0 /  11
[tb_pin] Currently allocated     0.00E+00 Mbytes, locked:    0 /   0

     iteration # 36     ecut=    60.00 Ry     beta= 0.20
     Davidson diagonalization with overlap

---- Real-time Memory Report at c_bands before calling an iterative solver
          5189 MiB given to the printing process from OS
           136 MiB allocation reported by mallinfo(arena+hblkhd)
         51579 MiB available memory on the node where the printing process lives
     GPU memory used/free/total (MiB): 4796 / 11484 / 16280
------------------
     ethr =  5.30E-05,  avg # of iterations =  5.0
     Minimization algorithm failed to find Fermi energy: reverting to bisection
     Possible cause: smearing is larger than the electronic band-gap.

     negative rho (up, down):  3.002E+00 7.848E-01

     total cpu time spent up to now is      563.7 secs

     total energy              =   -2654.52114854 Ry
     estimated scf accuracy    <       1.02648401 Ry

     total magnetization       =     0.00 Bohr mag/cell
     absolute magnetization    =     7.04 Bohr mag/cell
[tb_dev] Currently allocated     2.09E+01 Mbytes, locked:    0 /  11
[tb_pin] Currently allocated     0.00E+00 Mbytes, locked:    0 /   0

     iteration # 37     ecut=    60.00 Ry     beta= 0.20
     Davidson diagonalization with overlap

---- Real-time Memory Report at c_bands before calling an iterative solver
          5203 MiB given to the printing process from OS
           145 MiB allocation reported by mallinfo(arena+hblkhd)
         51568 MiB available memory on the node where the printing process lives
     GPU memory used/free/total (MiB): 4796 / 11484 / 16280
------------------
     ethr =  5.30E-05,  avg # of iterations =  5.2
     Minimization algorithm failed to find Fermi energy: reverting to bisection
     Possible cause: smearing is larger than the electronic band-gap.

     negative rho (up, down):  2.977E+00 9.073E-01

     total cpu time spent up to now is      581.7 secs

     total energy              =   -2654.53951302 Ry
     estimated scf accuracy    <       0.47684875 Ry

     total magnetization       =     0.00 Bohr mag/cell
     absolute magnetization    =     6.09 Bohr mag/cell
[tb_dev] Currently allocated     2.09E+01 Mbytes, locked:    0 /  11
[tb_pin] Currently allocated     0.00E+00 Mbytes, locked:    0 /   0

     iteration # 38     ecut=    60.00 Ry     beta= 0.20
     Davidson diagonalization with overlap

---- Real-time Memory Report at c_bands before calling an iterative solver
          5205 MiB given to the printing process from OS
           153 MiB allocation reported by mallinfo(arena+hblkhd)
         51563 MiB available memory on the node where the printing process lives
     GPU memory used/free/total (MiB): 4796 / 11484 / 16280
------------------
     ethr =  5.30E-05,  avg # of iterations =  3.3
     Minimization algorithm failed to find Fermi energy: reverting to bisection
     Possible cause: smearing is larger than the electronic band-gap.

     negative rho (up, down):  2.994E+00 9.330E-01

     total cpu time spent up to now is      597.5 secs

     total energy              =   -2654.54063282 Ry
     estimated scf accuracy    <       0.49959309 Ry

     total magnetization       =     0.00 Bohr mag/cell
     absolute magnetization    =     6.13 Bohr mag/cell
[tb_dev] Currently allocated     2.09E+01 Mbytes, locked:    0 /  11
[tb_pin] Currently allocated     0.00E+00 Mbytes, locked:    0 /   0

     iteration # 39     ecut=    60.00 Ry     beta= 0.20
     Davidson diagonalization with overlap

---- Real-time Memory Report at c_bands before calling an iterative solver
          5220 MiB given to the printing process from OS
           161 MiB allocation reported by mallinfo(arena+hblkhd)
         51554 MiB available memory on the node where the printing process lives
     GPU memory used/free/total (MiB): 4796 / 11484 / 16280
------------------
     ethr =  5.30E-05,  avg # of iterations =  3.0
     Minimization algorithm failed to find Fermi energy: reverting to bisection
     Possible cause: smearing is larger than the electronic band-gap.

     negative rho (up, down):  3.010E+00 9.242E-01

     total cpu time spent up to now is      612.9 secs

     total energy              =   -2654.54434820 Ry
     estimated scf accuracy    <       0.33679969 Ry

     total magnetization       =     0.00 Bohr mag/cell
     absolute magnetization    =     7.57 Bohr mag/cell
[tb_dev] Currently allocated     2.09E+01 Mbytes, locked:    0 /  11
[tb_pin] Currently allocated     0.00E+00 Mbytes, locked:    0 /   0

     iteration # 40     ecut=    60.00 Ry     beta= 0.20
     Davidson diagonalization with overlap

---- Real-time Memory Report at c_bands before calling an iterative solver
          5222 MiB given to the printing process from OS
           170 MiB allocation reported by mallinfo(arena+hblkhd)
         51546 MiB available memory on the node where the printing process lives
     GPU memory used/free/total (MiB): 4796 / 11484 / 16280
------------------
     ethr =  5.30E-05,  avg # of iterations =  1.0
     Minimization algorithm failed to find Fermi energy: reverting to bisection
     Possible cause: smearing is larger than the electronic band-gap.

     negative rho (up, down):  3.047E+00 8.168E-01

     total cpu time spent up to now is      626.3 secs

     total energy              =   -2654.53933324 Ry
     estimated scf accuracy    <       0.32895118 Ry

     total magnetization       =     0.00 Bohr mag/cell
     absolute magnetization    =     7.38 Bohr mag/cell
[tb_dev] Currently allocated     2.09E+01 Mbytes, locked:    0 /  11
[tb_pin] Currently allocated     0.00E+00 Mbytes, locked:    0 /   0

     iteration # 41     ecut=    60.00 Ry     beta= 0.20
     Davidson diagonalization with overlap

---- Real-time Memory Report at c_bands before calling an iterative solver
          5230 MiB given to the printing process from OS
           178 MiB allocation reported by mallinfo(arena+hblkhd)
         51540 MiB available memory on the node where the printing process lives
     GPU memory used/free/total (MiB): 4796 / 11484 / 16280
------------------
     ethr =  5.30E-05,  avg # of iterations =  1.5
     Minimization algorithm failed to find Fermi energy: reverting to bisection
     Possible cause: smearing is larger than the electronic band-gap.

     negative rho (up, down):  3.030E+00 8.152E-01

     total cpu time spent up to now is      640.0 secs

     total energy              =   -2654.53953113 Ry
     estimated scf accuracy    <       0.16622503 Ry

     total magnetization       =     0.00 Bohr mag/cell
     absolute magnetization    =     7.39 Bohr mag/cell
[tb_dev] Currently allocated     2.09E+01 Mbytes, locked:    0 /  11
[tb_pin] Currently allocated     0.00E+00 Mbytes, locked:    0 /   0

     iteration # 42     ecut=    60.00 Ry     beta= 0.20
     Davidson diagonalization with overlap

---- Real-time Memory Report at c_bands before calling an iterative solver
          5239 MiB given to the printing process from OS
           187 MiB allocation reported by mallinfo(arena+hblkhd)
         51527 MiB available memory on the node where the printing process lives
     GPU memory used/free/total (MiB): 4796 / 11484 / 16280
------------------
     ethr =  5.30E-05,  avg # of iterations =  1.5
     Minimization algorithm failed to find Fermi energy: reverting to bisection
     Possible cause: smearing is larger than the electronic band-gap.

     negative rho (up, down):  2.924E+00 7.584E-01

     total cpu time spent up to now is      653.9 secs

     total energy              =   -2654.53353042 Ry
     estimated scf accuracy    <       0.13978614 Ry

     total magnetization       =     0.00 Bohr mag/cell
     absolute magnetization    =     7.06 Bohr mag/cell
[tb_dev] Currently allocated     2.09E+01 Mbytes, locked:    0 /  11
[tb_pin] Currently allocated     0.00E+00 Mbytes, locked:    0 /   0

     iteration # 43     ecut=    60.00 Ry     beta= 0.20
     Davidson diagonalization with overlap

---- Real-time Memory Report at c_bands before calling an iterative solver
          5247 MiB given to the printing process from OS
           195 MiB allocation reported by mallinfo(arena+hblkhd)
         51521 MiB available memory on the node where the printing process lives
     GPU memory used/free/total (MiB): 4796 / 11484 / 16280
------------------
     ethr =  5.30E-05,  avg # of iterations =  5.3
     Minimization algorithm failed to find Fermi energy: reverting to bisection
     Possible cause: smearing is larger than the electronic band-gap.

     negative rho (up, down):  3.005E+00 8.302E-01

     total cpu time spent up to now is      671.8 secs

     total energy              =   -2654.52501787 Ry
     estimated scf accuracy    <       0.54843519 Ry

     total magnetization       =     0.00 Bohr mag/cell
     absolute magnetization    =     6.42 Bohr mag/cell
[tb_dev] Currently allocated     2.09E+01 Mbytes, locked:    0 /  11
[tb_pin] Currently allocated     0.00E+00 Mbytes, locked:    0 /   0

     iteration # 44     ecut=    60.00 Ry     beta= 0.20
     Davidson diagonalization with overlap

---- Real-time Memory Report at c_bands before calling an iterative solver
          5261 MiB given to the printing process from OS
           204 MiB allocation reported by mallinfo(arena+hblkhd)
         51511 MiB available memory on the node where the printing process lives
     GPU memory used/free/total (MiB): 4796 / 11484 / 16280
------------------
     ethr =  5.30E-05,  avg # of iterations =  5.0
     Minimization algorithm failed to find Fermi energy: reverting to bisection
     Possible cause: smearing is larger than the electronic band-gap.

     negative rho (up, down):  2.981E+00 8.010E-01

     total cpu time spent up to now is      689.4 secs

     total energy              =   -2654.53850149 Ry
     estimated scf accuracy    <       0.12027434 Ry

     total magnetization       =     0.00 Bohr mag/cell
     absolute magnetization    =     6.71 Bohr mag/cell
[tb_dev] Currently allocated     2.09E+01 Mbytes, locked:    0 /  11
[tb_pin] Currently allocated     0.00E+00 Mbytes, locked:    0 /   0

     iteration # 45     ecut=    60.00 Ry     beta= 0.20
     Davidson diagonalization with overlap

---- Real-time Memory Report at c_bands before calling an iterative solver
          5269 MiB given to the printing process from OS
           212 MiB allocation reported by mallinfo(arena+hblkhd)
         51506 MiB available memory on the node where the printing process lives
     GPU memory used/free/total (MiB): 4796 / 11484 / 16280
------------------
     ethr =  5.30E-05,  avg # of iterations =  3.1
     Minimization algorithm failed to find Fermi energy: reverting to bisection
     Possible cause: smearing is larger than the electronic band-gap.

     negative rho (up, down):  3.020E+00 7.761E-01

     total cpu time spent up to now is      704.7 secs

     total energy              =   -2654.53973613 Ry
     estimated scf accuracy    <       0.08065260 Ry

     total magnetization       =     0.00 Bohr mag/cell
     absolute magnetization    =     6.42 Bohr mag/cell
[tb_dev] Currently allocated     2.09E+01 Mbytes, locked:    0 /  11
[tb_pin] Currently allocated     0.00E+00 Mbytes, locked:    0 /   0

     iteration # 46     ecut=    60.00 Ry     beta= 0.20
     Davidson diagonalization with overlap

---- Real-time Memory Report at c_bands before calling an iterative solver
          5277 MiB given to the printing process from OS
           220 MiB allocation reported by mallinfo(arena+hblkhd)
         51495 MiB available memory on the node where the printing process lives
     GPU memory used/free/total (MiB): 4796 / 11484 / 16280
------------------
     ethr =  5.30E-05,  avg # of iterations =  2.4
     Minimization algorithm failed to find Fermi energy: reverting to bisection
     Possible cause: smearing is larger than the electronic band-gap.

     negative rho (up, down):  3.014E+00 7.893E-01

     total cpu time spent up to now is      719.3 secs

     total energy              =   -2654.53919550 Ry
     estimated scf accuracy    <       0.16162309 Ry

     total magnetization       =     0.00 Bohr mag/cell
     absolute magnetization    =     5.67 Bohr mag/cell
[tb_dev] Currently allocated     2.09E+01 Mbytes, locked:    0 /  11
[tb_pin] Currently allocated     0.00E+00 Mbytes, locked:    0 /   0

     iteration # 47     ecut=    60.00 Ry     beta= 0.20
     Davidson diagonalization with overlap

---- Real-time Memory Report at c_bands before calling an iterative solver
          5286 MiB given to the printing process from OS
           229 MiB allocation reported by mallinfo(arena+hblkhd)
         51487 MiB available memory on the node where the printing process lives
     GPU memory used/free/total (MiB): 4796 / 11484 / 16280
------------------
     ethr =  5.30E-05,  avg # of iterations =  1.5
     Minimization algorithm failed to find Fermi energy: reverting to bisection
     Possible cause: smearing is larger than the electronic band-gap.

     negative rho (up, down):  3.014E+00 7.163E-01

     total cpu time spent up to now is      733.5 secs

     total energy              =   -2654.53779776 Ry
     estimated scf accuracy    <       0.11420780 Ry

     total magnetization       =     0.00 Bohr mag/cell
     absolute magnetization    =     5.74 Bohr mag/cell
[tb_dev] Currently allocated     2.09E+01 Mbytes, locked:    0 /  11
[tb_pin] Currently allocated     0.00E+00 Mbytes, locked:    0 /   0

     iteration # 48     ecut=    60.00 Ry     beta= 0.20
     Davidson diagonalization with overlap

---- Real-time Memory Report at c_bands before calling an iterative solver
          5300 MiB given to the printing process from OS
           237 MiB allocation reported by mallinfo(arena+hblkhd)
         51481 MiB available memory on the node where the printing process lives
     GPU memory used/free/total (MiB): 4796 / 11484 / 16280
------------------
     ethr =  5.30E-05,  avg # of iterations =  4.4
     Minimization algorithm failed to find Fermi energy: reverting to bisection
     Possible cause: smearing is larger than the electronic band-gap.

     negative rho (up, down):  3.027E+00 7.840E-01

     total cpu time spent up to now is      750.2 secs

     total energy              =   -2654.50194411 Ry
     estimated scf accuracy    <       0.92681808 Ry

     total magnetization       =     0.00 Bohr mag/cell
     absolute magnetization    =     5.59 Bohr mag/cell
[tb_dev] Currently allocated     2.09E+01 Mbytes, locked:    0 /  11
[tb_pin] Currently allocated     0.00E+00 Mbytes, locked:    0 /   0

     iteration # 49     ecut=    60.00 Ry     beta= 0.20
     Davidson diagonalization with overlap

---- Real-time Memory Report at c_bands before calling an iterative solver
          5309 MiB given to the printing process from OS
           246 MiB allocation reported by mallinfo(arena+hblkhd)
         51473 MiB available memory on the node where the printing process lives
     GPU memory used/free/total (MiB): 4796 / 11484 / 16280
------------------
     ethr =  5.30E-05,  avg # of iterations =  5.0
     Minimization algorithm failed to find Fermi energy: reverting to bisection
     Possible cause: smearing is larger than the electronic band-gap.

     negative rho (up, down):  3.016E+00 7.756E-01

     total cpu time spent up to now is      768.4 secs

     total energy              =   -2654.52074658 Ry
     estimated scf accuracy    <       1.38455496 Ry

     total magnetization       =     0.00 Bohr mag/cell
     absolute magnetization    =     6.86 Bohr mag/cell
[tb_dev] Currently allocated     2.09E+01 Mbytes, locked:    0 /  11
[tb_pin] Currently allocated     0.00E+00 Mbytes, locked:    0 /   0

     iteration # 50     ecut=    60.00 Ry     beta= 0.20
     Davidson diagonalization with overlap

---- Real-time Memory Report at c_bands before calling an iterative solver
          5317 MiB given to the printing process from OS
           254 MiB allocation reported by mallinfo(arena+hblkhd)
         51461 MiB available memory on the node where the printing process lives
     GPU memory used/free/total (MiB): 4796 / 11484 / 16280
------------------
     ethr =  5.30E-05,  avg # of iterations =  4.8
     Minimization algorithm failed to find Fermi energy: reverting to bisection
     Possible cause: smearing is larger than the electronic band-gap.

     negative rho (up, down):  3.014E+00 7.755E-01

     total cpu time spent up to now is      785.9 secs

     total energy              =   -2654.53915401 Ry
     estimated scf accuracy    <       0.10754859 Ry

     total magnetization       =     0.00 Bohr mag/cell
     absolute magnetization    =     5.69 Bohr mag/cell
[tb_dev] Currently allocated     2.09E+01 Mbytes, locked:    0 /  11
[tb_pin] Currently allocated     0.00E+00 Mbytes, locked:    0 /   0

     iteration # 51     ecut=    60.00 Ry     beta= 0.20
     Davidson diagonalization with overlap

---- Real-time Memory Report at c_bands before calling an iterative solver
          5326 MiB given to the printing process from OS
           263 MiB allocation reported by mallinfo(arena+hblkhd)
         51453 MiB available memory on the node where the printing process lives
     GPU memory used/free/total (MiB): 4796 / 11484 / 16280
------------------
     ethr =  5.30E-05,  avg # of iterations =  1.0
     Minimization algorithm failed to find Fermi energy: reverting to bisection
     Possible cause: smearing is larger than the electronic band-gap.

     negative rho (up, down):  2.973E+00 7.912E-01

     total cpu time spent up to now is      799.3 secs

     total energy              =   -2654.54044904 Ry
     estimated scf accuracy    <       0.10952310 Ry

     total magnetization       =     0.00 Bohr mag/cell
     absolute magnetization    =     5.63 Bohr mag/cell
[tb_dev] Currently allocated     2.09E+01 Mbytes, locked:    0 /  11
[tb_pin] Currently allocated     0.00E+00 Mbytes, locked:    0 /   0

     iteration # 52     ecut=    60.00 Ry     beta= 0.20
     Davidson diagonalization with overlap

---- Real-time Memory Report at c_bands before calling an iterative solver
          5334 MiB given to the printing process from OS
           271 MiB allocation reported by mallinfo(arena+hblkhd)
         51444 MiB available memory on the node where the printing process lives
     GPU memory used/free/total (MiB): 4796 / 11484 / 16280
------------------
     ethr =  5.30E-05,  avg # of iterations =  3.3
     Minimization algorithm failed to find Fermi energy: reverting to bisection
     Possible cause: smearing is larger than the electronic band-gap.

     negative rho (up, down):  2.903E+00 8.300E-01

     total cpu time spent up to now is      814.9 secs

     total energy              =   -2654.54495571 Ry
     estimated scf accuracy    <       0.59370567 Ry

     total magnetization       =     0.00 Bohr mag/cell
     absolute magnetization    =     5.84 Bohr mag/cell
[tb_dev] Currently allocated     2.09E+01 Mbytes, locked:    0 /  11
[...]
     Possible cause: smearing is larger than the electronic band-gap.

     negative rho (up, down):  2.944E+00 8.156E-01

     total cpu time spent up to now is     1037.6 secs

     total energy              =   -2654.53732134 Ry
     estimated scf accuracy    <       0.07892090 Ry

     total magnetization       =     0.00 Bohr mag/cell
     absolute magnetization    =     6.20 Bohr mag/cell
[tb_dev] Currently allocated     2.09E+01 Mbytes, locked:    0 /  11
[tb_pin] Currently allocated     0.00E+00 Mbytes, locked:    0 /   0

     iteration # 68     ecut=    60.00 Ry     beta= 0.20
     Davidson diagonalization with overlap

---- Real-time Memory Report at c_bands before calling an iterative solver
          5482 MiB given to the printing process from OS
           406 MiB allocation reported by mallinfo(arena+hblkhd)
         51307 MiB available memory on the node where the printing process lives
     GPU memory used/free/total (MiB): 4796 / 11484 / 16280
------------------
     ethr =  5.30E-05,  avg # of iterations =  4.7
     Minimization algorithm failed to find Fermi energy: reverting to bisection
     Possible cause: smearing is larger than the electronic band-gap.

     negative rho (up, down):  2.914E+00 8.325E-01

     total cpu time spent up to now is     1054.8 secs

     total energy              =   -2654.53455907 Ry
     estimated scf accuracy    <       0.29664036 Ry

     total magnetization       =     0.00 Bohr mag/cell
     absolute magnetization    =     5.64 Bohr mag/cell
[tb_dev] Currently allocated     2.09E+01 Mbytes, locked:    0 /  11
[tb_pin] Currently allocated     0.00E+00 Mbytes, locked:    0 /   0

     iteration # 69     ecut=    60.00 Ry     beta= 0.20
     Davidson diagonalization with overlap

---- Real-time Memory Report at c_bands before calling an iterative solver
          5490 MiB given to the printing process from OS
           414 MiB allocation reported by mallinfo(arena+hblkhd)
         51299 MiB available memory on the node where the printing process lives
     GPU memory used/free/total (MiB): 4796 / 11484 / 16280
------------------
     ethr =  5.30E-05,  avg # of iterations =  3.4
     Minimization algorithm failed to find Fermi energy: reverting to bisection
     Possible cause: smearing is larger than the electronic band-gap.

     negative rho (up, down):  2.942E+00 8.094E-01

     total cpu time spent up to now is     1070.7 secs

     total energy              =   -2654.54114392 Ry
     estimated scf accuracy    <       0.16694135 Ry

     total magnetization       =     0.00 Bohr mag/cell
     absolute magnetization    =     6.09 Bohr mag/cell
[tb_dev] Currently allocated     2.09E+01 Mbytes, locked:    0 /  11
[tb_pin] Currently allocated     0.00E+00 Mbytes, locked:    0 /   0

     iteration # 70     ecut=    60.00 Ry     beta= 0.20
     Davidson diagonalization with overlap

---- Real-time Memory Report at c_bands before calling an iterative solver
          5499 MiB given to the printing process from OS
           423 MiB allocation reported by mallinfo(arena+hblkhd)
         51292 MiB available memory on the node where the printing process lives
     GPU memory used/free/total (MiB): 4796 / 11484 / 16280
------------------
     ethr =  5.30E-05,  avg # of iterations =  4.3
     Minimization algorithm failed to find Fermi energy: reverting to bisection
     Possible cause: smearing is larger than the electronic band-gap.

     negative rho (up, down):  2.923E+00 8.228E-01

     total cpu time spent up to now is     1087.1 secs

     total energy              =   -2654.53935734 Ry
     estimated scf accuracy    <       0.46532003 Ry

     total magnetization       =     0.00 Bohr mag/cell
     absolute magnetization    =     5.93 Bohr mag/cell
[tb_dev] Currently allocated     2.09E+01 Mbytes, locked:    0 /  11
[tb_pin] Currently allocated     0.00E+00 Mbytes, locked:    0 /   0

     iteration # 71     ecut=    60.00 Ry     beta= 0.20
     Davidson diagonalization with overlap

---- Real-time Memory Report at c_bands before calling an iterative solver
          5507 MiB given to the printing process from OS
           431 MiB allocation reported by mallinfo(arena+hblkhd)
         51282 MiB available memory on the node where the printing process lives
     GPU memory used/free/total (MiB): 4796 / 11484 / 16280
------------------
     ethr =  5.30E-05,  avg # of iterations =  3.3
     Minimization algorithm failed to find Fermi energy: reverting to bisection
     Possible cause: smearing is larger than the electronic band-gap.

     negative rho (up, down):  2.962E+00 7.983E-01

     total cpu time spent up to now is     1102.8 secs

     total energy              =   -2654.53720810 Ry
     estimated scf accuracy    <       0.20390881 Ry

     total magnetization       =     0.00 Bohr mag/cell
     absolute magnetization    =     6.57 Bohr mag/cell
[tb_dev] Currently allocated     2.09E+01 Mbytes, locked:    0 /  11
[tb_pin] Currently allocated     0.00E+00 Mbytes, locked:    0 /   0

     iteration # 72     ecut=    60.00 Ry     beta= 0.20
     Davidson diagonalization with overlap

---- Real-time Memory Report at c_bands before calling an iterative solver
          5521 MiB given to the printing process from OS
           439 MiB allocation reported by mallinfo(arena+hblkhd)
         51277 MiB available memory on the node where the printing process lives
     GPU memory used/free/total (MiB): 4796 / 11484 / 16280
------------------
     ethr =  5.30E-05,  avg # of iterations =  4.6
     Minimization algorithm failed to find Fermi energy: reverting to bisection
     Possible cause: smearing is larger than the electronic band-gap.

     negative rho (up, down):  2.952E+00 8.179E-01

     total cpu time spent up to now is     1119.8 secs

     total energy              =   -2654.54570934 Ry
     estimated scf accuracy    <       0.14863950 Ry

     total magnetization       =     0.00 Bohr mag/cell
     absolute magnetization    =     5.80 Bohr mag/cell
[tb_dev] Currently allocated     2.09E+01 Mbytes, locked:    0 /  11
[tb_pin] Currently allocated     0.00E+00 Mbytes, locked:    0 /   0

     iteration # 73     ecut=    60.00 Ry     beta= 0.20
     Davidson diagonalization with overlap

---- Real-time Memory Report at c_bands before calling an iterative solver
          5529 MiB given to the printing process from OS
           448 MiB allocation reported by mallinfo(arena+hblkhd)
         51265 MiB available memory on the node where the printing process lives
     GPU memory used/free/total (MiB): 4796 / 11484 / 16280
------------------
     ethr =  5.30E-05,  avg # of iterations =  1.5
     Minimization algorithm failed to find Fermi energy: reverting to bisection
     Possible cause: smearing is larger than the electronic band-gap.

     negative rho (up, down):  2.952E+00 8.037E-01

     total cpu time spent up to now is     1133.8 secs

     total energy              =   -2654.55317449 Ry
     estimated scf accuracy    <       0.14931307 Ry

     total magnetization       =     0.00 Bohr mag/cell
     absolute magnetization    =     6.10 Bohr mag/cell
[tb_dev] Currently allocated     2.09E+01 Mbytes, locked:    0 /  11
[tb_pin] Currently allocated     0.00E+00 Mbytes, locked:    0 /   0

     iteration # 74     ecut=    60.00 Ry     beta= 0.20
     Davidson diagonalization with overlap

---- Real-time Memory Report at c_bands before calling an iterative solver
          5538 MiB given to the printing process from OS
           456 MiB allocation reported by mallinfo(arena+hblkhd)
         51259 MiB available memory on the node where the printing process lives
     GPU memory used/free/total (MiB): 4796 / 11484 / 16280
------------------
     ethr =  5.30E-05,  avg # of iterations =  3.2
     Minimization algorithm failed to find Fermi energy: reverting to bisection
     Possible cause: smearing is larger than the electronic band-gap.

     negative rho (up, down):  2.969E+00 8.135E-01

     total cpu time spent up to now is     1149.7 secs

     total energy              =   -2654.48842349 Ry
     estimated scf accuracy    <       1.26487716 Ry

     total magnetization       =     0.00 Bohr mag/cell
     absolute magnetization    =     6.70 Bohr mag/cell
[tb_dev] Currently allocated     2.09E+01 Mbytes, locked:    0 /  11
[tb_pin] Currently allocated     0.00E+00 Mbytes, locked:    0 /   0

     iteration # 75     ecut=    60.00 Ry     beta= 0.20
     Davidson diagonalization with overlap

---- Real-time Memory Report at c_bands before calling an iterative solver
          5546 MiB given to the printing process from OS
           465 MiB allocation reported by mallinfo(arena+hblkhd)
         51251 MiB available memory on the node where the printing process lives
     GPU memory used/free/total (MiB): 4796 / 11484 / 16280
------------------
     ethr =  5.30E-05,  avg # of iterations =  5.7
     Minimization algorithm failed to find Fermi energy: reverting to bisection
     Possible cause: smearing is larger than the electronic band-gap.

     negative rho (up, down):  2.916E+00 8.436E-01

     total cpu time spent up to now is     1168.1 secs

     total energy              =   -2654.54347637 Ry
     estimated scf accuracy    <       1.44190256 Ry

     total magnetization       =     0.00 Bohr mag/cell
     absolute magnetization    =     5.47 Bohr mag/cell
[tb_dev] Currently allocated     2.09E+01 Mbytes, locked:    0 /  11
[tb_pin] Currently allocated     0.00E+00 Mbytes, locked:    0 /   0

     iteration # 76     ecut=    60.00 Ry     beta= 0.20
     Davidson diagonalization with overlap

---- Real-time Memory Report at c_bands before calling an iterative solver
          5554 MiB given to the printing process from OS
           473 MiB allocation reported by mallinfo(arena+hblkhd)
         51241 MiB available memory on the node where the printing process lives
     GPU memory used/free/total (MiB): 4796 / 11484 / 16280
------------------
     ethr =  5.30E-05,  avg # of iterations =  3.6
     Minimization algorithm failed to find Fermi energy: reverting to bisection
     Possible cause: smearing is larger than the electronic band-gap.

     negative rho (up, down):  2.866E+00 8.888E-01

     total cpu time spent up to now is     1184.0 secs

     total energy              =   -2654.53693878 Ry
     estimated scf accuracy    <       0.70399996 Ry

     total magnetization       =     0.00 Bohr mag/cell
     absolute magnetization    =     6.25 Bohr mag/cell
[tb_dev] Currently allocated     2.09E+01 Mbytes, locked:    0 /  11
[tb_pin] Currently allocated     0.00E+00 Mbytes, locked:    0 /   0

     iteration # 77     ecut=    60.00 Ry     beta= 0.20
     Davidson diagonalization with overlap

---- Real-time Memory Report at c_bands before calling an iterative solver
          5562 MiB given to the printing process from OS
           482 MiB allocation reported by mallinfo(arena+hblkhd)
         51235 MiB available memory on the node where the printing process lives
     GPU memory used/free/total (MiB): 4796 / 11484 / 16280
------------------
     ethr =  5.30E-05,  avg # of iterations =  5.6
     Minimization algorithm failed to find Fermi energy: reverting to bisection
     Possible cause: smearing is larger than the electronic band-gap.

     negative rho (up, down):  2.818E+00 9.680E-01

     total cpu time spent up to now is     1202.9 secs

     total energy              =   -2654.56082222 Ry
     estimated scf accuracy    <       1.53062996 Ry

     total magnetization       =     0.00 Bohr mag/cell
     absolute magnetization    =     3.53 Bohr mag/cell
[tb_dev] Currently allocated     2.09E+01 Mbytes, locked:    0 /  11
[tb_pin] Currently allocated     0.00E+00 Mbytes, locked:    0 /   0

     iteration # 78     ecut=    60.00 Ry     beta= 0.20
     Davidson diagonalization with overlap

---- Real-time Memory Report at c_bands before calling an iterative solver
          5576 MiB given to the printing process from OS
           490 MiB allocation reported by mallinfo(arena+hblkhd)
         51197 MiB available memory on the node where the printing process lives
     GPU memory used/free/total (MiB): 4796 / 11484 / 16280
------------------
     ethr =  5.30E-05,  avg # of iterations =  5.0
     Minimization algorithm failed to find Fermi energy: reverting to bisection
     Possible cause: smearing is larger than the electronic band-gap.

     negative rho (up, down):  2.851E+00 8.972E-01

     total cpu time spent up to now is     1220.9 secs

     total energy              =   -2654.52969617 Ry
     estimated scf accuracy    <       1.72255605 Ry

     total magnetization       =     0.00 Bohr mag/cell
     absolute magnetization    =     4.34 Bohr mag/cell
[tb_dev] Currently allocated     2.09E+01 Mbytes, locked:    0 /  11
[tb_pin] Currently allocated     0.00E+00 Mbytes, locked:    0 /   0

     iteration # 79     ecut=    60.00 Ry     beta= 0.20
     Davidson diagonalization with overlap

---- Real-time Memory Report at c_bands before calling an iterative solver
          5585 MiB given to the printing process from OS
           498 MiB allocation reported by mallinfo(arena+hblkhd)
         51206 MiB available memory on the node where the printing process lives
     GPU memory used/free/total (MiB): 4796 / 11484 / 16280
------------------
     ethr =  5.30E-05,  avg # of iterations =  4.5
     Minimization algorithm failed to find Fermi energy: reverting to bisection
     Possible cause: smearing is larger than the electronic band-gap.

     negative rho (up, down):  2.879E+00 8.863E-01

     total cpu time spent up to now is     1238.5 secs

     total energy              =   -2654.54049735 Ry
     estimated scf accuracy    <       1.70979169 Ry

     total magnetization       =     0.00 Bohr mag/cell
     absolute magnetization    =     2.85 Bohr mag/cell
[tb_dev] Currently allocated     2.09E+01 Mbytes, locked:    0 /  11
[tb_pin] Currently allocated     0.00E+00 Mbytes, locked:    0 /   0

     iteration # 80     ecut=    60.00 Ry     beta= 0.20
     Davidson diagonalization with overlap

---- Real-time Memory Report at c_bands before calling an iterative solver
          5593 MiB given to the printing process from OS
           507 MiB allocation reported by mallinfo(arena+hblkhd)
         51201 MiB available memory on the node where the printing process lives
     GPU memory used/free/total (MiB): 4796 / 11484 / 16280
------------------
     ethr =  5.30E-05,  avg # of iterations =  5.4
     Minimization algorithm failed to find Fermi energy: reverting to bisection
     Possible cause: smearing is larger than the electronic band-gap.

     negative rho (up, down):  2.901E+00 8.488E-01

     total cpu time spent up to now is     1256.6 secs

     total energy              =   -2654.52891994 Ry
     estimated scf accuracy    <       1.05268572 Ry

     total magnetization       =     0.00 Bohr mag/cell
     absolute magnetization    =     5.85 Bohr mag/cell

     End of self-consistent calculation

     convergence NOT achieved after  80 iterations: stopping

     Writing config to output data dir ./out/aiida.save/
 
     init_run     :     37.36s CPU      7.40s WALL (       1 calls)
     electrons    :   2654.06s CPU   1248.28s WALL (       1 calls)

     Called by init_run:
     wfcinit      :      0.80s CPU      0.80s WALL (       1 calls)
                                        0.80s GPU  (       1 calls)
     potinit      :     20.35s CPU      2.10s WALL (       1 calls)
     hinit0       :      9.26s CPU      3.29s WALL (       1 calls)

     Called by electrons:
     c_bands      :    829.77s CPU    886.75s WALL (      80 calls)
     sum_band     :    200.75s CPU    208.60s WALL (      80 calls)
     v_of_rho     :     73.37s CPU      6.66s WALL (      81 calls)
     v_h          :     11.34s CPU      1.01s WALL (      81 calls)
     v_xc         :     62.02s CPU      5.66s WALL (      81 calls)
     newd         :    176.06s CPU     19.98s WALL (      81 calls)
                                       19.98s GPU  (      81 calls)
     PAW_pot      :   1267.59s CPU    114.73s WALL (      81 calls)
     mix_rho      :    103.40s CPU     10.58s WALL (      80 calls)

     Called by c_bands:
     init_us_2    :     28.41s CPU     39.55s WALL (   14400 calls)
     init_us_2:gp :     28.11s CPU     39.25s WALL (   14400 calls)
     cegterg      :    656.23s CPU    689.08s WALL (    7200 calls)

     Called by sum_band:
     sum_band:wei :      1.08s CPU      1.08s WALL (      80 calls)
                                        1.08s GPU  (      80 calls)
     sum_band:loo :    175.11s CPU    182.69s WALL (      80 calls)
                                      182.69s GPU  (      80 calls)
     sum_band:buf :     70.70s CPU     71.44s WALL (    7200 calls)
                                       71.38s GPU  (    7200 calls)
     sum_band:ini :     13.67s CPU     17.14s WALL (    7200 calls)
                                       17.10s GPU  (    7200 calls)
     sum_band:cal :      0.32s CPU      7.62s WALL (    7200 calls)
                                        7.24s GPU  (    7200 calls)
     sum_band:bec :      2.79s CPU      2.95s WALL (    7200 calls)
                                        2.90s GPU  (    7200 calls)
     addusdens    :     17.91s CPU     18.15s WALL (      80 calls)
                                       18.15s GPU  (      80 calls)
     addusd:skk   :      0.06s CPU      0.07s WALL (     240 calls)
                                        0.06s GPU  (     240 calls)

     Called by *egterg:
     cdiaghg      :    153.40s CPU    177.72s WALL (   29129 calls)
                                      177.51s GPU  (   29129 calls)
     cegterg:over :     19.93s CPU     20.45s WALL (   22019 calls)
     cegterg:upda :     19.61s CPU     20.32s WALL (   22019 calls)
     cegterg:last :     18.58s CPU     18.76s WALL (   12648 calls)
     h_psi        :    395.58s CPU    402.13s WALL (   29219 calls)
                                      401.13s GPU  (   29219 calls)
     s_psi        :      6.80s CPU     28.63s WALL (   29219 calls)
                                       26.57s GPU  (   29219 calls)
     g_psi        :      0.17s CPU      2.12s WALL (   22019 calls)
                                        1.97s GPU  (   22019 calls)

     Called by h_psi:
     h_psi:calbec :      1.11s CPU     21.59s WALL (   29219 calls)
                                       21.41s GPU  (   29219 calls)
     vloc_psi     :    341.85s CPU    346.93s WALL (   29219 calls)
                                      346.75s GPU  (   29219 calls)
     add_vuspsi   :      8.63s CPU     28.94s WALL (   29219 calls)
                                       28.76s GPU  (   29219 calls)

     General routines
     calbec       :      1.09s CPU      1.13s WALL (   36419 calls)
     fft          :      3.08s CPU      0.82s WALL (    2023 calls)
                                        0.65s GPU  (    1861 calls)
     ffts         :      0.30s CPU      0.10s WALL (     322 calls)
                                        0.02s GPU  (     160 calls)
     fftw         :      4.85s CPU    296.32s WALL (  246122 calls)
                                      293.99s GPU  (  246122 calls)
     interpolate  :     11.35s CPU      1.00s WALL (     162 calls)
     davcio       :      0.12s CPU      4.09s WALL (     198 calls)
 
     Parallel routines

     PAW routines
     PAW_pot      :   1267.59s CPU    114.73s WALL (      81 calls)
     PAW_symme    :      0.52s CPU      0.08s WALL (     160 calls)
 
     PWSCF        :  44m54.72s CPU  20m59.80s WALL

 
   This run was terminated on:  22: 5:46  23Oct2023            

=------------------------------------------------------------------------------=
   JOB DONE.
=------------------------------------------------------------------------------=
