
     Program PWSCF v.7.2 starts on 19Dec2023 at 22:22:11 
        Git branch: develop
        Last git commit: 9055681be6fc8200e6fffe76ed5fda34c2696339
        Last git commit date: Wed Nov 8 16:29:39 2023 +0000
        Last git commit subject: Merge branch 'calbec_fix' into 'develop'

     This program is part of the open-source Quantum ESPRESSO suite
     for quantum simulation of materials; please cite
         "P. Giannozzi et al., J. Phys.:Condens. Matter 21 395502 (2009);
         "P. Giannozzi et al., J. Phys.:Condens. Matter 29 465901 (2017);
         "P. Giannozzi et al., J. Chem. Phys. 152 154105 (2020);
          URL http://www.quantum-espresso.org", 
     in publications or presentations arising from this work. More details at
     http://www.quantum-espresso.org/quote

     Parallel version (MPI), running on    56 processors

     MPI processes distributed on     1 nodes
     491608 MiB available memory on the printing compute node when the environment starts

     Reading input from aiida.in

     Current dimensions of program PWSCF are:
     Max number of different atomic species (ntypx) = 10
     Max number of k-points (npk) =  40000
     Max angular momentum in pseudopotentials (lmaxx) =  4
     file Ba.pbesol-spn-kjpaw_psl.1.0.0.UPF: wavefunction(s)  5S 6S renormalized
     file Nb.pbesol-spn-kjpaw_psl.0.3.0.UPF: wavefunction(s)  4S 4P renormalized
     file O.pbesol-n-kjpaw_psl.0.1.UPF: wavefunction(s)  2P renormalized
     Message from routine setup:
     using ibrav=0 with symmetry is DISCOURAGED, use correct ibrav instead

     K-points division:     npool     =       7
     R & G space division:  proc/nbgrp/npool/nimage =       8
     Subspace diagonalization in iterative solution of the eigenvalue problem:
     a serial algorithm will be used


     Parallelization info
     --------------------
     sticks:   dense  smooth     PW     G-vecs:    dense   smooth      PW
     Min         568     284     99                15018     5314    1110
     Max         569     285    100                15019     5315    1111
     Sum        4551    2277    797               120147    42513    8885

     Using Slab Decomposition



     bravais-lattice index     =            0
     lattice parameter (alat)  =      12.6669  a.u.
     unit-cell volume          =     889.9875 (a.u.)^3
     number of atoms/cell      =           10
     number of atomic types    =            3
     number of electrons       =        85.00
     number of Kohn-Sham states=           52
     kinetic-energy cutoff     =      50.0000  Ry
     charge density cutoff     =     400.0000  Ry
     scf convergence threshold =      2.0E-09
     mixing beta               =       0.4000
     number of iterations used =            8  plain     mixing
     Exchange-correlation= SLA  PW   PSX  PSC
                           (   1   4  10   8   0   0   0)

     celldm(1)=  12.666889  celldm(2)=   0.000000  celldm(3)=   0.000000
     celldm(4)=   0.000000  celldm(5)=   0.000000  celldm(6)=   0.000000

     crystal axes: (cart. coord. in units of alat)
               a(1) = (   0.852846   0.492391   0.173797 )  
               a(2) = (  -0.852846   0.492391   0.173797 )  
               a(3) = (  -0.000000  -0.984781   0.173797 )  

     reciprocal axes: (cart. coord. in units 2 pi/alat)
               b(1) = (  0.586272  0.338485  1.917946 )  
               b(2) = ( -0.586272  0.338485  1.917946 )  
               b(3) = ( -0.000000 -0.676969  1.917946 )  


     PseudoPot. # 1 for Ba read from file:
     ./pseudo/Ba.pbesol-spn-kjpaw_psl.1.0.0.UPF
     MD5 check sum: f28c4a63d325c1a0d00fd3a4f19b8d73
     Pseudo is Projector augmented-wave + core cor, Zval = 10.0
     Generated using "atomic" code by A. Dal Corso  v.6.0 svn rev. 13079
     Shape of augmentation charge: PSQ
     Using radial grid of 1251 points,  7 beta functions with: 
                l(1) =   0
                l(2) =   0
                l(3) =   0
                l(4) =   1
                l(5) =   1
                l(6) =   2
                l(7) =   2
     Q(r) pseudized with 0 coefficients 


     PseudoPot. # 2 for Nb read from file:
     ./pseudo/Nb.pbesol-spn-kjpaw_psl.0.3.0.UPF
     MD5 check sum: 3501bca1474143575298708b2d32ca28
     Pseudo is Projector augmented-wave + core cor, Zval = 13.0
     Generated using "atomic" code by A. Dal Corso  v.6.0 svn rev. 13079
     Shape of augmentation charge: PSQ
     Using radial grid of 1227 points,  6 beta functions with: 
                l(1) =   0
                l(2) =   0
                l(3) =   1
                l(4) =   1
                l(5) =   2
                l(6) =   2
     Q(r) pseudized with 0 coefficients 


     PseudoPot. # 3 for O  read from file:
     ./pseudo/O.pbesol-n-kjpaw_psl.0.1.UPF
     MD5 check sum: 81d73d1479e654e5638b0319f0d6c2c7
     Pseudo is Projector augmented-wave + core cor, Zval =  6.0
     Generated using "atomic" code by A. Dal Corso  v.6.0 svn rev. 13079
     Shape of augmentation charge: BESSEL
     Using radial grid of 1095 points,  4 beta functions with: 
                l(1) =   0
                l(2) =   0
                l(3) =   1
                l(4) =   1
     Q(r) pseudized with 0 coefficients 


     atomic species   valence    mass     pseudopotential
     Ba               10.00   137.32700     Ba( 1.00)
     Nb               13.00    92.90638     Nb( 1.00)
     O                 6.00    15.99940     O ( 1.00)

     Starting magnetic structure 
     atomic species   magnetization
     Ba              0.100
     Nb              0.385
     O               0.100

      6 Sym. Ops. (no inversion) found


                                    s                        frac. trans.

      isym =  1     identity                                     

 cryst.   s( 1) = (     1          0          0      )
                  (     0          1          0      )
                  (     0          0          1      )

 cart.    s( 1) = (  1.0000000 -0.0000000 -0.0000000 )
                  ( -0.0000000  1.0000000  0.0000000 )
                  (  0.0000000  0.0000000  1.0000000 )


      isym =  2     120 deg rotation - cryst. axis [0,0,1]       

 cryst.   s( 2) = (     0          1          0      )
                  (     0          0          1      )
                  (     1          0          0      )

 cart.    s( 2) = ( -0.5000000 -0.8660254  0.0000000 )
                  (  0.8660254 -0.5000000  0.0000000 )
                  (  0.0000000 -0.0000000  1.0000000 )


      isym =  3     120 deg rotation - cryst. axis [0,0,-1]      

 cryst.   s( 3) = (     0          0          1      )
                  (     1          0          0      )
                  (     0          1          0      )

 cart.    s( 3) = ( -0.5000000  0.8660254 -0.0000000 )
                  ( -0.8660254 -0.5000000  0.0000000 )
                  ( -0.0000000  0.0000000  1.0000000 )


      isym =  4     inv. 180 deg rotation - cart. axis [1,0,0]   

 cryst.   s( 4) = (     0          1          0      )
                  (     1          0          0      )
                  (     0          0          1      )

 cart.    s( 4) = ( -1.0000000 -0.0000000 -0.0000000 )
                  (  0.0000000  1.0000000  0.0000000 )
                  ( -0.0000000  0.0000000  1.0000000 )


      isym =  5     inv. 180 deg rotation - cryst. axis [0,1,0]  

 cryst.   s( 5) = (     1          0          0      )
                  (     0          0          1      )
                  (     0          1          0      )

 cart.    s( 5) = (  0.5000000  0.8660254 -0.0000000 )
                  (  0.8660254 -0.5000000  0.0000000 )
                  (  0.0000000  0.0000000  1.0000000 )


      isym =  6     inv. 180 deg rotation - cryst. axis [1,1,0]  

 cryst.   s( 6) = (     0          0          1      )
                  (     0          1          0      )
                  (     1          0          0      )

 cart.    s( 6) = (  0.5000000 -0.8660254  0.0000000 )
                  ( -0.8660254 -0.5000000  0.0000000 )
                  ( -0.0000000 -0.0000000  1.0000000 )


   Cartesian axes

     site n.     atom                  positions (alat units)
         1        Ba     tau(   1) = (   0.0000000   0.0000000  -0.0000000  )
         2        Nb     tau(   2) = (  -0.0000000   0.4822475   0.1751179  )
         3        Nb     tau(   3) = (  -0.4352072   1.2360485   0.1751179  )
         4        Nb     tau(   4) = (   0.4352072   0.2512670   0.3489150  )
         5        O      tau(   5) = (  -0.2225075   1.3338373   0.3412331  )
         6        O      tau(   6) = (   0.2225075   0.3490558   0.5150302  )
         7        O      tau(   7) = (   0.1910375   0.6175565   0.3412331  )
         8        O      tau(   8) = (   0.6618083   0.1251657   0.1674361  )
         9        O      tau(   9) = (   0.4393009   0.5105600   0.1674361  )
        10        O      tau(  10) = (   0.4135449   0.0181692   0.5150302  )

   Crystallographic axes

     site n.     atom                  positions (cryst. coord.)
         1        Ba     tau(   1) = (  0.0000000  0.0000000 -0.0000000  )
         2        Nb     tau(   2) = (  0.4991000  0.4991000  0.0094000  )
         3        Nb     tau(   3) = (  0.4991000  1.0094000 -0.5009000  )
         4        Nb     tau(   4) = (  1.0094000  0.4991000  0.4991000  )
         5        O      tau(   5) = (  0.9755000  1.2364000 -0.2485000  )
         6        O      tau(   6) = (  1.2364000  0.9755000  0.7515000  )
         7        O      tau(   7) = (  0.9755000  0.7515000  0.2364000  )
         8        O      tau(   8) = (  0.7515000 -0.0245000  0.2364000  )
         9        O      tau(   9) = (  0.7515000  0.2364000 -0.0245000  )
        10        O      tau(  10) = (  1.2364000  0.7515000  0.9755000  )

     number of k points=   231  Marzari-Vanderbilt smearing, width (Ry)=  0.0200
                       cart. coord. in units 2pi/alat
        k(    1) = (   0.0000000   0.0000000   0.0000000), wk =   0.0004552
        k(    2) = (  -0.0000000  -0.0520745   0.1475343), wk =   0.0027310
        k(    3) = (  -0.0000000  -0.1041491   0.2950686), wk =   0.0027310
        k(    4) = (  -0.0000000  -0.1562236   0.4426029), wk =   0.0027310
        k(    5) = (  -0.0000000  -0.2082982   0.5901372), wk =   0.0027310
        k(    6) = (  -0.0000000  -0.2603727   0.7376715), wk =   0.0027310
        k(    7) = (  -0.0000000  -0.3124473   0.8852058), wk =   0.0027310
        k(    8) = (  -0.0450979  -0.0260373   0.2950686), wk =   0.0027310
        k(    9) = (  -0.0450979  -0.0781118   0.4426029), wk =   0.0054620
        k(   10) = (  -0.0450979  -0.1301864   0.5901372), wk =   0.0054620
        k(   11) = (  -0.0450979  -0.1822609   0.7376715), wk =   0.0054620
        k(   12) = (  -0.0450979  -0.2343355   0.8852058), wk =   0.0054620
        k(   13) = (  -0.0450979  -0.2864100   1.0327401), wk =   0.0054620
        k(   14) = (  -0.0450979   0.3384846  -0.7376715), wk =   0.0054620
        k(   15) = (  -0.0450979   0.2864100  -0.5901372), wk =   0.0054620
        k(   16) = (  -0.0450979   0.2343355  -0.4426029), wk =   0.0054620
        k(   17) = (  -0.0450979   0.1822609  -0.2950686), wk =   0.0054620
        k(   18) = (  -0.0450979   0.1301864  -0.1475343), wk =   0.0054620
        k(   19) = (  -0.0450979   0.0781118  -0.0000000), wk =   0.0027310
        k(   20) = (  -0.0901958  -0.0520745   0.5901372), wk =   0.0027310
        k(   21) = (  -0.0901958  -0.1041491   0.7376715), wk =   0.0054620
        k(   22) = (  -0.0901958  -0.1562236   0.8852058), wk =   0.0054620
        k(   23) = (  -0.0901958  -0.2082982   1.0327401), wk =   0.0054620
        k(   24) = (  -0.0901958  -0.2603727   1.1802744), wk =   0.0054620
        k(   25) = (  -0.0901958   0.3645218  -0.5901372), wk =   0.0054620
        k(   26) = (  -0.0901958   0.3124473  -0.4426029), wk =   0.0054620
        k(   27) = (  -0.0901958   0.2603727  -0.2950686), wk =   0.0054620
        k(   28) = (  -0.0901958   0.2082982  -0.1475343), wk =   0.0054620
        k(   29) = (  -0.0901958   0.1562236  -0.0000000), wk =   0.0027310
        k(   30) = (  -0.1352936  -0.0781118   0.8852058), wk =   0.0027310
        k(   31) = (  -0.1352936  -0.1301864   1.0327401), wk =   0.0054620
        k(   32) = (  -0.1352936  -0.1822609   1.1802744), wk =   0.0054620
        k(   33) = (  -0.1352936  -0.2343355   1.3278087), wk =   0.0054620
        k(   34) = (  -0.1352936   0.3905591  -0.4426029), wk =   0.0054620
        k(   35) = (  -0.1352936   0.3384846  -0.2950686), wk =   0.0054620
        k(   36) = (  -0.1352936   0.2864100  -0.1475343), wk =   0.0054620
        k(   37) = (  -0.1352936   0.2343355  -0.0000000), wk =   0.0027310
        k(   38) = (  -0.1803915  -0.1041491   1.1802744), wk =   0.0027310
        k(   39) = (  -0.1803915  -0.1562236   1.3278087), wk =   0.0054620
        k(   40) = (  -0.1803915  -0.2082982   1.4753430), wk =   0.0054620
        k(   41) = (  -0.1803915   0.4165964  -0.2950686), wk =   0.0054620
        k(   42) = (  -0.1803915   0.3645218  -0.1475343), wk =   0.0054620
        k(   43) = (  -0.1803915   0.3124473  -0.0000000), wk =   0.0027310
        k(   44) = (  -0.2254894  -0.1301864   1.4753430), wk =   0.0027310
        k(   45) = (  -0.2254894  -0.1822609   1.6228773), wk =   0.0054620
        k(   46) = (  -0.2254894   0.4426337  -0.1475343), wk =   0.0054620
        k(   47) = (  -0.2254894   0.3905591  -0.0000000), wk =   0.0027310
        k(   48) = (  -0.2705873  -0.1562236   1.7704116), wk =   0.0027310
        k(   49) = (  -0.2705873   0.4686709  -0.0000000), wk =   0.0027310
        k(   50) = (   0.0000000   0.0000000   0.4426029), wk =   0.0009103
        k(   51) = (   0.0000000  -0.0520745   0.5901372), wk =   0.0027310
        k(   52) = (   0.0000000  -0.1041491   0.7376715), wk =   0.0027310
        k(   53) = (   0.0000000  -0.1562236   0.8852058), wk =   0.0027310
        k(   54) = (   0.0000000  -0.2082982   1.0327401), wk =   0.0027310
        k(   55) = (  -0.0000000  -0.2603727   1.1802744), wk =   0.0027310
        k(   56) = (   0.0000000   0.3645218  -0.5901372), wk =   0.0027310
        k(   57) = (   0.0000000   0.3124473  -0.4426029), wk =   0.0027310
        k(   58) = (   0.0000000   0.2603727  -0.2950686), wk =   0.0027310
        k(   59) = (   0.0000000   0.2082982  -0.1475343), wk =   0.0027310
        k(   60) = (   0.0000000   0.1562236  -0.0000000), wk =   0.0027310
        k(   61) = (   0.0000000   0.1041491   0.1475343), wk =   0.0027310
        k(   62) = (  -0.0450979  -0.0260373   0.7376715), wk =   0.0027310
        k(   63) = (  -0.0450979  -0.0781118   0.8852058), wk =   0.0054620
        k(   64) = (  -0.0450979  -0.1301864   1.0327401), wk =   0.0054620
        k(   65) = (  -0.0450979  -0.1822609   1.1802744), wk =   0.0054620
        k(   66) = (  -0.0450979  -0.2343355   1.3278087), wk =   0.0054620
        k(   67) = (  -0.0450979   0.3905591  -0.4426029), wk =   0.0054620
        k(   68) = (  -0.0450979   0.3384846  -0.2950686), wk =   0.0054620
        k(   69) = (  -0.0450979   0.2864100  -0.1475343), wk =   0.0054620
        k(   70) = (  -0.0450979   0.2343355  -0.0000000), wk =   0.0054620
        k(   71) = (  -0.0450979   0.1822609   0.1475343), wk =   0.0054620
        k(   72) = (  -0.0450979   0.1301864   0.2950686), wk =   0.0054620
        k(   73) = (  -0.0901958  -0.0520745   1.0327401), wk =   0.0027310
        k(   74) = (  -0.0901958  -0.1041491   1.1802744), wk =   0.0054620
        k(   75) = (  -0.0901958  -0.1562236   1.3278087), wk =   0.0054620
        k(   76) = (  -0.0901958  -0.2082982   1.4753430), wk =   0.0054620
        k(   77) = (  -0.0901958   0.4165964  -0.2950686), wk =   0.0054620
        k(   78) = (  -0.0901958   0.3645218  -0.1475343), wk =   0.0054620
        k(   79) = (  -0.0901958   0.3124473  -0.0000000), wk =   0.0054620
        k(   80) = (  -0.0901958   0.2603727   0.1475343), wk =   0.0054620
        k(   81) = (  -0.0901958   0.2082982   0.2950686), wk =   0.0054620
        k(   82) = (  -0.0901958   0.1562236   0.4426029), wk =   0.0054620
        k(   83) = (  -0.1352936  -0.0781118   1.3278087), wk =   0.0027310
        k(   84) = (  -0.1352936  -0.1301864   1.4753430), wk =   0.0054620
        k(   85) = (  -0.1352936  -0.1822609   1.6228773), wk =   0.0054620
        k(   86) = (  -0.1352936   0.4426337  -0.1475343), wk =   0.0054620
        k(   87) = (  -0.1352936   0.3905591  -0.0000000), wk =   0.0054620
        k(   88) = (  -0.1352936   0.3384846   0.1475343), wk =   0.0054620
        k(   89) = (  -0.1352936   0.2864100   0.2950686), wk =   0.0054620
        k(   90) = (  -0.1352936   0.2343355   0.4426029), wk =   0.0054620
        k(   91) = (  -0.1352936   0.1822609   0.5901372), wk =   0.0054620
        k(   92) = (  -0.1803915  -0.1041491   1.6228773), wk =   0.0027310
        k(   93) = (  -0.1803915  -0.1562236   1.7704116), wk =   0.0054620
        k(   94) = (  -0.1803915   0.4686709  -0.0000000), wk =   0.0054620
        k(   95) = (  -0.1803915   0.4165964   0.1475343), wk =   0.0054620
        k(   96) = (  -0.1803915   0.3645218   0.2950686), wk =   0.0054620
        k(   97) = (  -0.1803915   0.3124473   0.4426029), wk =   0.0054620
        k(   98) = (  -0.1803915   0.2603727   0.5901372), wk =   0.0054620
        k(   99) = (  -0.1803915   0.2082982   0.7376715), wk =   0.0054620
        k(  100) = (  -0.2254894  -0.1301864   1.9179458), wk =   0.0027310
        k(  101) = (  -0.2254894   0.4947082   0.1475343), wk =   0.0054620
        k(  102) = (  -0.2254894   0.4426337   0.2950686), wk =   0.0054620
        k(  103) = (  -0.2254894   0.3905591   0.4426029), wk =   0.0054620
        k(  104) = (  -0.2254894   0.3384846   0.5901372), wk =   0.0054620
        k(  105) = (  -0.2254894   0.2864100   0.7376715), wk =   0.0054620
        k(  106) = (  -0.2254894   0.2343355   0.8852058), wk =   0.0054620
        k(  107) = (   0.3156852   0.1822609  -1.6228773), wk =   0.0027310
        k(  108) = (   0.3156852   0.1301864  -1.4753430), wk =   0.0054620
        k(  109) = (   0.3156852   0.0781118  -1.3278087), wk =   0.0054620
        k(  110) = (   0.3156852   0.0260373  -1.1802744), wk =   0.0054620
        k(  111) = (   0.3156852  -0.0260373  -1.0327401), wk =   0.0054620
        k(  112) = (   0.2705873   0.1562236  -1.3278087), wk =   0.0027310
        k(  113) = (   0.2705873   0.1041491  -1.1802744), wk =   0.0054620
        k(  114) = (   0.2705873   0.0520745  -1.0327401), wk =   0.0054620
        k(  115) = (   0.2705873   0.0000000  -0.8852058), wk =   0.0054620
        k(  116) = (   0.2254894   0.1301864  -1.0327401), wk =   0.0027310
        k(  117) = (   0.2254894   0.0781118  -0.8852058), wk =   0.0054620
        k(  118) = (   0.2254894   0.0260373  -0.7376715), wk =   0.0054620
        k(  119) = (   0.1803915   0.1041491  -0.7376715), wk =   0.0027310
        k(  120) = (   0.1803915   0.0520745  -0.5901372), wk =   0.0054620
        k(  121) = (   0.1352936   0.0781118  -0.4426029), wk =   0.0027310
        k(  122) = (   0.0000000   0.0000000   0.8852058), wk =   0.0009103
        k(  123) = (   0.0000000  -0.0520745   1.0327401), wk =   0.0027310
        k(  124) = (   0.0000000  -0.1041491   1.1802744), wk =   0.0027310
        k(  125) = (   0.0000000  -0.1562236   1.3278087), wk =   0.0027310
        k(  126) = (   0.0000000  -0.2082982   1.4753430), wk =   0.0027310
        k(  127) = (   0.0000000   0.4165964  -0.2950686), wk =   0.0027310
        k(  128) = (   0.0000000   0.3645218  -0.1475343), wk =   0.0027310
        k(  129) = (   0.0000000   0.3124473  -0.0000000), wk =   0.0027310
        k(  130) = (   0.0000000   0.2603727   0.1475343), wk =   0.0027310
        k(  131) = (   0.0000000   0.2082982   0.2950686), wk =   0.0027310
        k(  132) = (  -0.0450979  -0.0260373   1.1802744), wk =   0.0027310
        k(  133) = (  -0.0450979  -0.0781118   1.3278087), wk =   0.0054620
        k(  134) = (  -0.0450979  -0.1301864   1.4753430), wk =   0.0054620
        k(  135) = (  -0.0450979  -0.1822609   1.6228773), wk =   0.0054620
        k(  136) = (  -0.0450979   0.4426337  -0.1475343), wk =   0.0054620
        k(  137) = (  -0.0450979   0.3905591  -0.0000000), wk =   0.0054620
        k(  138) = (  -0.0450979   0.3384846   0.1475343), wk =   0.0054620
        k(  139) = (  -0.0450979   0.2864100   0.2950686), wk =   0.0054620
        k(  140) = (  -0.0450979   0.2343355   0.4426029), wk =   0.0054620
        k(  141) = (  -0.0901958  -0.0520745   1.4753430), wk =   0.0027310
        k(  142) = (  -0.0901958  -0.1041491   1.6228773), wk =   0.0054620
        k(  143) = (  -0.0901958  -0.1562236   1.7704116), wk =   0.0054620
        k(  144) = (  -0.0901958   0.4686709  -0.0000000), wk =   0.0054620
        k(  145) = (  -0.0901958   0.4165964   0.1475343), wk =   0.0054620
        k(  146) = (  -0.0901958   0.3645218   0.2950686), wk =   0.0054620
        k(  147) = (  -0.0901958   0.3124473   0.4426029), wk =   0.0054620
        k(  148) = (  -0.0901958   0.2603727   0.5901372), wk =   0.0054620
        k(  149) = (  -0.1352936  -0.0781118   1.7704116), wk =   0.0027310
        k(  150) = (  -0.1352936  -0.1301864   1.9179458), wk =   0.0054620
        k(  151) = (  -0.1352936   0.4947082   0.1475343), wk =   0.0054620
        k(  152) = (  -0.1352936   0.4426337   0.2950686), wk =   0.0054620
        k(  153) = (  -0.1352936   0.3905591   0.4426029), wk =   0.0054620
        k(  154) = (  -0.1352936   0.3384846   0.5901372), wk =   0.0054620
        k(  155) = (  -0.1352936   0.2864100   0.7376715), wk =   0.0054620
        k(  156) = (  -0.1803915  -0.1041491   2.0654801), wk =   0.0027310
        k(  157) = (  -0.1803915   0.5207455   0.2950686), wk =   0.0054620
        k(  158) = (  -0.1803915   0.4686709   0.4426029), wk =   0.0054620
        k(  159) = (  -0.1803915   0.4165964   0.5901372), wk =   0.0054620
        k(  160) = (  -0.1803915   0.3645218   0.7376715), wk =   0.0054620
        k(  161) = (  -0.1803915   0.3124473   0.8852058), wk =   0.0054620
        k(  162) = (   0.3607831   0.2082982  -1.4753430), wk =   0.0027310
        k(  163) = (   0.3607831   0.1562236  -1.3278087), wk =   0.0054620
        k(  164) = (   0.3607831   0.1041491  -1.1802744), wk =   0.0054620
        k(  165) = (   0.3607831   0.0520745  -1.0327401), wk =   0.0054620
        k(  166) = (   0.3156852   0.1822609  -1.1802744), wk =   0.0027310
        k(  167) = (   0.3156852   0.1301864  -1.0327401), wk =   0.0054620
        k(  168) = (   0.3156852   0.0781118  -0.8852058), wk =   0.0054620
        k(  169) = (   0.2705873   0.1562236  -0.8852058), wk =   0.0027310
        k(  170) = (   0.2705873   0.1041491  -0.7376715), wk =   0.0054620
        k(  171) = (   0.2254894   0.1301864  -0.5901372), wk =   0.0027310
        k(  172) = (  -0.0000000   0.0000000   1.3278087), wk =   0.0009103
        k(  173) = (  -0.0000000  -0.0520745   1.4753430), wk =   0.0027310
        k(  174) = (  -0.0000000  -0.1041491   1.6228773), wk =   0.0027310
        k(  175) = (  -0.0000000  -0.1562236   1.7704116), wk =   0.0027310
        k(  176) = (  -0.0000000   0.4686709  -0.0000000), wk =   0.0027310
        k(  177) = (  -0.0000000   0.4165964   0.1475343), wk =   0.0027310
        k(  178) = (  -0.0000000   0.3645218   0.2950686), wk =   0.0027310
        k(  179) = (  -0.0000000   0.3124473   0.4426029), wk =   0.0027310
        k(  180) = (  -0.0450979  -0.0260373   1.6228773), wk =   0.0027310
        k(  181) = (  -0.0450979  -0.0781118   1.7704116), wk =   0.0054620
        k(  182) = (  -0.0450979  -0.1301864   1.9179458), wk =   0.0054620
        k(  183) = (  -0.0450979   0.4947082   0.1475343), wk =   0.0054620
        k(  184) = (  -0.0450979   0.4426337   0.2950686), wk =   0.0054620
        k(  185) = (  -0.0450979   0.3905591   0.4426029), wk =   0.0054620
        k(  186) = (  -0.0450979   0.3384846   0.5901372), wk =   0.0054620
        k(  187) = (  -0.0901958  -0.0520745   1.9179458), wk =   0.0027310
        k(  188) = (  -0.0901958  -0.1041491   2.0654801), wk =   0.0054620
        k(  189) = (  -0.0901958   0.5207455   0.2950686), wk =   0.0054620
        k(  190) = (  -0.0901958   0.4686709   0.4426029), wk =   0.0054620
        k(  191) = (  -0.0901958   0.4165964   0.5901372), wk =   0.0054620
        k(  192) = (  -0.0901958   0.3645218   0.7376715), wk =   0.0054620
        k(  193) = (  -0.1352936  -0.0781118   2.2130144), wk =   0.0027310
        k(  194) = (  -0.1352936   0.5467828   0.4426029), wk =   0.0054620
        k(  195) = (  -0.1352936   0.4947082   0.5901372), wk =   0.0054620
        k(  196) = (  -0.1352936   0.4426337   0.7376715), wk =   0.0054620
        k(  197) = (  -0.1352936   0.3905591   0.8852058), wk =   0.0054620
        k(  198) = (   0.4058809   0.2343355  -1.3278087), wk =   0.0027310
        k(  199) = (   0.4058809   0.1822609  -1.1802744), wk =   0.0054620
        k(  200) = (   0.4058809   0.1301864  -1.0327401), wk =   0.0054620
        k(  201) = (   0.3607831   0.2082982  -1.0327401), wk =   0.0027310
        k(  202) = (   0.3607831   0.1562236  -0.8852058), wk =   0.0054620
        k(  203) = (   0.3156852   0.1822609  -0.7376715), wk =   0.0027310
        k(  204) = (   0.0000000   0.0000000   1.7704116), wk =   0.0009103
        k(  205) = (   0.0000000  -0.0520745   1.9179458), wk =   0.0027310
        k(  206) = (   0.0000000  -0.1041491   2.0654801), wk =   0.0027310
        k(  207) = (   0.0000000   0.5207455   0.2950686), wk =   0.0027310
        k(  208) = (   0.0000000   0.4686709   0.4426029), wk =   0.0027310
        k(  209) = (   0.0000000   0.4165964   0.5901372), wk =   0.0027310
        k(  210) = (  -0.0450979  -0.0260373   2.0654801), wk =   0.0027310
        k(  211) = (  -0.0450979  -0.0781118   2.2130144), wk =   0.0054620
        k(  212) = (  -0.0450979   0.5467828   0.4426029), wk =   0.0054620
        k(  213) = (  -0.0450979   0.4947082   0.5901372), wk =   0.0054620
        k(  214) = (  -0.0450979   0.4426337   0.7376715), wk =   0.0054620
        k(  215) = (  -0.0901958  -0.0520745   2.3605487), wk =   0.0027310
        k(  216) = (  -0.0901958   0.5728200   0.5901372), wk =   0.0054620
        k(  217) = (  -0.0901958   0.5207455   0.7376715), wk =   0.0054620
        k(  218) = (  -0.0901958   0.4686709   0.8852058), wk =   0.0054620
        k(  219) = (   0.4509788   0.2603727  -1.1802744), wk =   0.0027310
        k(  220) = (   0.4509788   0.2082982  -1.0327401), wk =   0.0054620
        k(  221) = (   0.4058809   0.2343355  -0.8852058), wk =   0.0027310
        k(  222) = (   0.0000000   0.0000000   2.2130144), wk =   0.0009103
        k(  223) = (   0.0000000  -0.0520745   2.3605487), wk =   0.0027310
        k(  224) = (   0.0000000   0.5728200   0.5901372), wk =   0.0027310
        k(  225) = (   0.0000000   0.5207455   0.7376715), wk =   0.0027310
        k(  226) = (  -0.0450979  -0.0260373   2.5080830), wk =   0.0027310
        k(  227) = (  -0.0450979   0.5988573   0.7376715), wk =   0.0054620
        k(  228) = (  -0.0450979   0.5467828   0.8852058), wk =   0.0054620
        k(  229) = (   0.4960767   0.2864100  -1.0327401), wk =   0.0027310
        k(  230) = (  -0.0000000   0.0000000   2.6556173), wk =   0.0009103
        k(  231) = (  -0.0000000   0.6248946   0.8852058), wk =   0.0027310

                       cryst. coord.
        k(    1) = (   0.0000000   0.0000000   0.0000000), wk =   0.0004552
        k(    2) = (   0.0000000   0.0000000   0.0769231), wk =   0.0027310
        k(    3) = (   0.0000000   0.0000000   0.1538462), wk =   0.0027310
        k(    4) = (  -0.0000000  -0.0000000   0.2307692), wk =   0.0027310
        k(    5) = (   0.0000000   0.0000000   0.3076923), wk =   0.0027310
        k(    6) = (  -0.0000000  -0.0000000   0.3846154), wk =   0.0027310
        k(    7) = (  -0.0000000  -0.0000000   0.4615385), wk =   0.0027310
        k(    8) = (   0.0000000   0.0769231   0.0769231), wk =   0.0027310
        k(    9) = (   0.0000000   0.0769231   0.1538462), wk =   0.0054620
        k(   10) = (   0.0000000   0.0769231   0.2307692), wk =   0.0054620
        k(   11) = (   0.0000000   0.0769231   0.3076923), wk =   0.0054620
        k(   12) = (   0.0000000   0.0769231   0.3846154), wk =   0.0054620
        k(   13) = (  -0.0000000   0.0769231   0.4615385), wk =   0.0054620
        k(   14) = (   0.0000000   0.0769231  -0.4615385), wk =   0.0054620
        k(   15) = (   0.0000000   0.0769231  -0.3846154), wk =   0.0054620
        k(   16) = (   0.0000000   0.0769231  -0.3076923), wk =   0.0054620
        k(   17) = (   0.0000000   0.0769231  -0.2307692), wk =   0.0054620
        k(   18) = (   0.0000000   0.0769231  -0.1538462), wk =   0.0054620
        k(   19) = (   0.0000000   0.0769231  -0.0769231), wk =   0.0027310
        k(   20) = (   0.0000000   0.1538462   0.1538462), wk =   0.0027310
        k(   21) = (   0.0000000   0.1538462   0.2307692), wk =   0.0054620
        k(   22) = (   0.0000000   0.1538462   0.3076923), wk =   0.0054620
        k(   23) = (   0.0000000   0.1538462   0.3846154), wk =   0.0054620
        k(   24) = (   0.0000000   0.1538462   0.4615385), wk =   0.0054620
        k(   25) = (   0.0000000   0.1538462  -0.4615385), wk =   0.0054620
        k(   26) = (   0.0000000   0.1538462  -0.3846154), wk =   0.0054620
        k(   27) = (   0.0000000   0.1538462  -0.3076923), wk =   0.0054620
        k(   28) = (   0.0000000   0.1538462  -0.2307692), wk =   0.0054620
        k(   29) = (   0.0000000   0.1538462  -0.1538462), wk =   0.0027310
        k(   30) = (  -0.0000000   0.2307692   0.2307692), wk =   0.0027310
        k(   31) = (   0.0000000   0.2307692   0.3076923), wk =   0.0054620
        k(   32) = (   0.0000000   0.2307692   0.3846154), wk =   0.0054620
        k(   33) = (  -0.0000000   0.2307692   0.4615385), wk =   0.0054620
        k(   34) = (   0.0000000   0.2307692  -0.4615385), wk =   0.0054620
        k(   35) = (   0.0000000   0.2307692  -0.3846154), wk =   0.0054620
        k(   36) = (   0.0000000   0.2307692  -0.3076923), wk =   0.0054620
        k(   37) = (   0.0000000   0.2307692  -0.2307692), wk =   0.0027310
        k(   38) = (   0.0000000   0.3076923   0.3076923), wk =   0.0027310
        k(   39) = (   0.0000000   0.3076923   0.3846154), wk =   0.0054620
        k(   40) = (   0.0000000   0.3076923   0.4615385), wk =   0.0054620
        k(   41) = (   0.0000000   0.3076923  -0.4615385), wk =   0.0054620
        k(   42) = (   0.0000000   0.3076923  -0.3846154), wk =   0.0054620
        k(   43) = (   0.0000000   0.3076923  -0.3076923), wk =   0.0027310
        k(   44) = (   0.0000000   0.3846154   0.3846154), wk =   0.0027310
        k(   45) = (   0.0000000   0.3846154   0.4615385), wk =   0.0054620
        k(   46) = (   0.0000000   0.3846154  -0.4615385), wk =   0.0054620
        k(   47) = (   0.0000000   0.3846154  -0.3846154), wk =   0.0027310
        k(   48) = (  -0.0000000   0.4615385   0.4615385), wk =   0.0027310
        k(   49) = (   0.0000000   0.4615385  -0.4615385), wk =   0.0027310
        k(   50) = (   0.0769231   0.0769231   0.0769231), wk =   0.0009103
        k(   51) = (   0.0769231   0.0769231   0.1538462), wk =   0.0027310
        k(   52) = (   0.0769231   0.0769231   0.2307692), wk =   0.0027310
        k(   53) = (   0.0769231   0.0769231   0.3076923), wk =   0.0027310
        k(   54) = (   0.0769231   0.0769231   0.3846154), wk =   0.0027310
        k(   55) = (   0.0769231   0.0769231   0.4615385), wk =   0.0027310
        k(   56) = (   0.0769231   0.0769231  -0.4615385), wk =   0.0027310
        k(   57) = (   0.0769231   0.0769231  -0.3846154), wk =   0.0027310
        k(   58) = (   0.0769231   0.0769231  -0.3076923), wk =   0.0027310
        k(   59) = (   0.0769231   0.0769231  -0.2307692), wk =   0.0027310
        k(   60) = (   0.0769231   0.0769231  -0.1538462), wk =   0.0027310
        k(   61) = (   0.0769231   0.0769231  -0.0769231), wk =   0.0027310
        k(   62) = (   0.0769231   0.1538462   0.1538462), wk =   0.0027310
        k(   63) = (   0.0769231   0.1538462   0.2307692), wk =   0.0054620
        k(   64) = (   0.0769231   0.1538462   0.3076923), wk =   0.0054620
        k(   65) = (   0.0769231   0.1538462   0.3846154), wk =   0.0054620
        k(   66) = (   0.0769231   0.1538462   0.4615385), wk =   0.0054620
        k(   67) = (   0.0769231   0.1538462  -0.4615385), wk =   0.0054620
        k(   68) = (   0.0769231   0.1538462  -0.3846154), wk =   0.0054620
        k(   69) = (   0.0769231   0.1538462  -0.3076923), wk =   0.0054620
        k(   70) = (   0.0769231   0.1538462  -0.2307692), wk =   0.0054620
        k(   71) = (   0.0769231   0.1538462  -0.1538462), wk =   0.0054620
        k(   72) = (   0.0769231   0.1538462  -0.0769231), wk =   0.0054620
        k(   73) = (   0.0769231   0.2307692   0.2307692), wk =   0.0027310
        k(   74) = (   0.0769231   0.2307692   0.3076923), wk =   0.0054620
        k(   75) = (   0.0769231   0.2307692   0.3846154), wk =   0.0054620
        k(   76) = (   0.0769231   0.2307692   0.4615385), wk =   0.0054620
        k(   77) = (   0.0769231   0.2307692  -0.4615385), wk =   0.0054620
        k(   78) = (   0.0769231   0.2307692  -0.3846154), wk =   0.0054620
        k(   79) = (   0.0769231   0.2307692  -0.3076923), wk =   0.0054620
        k(   80) = (   0.0769231   0.2307692  -0.2307692), wk =   0.0054620
        k(   81) = (   0.0769231   0.2307692  -0.1538462), wk =   0.0054620
        k(   82) = (   0.0769231   0.2307692  -0.0769231), wk =   0.0054620
        k(   83) = (   0.0769231   0.3076923   0.3076923), wk =   0.0027310
        k(   84) = (   0.0769231   0.3076923   0.3846154), wk =   0.0054620
        k(   85) = (   0.0769231   0.3076923   0.4615385), wk =   0.0054620
        k(   86) = (   0.0769231   0.3076923  -0.4615385), wk =   0.0054620
        k(   87) = (   0.0769231   0.3076923  -0.3846154), wk =   0.0054620
        k(   88) = (   0.0769231   0.3076923  -0.3076923), wk =   0.0054620
        k(   89) = (   0.0769231   0.3076923  -0.2307692), wk =   0.0054620
        k(   90) = (   0.0769231   0.3076923  -0.1538462), wk =   0.0054620
        k(   91) = (   0.0769231   0.3076923  -0.0769231), wk =   0.0054620
        k(   92) = (   0.0769231   0.3846154   0.3846154), wk =   0.0027310
        k(   93) = (   0.0769231   0.3846154   0.4615385), wk =   0.0054620
        k(   94) = (   0.0769231   0.3846154  -0.4615385), wk =   0.0054620
        k(   95) = (   0.0769231   0.3846154  -0.3846154), wk =   0.0054620
        k(   96) = (   0.0769231   0.3846154  -0.3076923), wk =   0.0054620
        k(   97) = (   0.0769231   0.3846154  -0.2307692), wk =   0.0054620
        k(   98) = (   0.0769231   0.3846154  -0.1538462), wk =   0.0054620
        k(   99) = (   0.0769231   0.3846154  -0.0769231), wk =   0.0054620
        k(  100) = (   0.0769231   0.4615385   0.4615385), wk =   0.0027310
        k(  101) = (   0.0769231   0.4615385  -0.4615385), wk =   0.0054620
        k(  102) = (   0.0769231   0.4615385  -0.3846154), wk =   0.0054620
        k(  103) = (   0.0769231   0.4615385  -0.3076923), wk =   0.0054620
        k(  104) = (   0.0769231   0.4615385  -0.2307692), wk =   0.0054620
        k(  105) = (   0.0769231   0.4615385  -0.1538462), wk =   0.0054620
        k(  106) = (   0.0769231   0.4615385  -0.0769231), wk =   0.0054620
        k(  107) = (   0.0769231  -0.4615385  -0.4615385), wk =   0.0027310
        k(  108) = (   0.0769231  -0.4615385  -0.3846154), wk =   0.0054620
        k(  109) = (   0.0769231  -0.4615385  -0.3076923), wk =   0.0054620
        k(  110) = (   0.0769231  -0.4615385  -0.2307692), wk =   0.0054620
        k(  111) = (   0.0769231  -0.4615385  -0.1538462), wk =   0.0054620
        k(  112) = (   0.0769231  -0.3846154  -0.3846154), wk =   0.0027310
        k(  113) = (   0.0769231  -0.3846154  -0.3076923), wk =   0.0054620
        k(  114) = (   0.0769231  -0.3846154  -0.2307692), wk =   0.0054620
        k(  115) = (   0.0769231  -0.3846154  -0.1538462), wk =   0.0054620
        k(  116) = (   0.0769231  -0.3076923  -0.3076923), wk =   0.0027310
        k(  117) = (   0.0769231  -0.3076923  -0.2307692), wk =   0.0054620
        k(  118) = (   0.0769231  -0.3076923  -0.1538462), wk =   0.0054620
        k(  119) = (   0.0769231  -0.2307692  -0.2307692), wk =   0.0027310
        k(  120) = (   0.0769231  -0.2307692  -0.1538462), wk =   0.0054620
        k(  121) = (   0.0769231  -0.1538462  -0.1538462), wk =   0.0027310
        k(  122) = (   0.1538462   0.1538462   0.1538462), wk =   0.0009103
        k(  123) = (   0.1538462   0.1538462   0.2307692), wk =   0.0027310
        k(  124) = (   0.1538462   0.1538462   0.3076923), wk =   0.0027310
        k(  125) = (   0.1538462   0.1538462   0.3846154), wk =   0.0027310
        k(  126) = (   0.1538462   0.1538462   0.4615385), wk =   0.0027310
        k(  127) = (   0.1538462   0.1538462  -0.4615385), wk =   0.0027310
        k(  128) = (   0.1538462   0.1538462  -0.3846154), wk =   0.0027310
        k(  129) = (   0.1538462   0.1538462  -0.3076923), wk =   0.0027310
        k(  130) = (   0.1538462   0.1538462  -0.2307692), wk =   0.0027310
        k(  131) = (   0.1538462   0.1538462  -0.1538462), wk =   0.0027310
        k(  132) = (   0.1538462   0.2307692   0.2307692), wk =   0.0027310
        k(  133) = (   0.1538462   0.2307692   0.3076923), wk =   0.0054620
        k(  134) = (   0.1538462   0.2307692   0.3846154), wk =   0.0054620
        k(  135) = (   0.1538462   0.2307692   0.4615385), wk =   0.0054620
        k(  136) = (   0.1538462   0.2307692  -0.4615385), wk =   0.0054620
        k(  137) = (   0.1538462   0.2307692  -0.3846154), wk =   0.0054620
        k(  138) = (   0.1538462   0.2307692  -0.3076923), wk =   0.0054620
        k(  139) = (   0.1538462   0.2307692  -0.2307692), wk =   0.0054620
        k(  140) = (   0.1538462   0.2307692  -0.1538462), wk =   0.0054620
        k(  141) = (   0.1538462   0.3076923   0.3076923), wk =   0.0027310
        k(  142) = (   0.1538462   0.3076923   0.3846154), wk =   0.0054620
        k(  143) = (   0.1538462   0.3076923   0.4615385), wk =   0.0054620
        k(  144) = (   0.1538462   0.3076923  -0.4615385), wk =   0.0054620
        k(  145) = (   0.1538462   0.3076923  -0.3846154), wk =   0.0054620
        k(  146) = (   0.1538462   0.3076923  -0.3076923), wk =   0.0054620
        k(  147) = (   0.1538462   0.3076923  -0.2307692), wk =   0.0054620
        k(  148) = (   0.1538462   0.3076923  -0.1538462), wk =   0.0054620
        k(  149) = (   0.1538462   0.3846154   0.3846154), wk =   0.0027310
        k(  150) = (   0.1538462   0.3846154   0.4615385), wk =   0.0054620
        k(  151) = (   0.1538462   0.3846154  -0.4615385), wk =   0.0054620
        k(  152) = (   0.1538462   0.3846154  -0.3846154), wk =   0.0054620
        k(  153) = (   0.1538462   0.3846154  -0.3076923), wk =   0.0054620
        k(  154) = (   0.1538462   0.3846154  -0.2307692), wk =   0.0054620
        k(  155) = (   0.1538462   0.3846154  -0.1538462), wk =   0.0054620
        k(  156) = (   0.1538462   0.4615385   0.4615385), wk =   0.0027310
        k(  157) = (   0.1538462   0.4615385  -0.4615385), wk =   0.0054620
        k(  158) = (   0.1538462   0.4615385  -0.3846154), wk =   0.0054620
        k(  159) = (   0.1538462   0.4615385  -0.3076923), wk =   0.0054620
        k(  160) = (   0.1538462   0.4615385  -0.2307692), wk =   0.0054620
        k(  161) = (   0.1538462   0.4615385  -0.1538462), wk =   0.0054620
        k(  162) = (   0.1538462  -0.4615385  -0.4615385), wk =   0.0027310
        k(  163) = (   0.1538462  -0.4615385  -0.3846154), wk =   0.0054620
        k(  164) = (   0.1538462  -0.4615385  -0.3076923), wk =   0.0054620
        k(  165) = (   0.1538462  -0.4615385  -0.2307692), wk =   0.0054620
        k(  166) = (   0.1538462  -0.3846154  -0.3846154), wk =   0.0027310
        k(  167) = (   0.1538462  -0.3846154  -0.3076923), wk =   0.0054620
        k(  168) = (   0.1538462  -0.3846154  -0.2307692), wk =   0.0054620
        k(  169) = (   0.1538462  -0.3076923  -0.3076923), wk =   0.0027310
        k(  170) = (   0.1538462  -0.3076923  -0.2307692), wk =   0.0054620
        k(  171) = (   0.1538462  -0.2307692  -0.2307692), wk =   0.0027310
        k(  172) = (   0.2307692   0.2307692   0.2307692), wk =   0.0009103
        k(  173) = (   0.2307692   0.2307692   0.3076923), wk =   0.0027310
        k(  174) = (   0.2307692   0.2307692   0.3846154), wk =   0.0027310
        k(  175) = (   0.2307692   0.2307692   0.4615385), wk =   0.0027310
        k(  176) = (   0.2307692   0.2307692  -0.4615385), wk =   0.0027310
        k(  177) = (   0.2307692   0.2307692  -0.3846154), wk =   0.0027310
        k(  178) = (   0.2307692   0.2307692  -0.3076923), wk =   0.0027310
        k(  179) = (   0.2307692   0.2307692  -0.2307692), wk =   0.0027310
        k(  180) = (   0.2307692   0.3076923   0.3076923), wk =   0.0027310
        k(  181) = (   0.2307692   0.3076923   0.3846154), wk =   0.0054620
        k(  182) = (   0.2307692   0.3076923   0.4615385), wk =   0.0054620
        k(  183) = (   0.2307692   0.3076923  -0.4615385), wk =   0.0054620
        k(  184) = (   0.2307692   0.3076923  -0.3846154), wk =   0.0054620
        k(  185) = (   0.2307692   0.3076923  -0.3076923), wk =   0.0054620
        k(  186) = (   0.2307692   0.3076923  -0.2307692), wk =   0.0054620
        k(  187) = (   0.2307692   0.3846154   0.3846154), wk =   0.0027310
        k(  188) = (   0.2307692   0.3846154   0.4615385), wk =   0.0054620
        k(  189) = (   0.2307692   0.3846154  -0.4615385), wk =   0.0054620
        k(  190) = (   0.2307692   0.3846154  -0.3846154), wk =   0.0054620
        k(  191) = (   0.2307692   0.3846154  -0.3076923), wk =   0.0054620
        k(  192) = (   0.2307692   0.3846154  -0.2307692), wk =   0.0054620
        k(  193) = (   0.2307692   0.4615385   0.4615385), wk =   0.0027310
        k(  194) = (   0.2307692   0.4615385  -0.4615385), wk =   0.0054620
        k(  195) = (   0.2307692   0.4615385  -0.3846154), wk =   0.0054620
        k(  196) = (   0.2307692   0.4615385  -0.3076923), wk =   0.0054620
        k(  197) = (   0.2307692   0.4615385  -0.2307692), wk =   0.0054620
        k(  198) = (   0.2307692  -0.4615385  -0.4615385), wk =   0.0027310
        k(  199) = (   0.2307692  -0.4615385  -0.3846154), wk =   0.0054620
        k(  200) = (   0.2307692  -0.4615385  -0.3076923), wk =   0.0054620
        k(  201) = (   0.2307692  -0.3846154  -0.3846154), wk =   0.0027310
        k(  202) = (   0.2307692  -0.3846154  -0.3076923), wk =   0.0054620
        k(  203) = (   0.2307692  -0.3076923  -0.3076923), wk =   0.0027310
        k(  204) = (   0.3076923   0.3076923   0.3076923), wk =   0.0009103
        k(  205) = (   0.3076923   0.3076923   0.3846154), wk =   0.0027310
        k(  206) = (   0.3076923   0.3076923   0.4615385), wk =   0.0027310
        k(  207) = (   0.3076923   0.3076923  -0.4615385), wk =   0.0027310
        k(  208) = (   0.3076923   0.3076923  -0.3846154), wk =   0.0027310
        k(  209) = (   0.3076923   0.3076923  -0.3076923), wk =   0.0027310
        k(  210) = (   0.3076923   0.3846154   0.3846154), wk =   0.0027310
        k(  211) = (   0.3076923   0.3846154   0.4615385), wk =   0.0054620
        k(  212) = (   0.3076923   0.3846154  -0.4615385), wk =   0.0054620
        k(  213) = (   0.3076923   0.3846154  -0.3846154), wk =   0.0054620
        k(  214) = (   0.3076923   0.3846154  -0.3076923), wk =   0.0054620
        k(  215) = (   0.3076923   0.4615385   0.4615385), wk =   0.0027310
        k(  216) = (   0.3076923   0.4615385  -0.4615385), wk =   0.0054620
        k(  217) = (   0.3076923   0.4615385  -0.3846154), wk =   0.0054620
        k(  218) = (   0.3076923   0.4615385  -0.3076923), wk =   0.0054620
        k(  219) = (   0.3076923  -0.4615385  -0.4615385), wk =   0.0027310
        k(  220) = (   0.3076923  -0.4615385  -0.3846154), wk =   0.0054620
        k(  221) = (   0.3076923  -0.3846154  -0.3846154), wk =   0.0027310
        k(  222) = (   0.3846154   0.3846154   0.3846154), wk =   0.0009103
        k(  223) = (   0.3846154   0.3846154   0.4615385), wk =   0.0027310
        k(  224) = (   0.3846154   0.3846154  -0.4615385), wk =   0.0027310
        k(  225) = (   0.3846154   0.3846154  -0.3846154), wk =   0.0027310
        k(  226) = (   0.3846154   0.4615385   0.4615385), wk =   0.0027310
        k(  227) = (   0.3846154   0.4615385  -0.4615385), wk =   0.0054620
        k(  228) = (   0.3846154   0.4615385  -0.3846154), wk =   0.0054620
        k(  229) = (   0.3846154  -0.4615385  -0.4615385), wk =   0.0027310
        k(  230) = (   0.4615385   0.4615385   0.4615385), wk =   0.0009103
        k(  231) = (   0.4615385   0.4615385  -0.4615385), wk =   0.0027310

     Dense  grid:   120147 G-vectors     FFT dimensions: (  81,  81,  81)

     Smooth grid:    42513 G-vectors     FFT dimensions: (  60,  60,  60)

     Dynamical RAM for                 wfc:       0.53 MB

     Dynamical RAM for     wfc (w. buffer):      35.30 MB

     Dynamical RAM for           str. fact:       0.69 MB

     Dynamical RAM for           local pot:       0.00 MB

     Dynamical RAM for          nlocal pot:       1.23 MB

     Dynamical RAM for                qrad:       6.42 MB

     Dynamical RAM for          rho,v,vnew:       4.68 MB

     Dynamical RAM for               rhoin:       1.56 MB

     Dynamical RAM for            rho*nmix:       7.33 MB

     Dynamical RAM for           G-vectors:       0.90 MB

     Dynamical RAM for          h,s,v(r/c):       0.50 MB

     Dynamical RAM for          <psi|beta>:       0.10 MB

     Dynamical RAM for                 psi:       1.05 MB

     Dynamical RAM for                hpsi:       1.05 MB

     Dynamical RAM for                spsi:       1.05 MB

     Dynamical RAM for      wfcinit/wfcrot:       1.28 MB

     Dynamical RAM for           addusdens:       7.33 MB

     Dynamical RAM for          addusforce:       7.51 MB

     Dynamical RAM for         addusstress:       7.45 MB

     Estimated static dynamical RAM per process >      54.99 MB

     Estimated max dynamical RAM per process >      69.84 MB

     Estimated total dynamical RAM >       3.48 GB

     Check: negative core charge=   -0.000004
     Generating pointlists ...
     new r_m :   0.1708 (alat units)  2.1631 (a.u.) for type    1
     new r_m :   0.1184 (alat units)  1.4999 (a.u.) for type    2
     new r_m :   0.1184 (alat units)  1.4999 (a.u.) for type    3

     Initial potential from superposition of free atoms

     starting charge      84.9785, renormalised to      85.0000
     Starting wfcs are   59 randomized atomic wfcs
     Checking if some PAW data can be deallocated... 
       PAW data deallocated on   50 nodes for type:  1
       PAW data deallocated on   38 nodes for type:  2
       PAW data deallocated on   24 nodes for type:  3

     total cpu time spent up to now is        5.3 secs

     per-process dynamical memory:    72.6 Mb

     Self-consistent Calculation

     iteration #  1     ecut=    50.00 Ry     beta= 0.40
     Davidson diagonalization with overlap

---- Real-time Memory Report at c_bands before calling an iterative solver
           107 MiB given to the printing process from OS
            71 MiB allocation reported by mallinfo(arena+hblkhd)
        487662 MiB available memory on the node where the printing process lives
------------------
     ethr =  1.00E-02,  avg # of iterations =  4.6

     negative rho (up, down):  5.221E-01 0.000E+00

     total cpu time spent up to now is       16.5 secs

     total energy              =   -1664.87947767 Ry
     estimated scf accuracy    <      11.52433580 Ry

     total magnetization       =     2.95 Bohr mag/cell
     absolute magnetization    =     6.86 Bohr mag/cell

     iteration #  2     ecut=    50.00 Ry     beta= 0.40
     Davidson diagonalization with overlap

---- Real-time Memory Report at c_bands before calling an iterative solver
           128 MiB given to the printing process from OS
            80 MiB allocation reported by mallinfo(arena+hblkhd)
        486651 MiB available memory on the node where the printing process lives
------------------
     ethr =  1.00E-02,  avg # of iterations =  3.0

     negative rho (up, down):  3.113E-01 0.000E+00

     total cpu time spent up to now is       27.1 secs

     total energy              =   -1665.99121327 Ry
     estimated scf accuracy    <       5.36241031 Ry

     total magnetization       =     4.72 Bohr mag/cell
     absolute magnetization    =     5.25 Bohr mag/cell

     iteration #  3     ecut=    50.00 Ry     beta= 0.40
     Davidson diagonalization with overlap

---- Real-time Memory Report at c_bands before calling an iterative solver
           130 MiB given to the printing process from OS
            80 MiB allocation reported by mallinfo(arena+hblkhd)
        486638 MiB available memory on the node where the printing process lives
------------------
     ethr =  6.31E-03,  avg # of iterations =  1.1

     negative rho (up, down):  2.480E-01 0.000E+00

     total cpu time spent up to now is       35.1 secs

     total energy              =   -1666.79890872 Ry
     estimated scf accuracy    <       1.51539068 Ry

     total magnetization       =     3.67 Bohr mag/cell
     absolute magnetization    =     4.39 Bohr mag/cell

     iteration #  4     ecut=    50.00 Ry     beta= 0.40
     Davidson diagonalization with overlap

---- Real-time Memory Report at c_bands before calling an iterative solver
           130 MiB given to the printing process from OS
            81 MiB allocation reported by mallinfo(arena+hblkhd)
        486629 MiB available memory on the node where the printing process lives
------------------
     ethr =  1.78E-03,  avg # of iterations =  3.0

     negative rho (up, down):  3.966E-01 0.000E+00

     total cpu time spent up to now is       44.2 secs

     total energy              =   -1666.93704107 Ry
     estimated scf accuracy    <       4.06835129 Ry

     total magnetization       =     3.67 Bohr mag/cell
     absolute magnetization    =     7.50 Bohr mag/cell

     iteration #  5     ecut=    50.00 Ry     beta= 0.40
     Davidson diagonalization with overlap

---- Real-time Memory Report at c_bands before calling an iterative solver
           130 MiB given to the printing process from OS
            81 MiB allocation reported by mallinfo(arena+hblkhd)
        486616 MiB available memory on the node where the printing process lives
------------------
     ethr =  1.78E-03,  avg # of iterations =  1.6

     negative rho (up, down):  4.509E-01 0.000E+00

     total cpu time spent up to now is       52.8 secs

     total energy              =   -1666.97773544 Ry
     estimated scf accuracy    <       2.21077057 Ry

     total magnetization       =     2.69 Bohr mag/cell
     absolute magnetization    =     6.03 Bohr mag/cell

     iteration #  6     ecut=    50.00 Ry     beta= 0.40
     Davidson diagonalization with overlap

---- Real-time Memory Report at c_bands before calling an iterative solver
           131 MiB given to the printing process from OS
            81 MiB allocation reported by mallinfo(arena+hblkhd)
        486609 MiB available memory on the node where the printing process lives
------------------
     ethr =  1.78E-03,  avg # of iterations =  2.5

     negative rho (up, down):  4.698E-01 0.000E+00

     total cpu time spent up to now is       61.5 secs

     total energy              =   -1666.98579181 Ry
     estimated scf accuracy    <       0.37211205 Ry

     total magnetization       =     2.06 Bohr mag/cell
     absolute magnetization    =     4.15 Bohr mag/cell

     iteration #  7     ecut=    50.00 Ry     beta= 0.40
     Davidson diagonalization with overlap

---- Real-time Memory Report at c_bands before calling an iterative solver
           131 MiB given to the printing process from OS
            82 MiB allocation reported by mallinfo(arena+hblkhd)
        486598 MiB available memory on the node where the printing process lives
------------------
     ethr =  4.38E-04,  avg # of iterations =  3.5

     negative rho (up, down):  4.348E-01 0.000E+00

     total cpu time spent up to now is       70.9 secs

     total energy              =   -1666.99202845 Ry
     estimated scf accuracy    <       0.39562258 Ry

     total magnetization       =     1.59 Bohr mag/cell
     absolute magnetization    =     1.90 Bohr mag/cell

     iteration #  8     ecut=    50.00 Ry     beta= 0.40
     Davidson diagonalization with overlap

---- Real-time Memory Report at c_bands before calling an iterative solver
           132 MiB given to the printing process from OS
            82 MiB allocation reported by mallinfo(arena+hblkhd)
        486594 MiB available memory on the node where the printing process lives
------------------
     ethr =  4.38E-04,  avg # of iterations =  3.1

     negative rho (up, down):  4.253E-01 1.363E-02

     total cpu time spent up to now is       80.0 secs

     total energy              =   -1667.03377015 Ry
     estimated scf accuracy    <       0.62827897 Ry

     total magnetization       =     1.33 Bohr mag/cell
     absolute magnetization    =     3.66 Bohr mag/cell

     iteration #  9     ecut=    50.00 Ry     beta= 0.40
     Davidson diagonalization with overlap

---- Real-time Memory Report at c_bands before calling an iterative solver
           132 MiB given to the printing process from OS
            83 MiB allocation reported by mallinfo(arena+hblkhd)
        486582 MiB available memory on the node where the printing process lives
------------------
     ethr =  4.38E-04,  avg # of iterations =  2.5

     negative rho (up, down):  4.369E-01 9.098E-03

     total cpu time spent up to now is       88.9 secs

     total energy              =   -1667.03647575 Ry
     estimated scf accuracy    <       1.60977558 Ry

     total magnetization       =     0.69 Bohr mag/cell
     absolute magnetization    =     3.88 Bohr mag/cell

     iteration # 10     ecut=    50.00 Ry     beta= 0.40
     Davidson diagonalization with overlap

---- Real-time Memory Report at c_bands before calling an iterative solver
           133 MiB given to the printing process from OS
            83 MiB allocation reported by mallinfo(arena+hblkhd)
        486575 MiB available memory on the node where the printing process lives
------------------
     ethr =  4.38E-04,  avg # of iterations =  1.0

     negative rho (up, down):  4.312E-01 1.140E-02

     total cpu time spent up to now is       96.9 secs

     total energy              =   -1667.03997108 Ry
     estimated scf accuracy    <       1.41842388 Ry

     total magnetization       =     0.72 Bohr mag/cell
     absolute magnetization    =     3.79 Bohr mag/cell

     iteration # 11     ecut=    50.00 Ry     beta= 0.40
     Davidson diagonalization with overlap

---- Real-time Memory Report at c_bands before calling an iterative solver
           133 MiB given to the printing process from OS
            83 MiB allocation reported by mallinfo(arena+hblkhd)
        486574 MiB available memory on the node where the printing process lives
------------------
     ethr =  4.38E-04,  avg # of iterations =  1.0

     negative rho (up, down):  4.512E-01 2.585E-02

     total cpu time spent up to now is      104.7 secs

     total energy              =   -1667.04216693 Ry
     estimated scf accuracy    <       1.49747536 Ry

     total magnetization       =     0.71 Bohr mag/cell
     absolute magnetization    =     3.85 Bohr mag/cell

     iteration # 12     ecut=    50.00 Ry     beta= 0.40
     Davidson diagonalization with overlap

---- Real-time Memory Report at c_bands before calling an iterative solver
           133 MiB given to the printing process from OS
            83 MiB allocation reported by mallinfo(arena+hblkhd)
        486567 MiB available memory on the node where the printing process lives
------------------
     ethr =  4.38E-04,  avg # of iterations =  3.0

     negative rho (up, down):  4.191E-01 1.950E-02

     total cpu time spent up to now is      113.8 secs

     total energy              =   -1667.00894707 Ry
     estimated scf accuracy    <       2.71602488 Ry

     total magnetization       =     0.36 Bohr mag/cell
     absolute magnetization    =     2.10 Bohr mag/cell

     iteration # 13     ecut=    50.00 Ry     beta= 0.40
     Davidson diagonalization with overlap

---- Real-time Memory Report at c_bands before calling an iterative solver
           133 MiB given to the printing process from OS
            83 MiB allocation reported by mallinfo(arena+hblkhd)
        486699 MiB available memory on the node where the printing process lives
------------------
     ethr =  4.38E-04,  avg # of iterations =  3.5

     negative rho (up, down):  4.388E-01 2.884E-02

     total cpu time spent up to now is      123.0 secs

     total energy              =   -1667.02913099 Ry
     estimated scf accuracy    <       1.26340363 Ry

     total magnetization       =     0.71 Bohr mag/cell
     absolute magnetization    =     3.76 Bohr mag/cell

     iteration # 14     ecut=    50.00 Ry     beta= 0.40
     Davidson diagonalization with overlap

---- Real-time Memory Report at c_bands before calling an iterative solver
           133 MiB given to the printing process from OS
            83 MiB allocation reported by mallinfo(arena+hblkhd)
        486669 MiB available memory on the node where the printing process lives
------------------
     ethr =  4.38E-04,  avg # of iterations =  1.0

     negative rho (up, down):  4.571E-01 3.249E-02

     total cpu time spent up to now is      130.9 secs

     total energy              =   -1667.01161839 Ry
     estimated scf accuracy    <       0.95667116 Ry

     total magnetization       =     0.49 Bohr mag/cell
     absolute magnetization    =     3.23 Bohr mag/cell

     iteration # 15     ecut=    50.00 Ry     beta= 0.40
     Davidson diagonalization with overlap

---- Real-time Memory Report at c_bands before calling an iterative solver
           133 MiB given to the printing process from OS
            83 MiB allocation reported by mallinfo(arena+hblkhd)
        486663 MiB available memory on the node where the printing process lives
------------------
     ethr =  4.38E-04,  avg # of iterations =  4.0

     negative rho (up, down):  4.127E-01 6.261E-02

     total cpu time spent up to now is      139.7 secs

     total energy              =   -1667.02791745 Ry
     estimated scf accuracy    <       0.28819616 Ry

     total magnetization       =     0.42 Bohr mag/cell
     absolute magnetization    =     1.11 Bohr mag/cell

     iteration # 16     ecut=    50.00 Ry     beta= 0.40
     Davidson diagonalization with overlap

---- Real-time Memory Report at c_bands before calling an iterative solver
           133 MiB given to the printing process from OS
            83 MiB allocation reported by mallinfo(arena+hblkhd)
        486659 MiB available memory on the node where the printing process lives
------------------
     ethr =  3.39E-04,  avg # of iterations =  4.4

     negative rho (up, down):  4.116E-01 8.997E-02

     total cpu time spent up to now is      148.8 secs

     total energy              =   -1667.04994157 Ry
     estimated scf accuracy    <       1.35738223 Ry

     total magnetization       =     0.31 Bohr mag/cell
     absolute magnetization    =     2.92 Bohr mag/cell

     iteration # 17     ecut=    50.00 Ry     beta= 0.40
     Davidson diagonalization with overlap

---- Real-time Memory Report at c_bands before calling an iterative solver
           134 MiB given to the printing process from OS
            83 MiB allocation reported by mallinfo(arena+hblkhd)
        486657 MiB available memory on the node where the printing process lives
------------------
     ethr =  3.39E-04,  avg # of iterations =  3.0

     negative rho (up, down):  4.259E-01 6.876E-02

     total cpu time spent up to now is      157.6 secs

     total energy              =   -1667.04068044 Ry
     estimated scf accuracy    <       2.22310591 Ry

     total magnetization       =     0.18 Bohr mag/cell
     absolute magnetization    =     2.03 Bohr mag/cell

     iteration # 18     ecut=    50.00 Ry     beta= 0.40
     Davidson diagonalization with overlap

---- Real-time Memory Report at c_bands before calling an iterative solver
           134 MiB given to the printing process from OS
            83 MiB allocation reported by mallinfo(arena+hblkhd)
        486652 MiB available memory on the node where the printing process lives
------------------
     ethr =  3.39E-04,  avg # of iterations =  1.5

     negative rho (up, down):  4.785E-01 3.857E-02

     total cpu time spent up to now is      165.9 secs

     total energy              =   -1666.99734154 Ry
     estimated scf accuracy    <       1.72664361 Ry

     total magnetization       =     0.15 Bohr mag/cell
     absolute magnetization    =     1.83 Bohr mag/cell

     iteration # 19     ecut=    50.00 Ry     beta= 0.40
     Davidson diagonalization with overlap

---- Real-time Memory Report at c_bands before calling an iterative solver
           134 MiB given to the printing process from OS
            83 MiB allocation reported by mallinfo(arena+hblkhd)
        486651 MiB available memory on the node where the printing process lives
------------------
     ethr =  3.39E-04,  avg # of iterations =  4.5

     negative rho (up, down):  4.833E-01 2.512E-02

     total cpu time spent up to now is      175.2 secs

     total energy              =   -1667.02682855 Ry
     estimated scf accuracy    <       0.11307947 Ry

     total magnetization       =     0.04 Bohr mag/cell
     absolute magnetization    =     0.60 Bohr mag/cell

     iteration # 20     ecut=    50.00 Ry     beta= 0.40
     Davidson diagonalization with overlap

---- Real-time Memory Report at c_bands before calling an iterative solver
           134 MiB given to the printing process from OS
            83 MiB allocation reported by mallinfo(arena+hblkhd)
        486649 MiB available memory on the node where the printing process lives
------------------
     ethr =  1.33E-04,  avg # of iterations =  3.9

     negative rho (up, down):  4.607E-01 3.426E-02

     total cpu time spent up to now is      184.6 secs

     total energy              =   -1667.01405191 Ry
     estimated scf accuracy    <       0.34723866 Ry

     total magnetization       =     0.09 Bohr mag/cell
     absolute magnetization    =     0.42 Bohr mag/cell

     iteration # 21     ecut=    50.00 Ry     beta= 0.40
     Davidson diagonalization with overlap

---- Real-time Memory Report at c_bands before calling an iterative solver
           134 MiB given to the printing process from OS
            83 MiB allocation reported by mallinfo(arena+hblkhd)
        486644 MiB available memory on the node where the printing process lives
------------------
     ethr =  1.33E-04,  avg # of iterations =  3.7

     negative rho (up, down):  4.973E-01 7.538E-03

     total cpu time spent up to now is      194.0 secs

     total energy              =   -1666.98405114 Ry
     estimated scf accuracy    <       1.14087907 Ry

     total magnetization       =     0.13 Bohr mag/cell
     absolute magnetization    =     1.87 Bohr mag/cell

     iteration # 22     ecut=    50.00 Ry     beta= 0.40
     Davidson diagonalization with overlap

---- Real-time Memory Report at c_bands before calling an iterative solver
           134 MiB given to the printing process from OS
            83 MiB allocation reported by mallinfo(arena+hblkhd)
        486641 MiB available memory on the node where the printing process lives
------------------
     ethr =  1.33E-04,  avg # of iterations =  3.3

     negative rho (up, down):  5.146E-01 8.109E-04

     total cpu time spent up to now is      203.7 secs

     total energy              =   -1667.05221297 Ry
     estimated scf accuracy    <       1.44318881 Ry

     total magnetization       =     0.08 Bohr mag/cell
     absolute magnetization    =     1.44 Bohr mag/cell

     iteration # 23     ecut=    50.00 Ry     beta= 0.40
     Davidson diagonalization with overlap

---- Real-time Memory Report at c_bands before calling an iterative solver
           134 MiB given to the printing process from OS
            83 MiB allocation reported by mallinfo(arena+hblkhd)
        486639 MiB available memory on the node where the printing process lives
------------------
     ethr =  1.33E-04,  avg # of iterations =  2.5

     negative rho (up, down):  4.933E-01 1.003E-02

     total cpu time spent up to now is      212.6 secs

     total energy              =   -1667.04066976 Ry
     estimated scf accuracy    <       2.33351419 Ry

     total magnetization       =     0.10 Bohr mag/cell
     absolute magnetization    =     1.94 Bohr mag/cell

     iteration # 24     ecut=    50.00 Ry     beta= 0.40
     Davidson diagonalization with overlap

---- Real-time Memory Report at c_bands before calling an iterative solver
           134 MiB given to the printing process from OS
            83 MiB allocation reported by mallinfo(arena+hblkhd)
        486637 MiB available memory on the node where the printing process lives
------------------
     ethr =  1.33E-04,  avg # of iterations =  2.5

     negative rho (up, down):  4.867E-01 1.913E-02

     total cpu time spent up to now is      221.3 secs

     total energy              =   -1667.03201615 Ry
     estimated scf accuracy    <       1.38564821 Ry

     total magnetization       =     0.12 Bohr mag/cell
     absolute magnetization    =     1.44 Bohr mag/cell

     iteration # 25     ecut=    50.00 Ry     beta= 0.40
     Davidson diagonalization with overlap

---- Real-time Memory Report at c_bands before calling an iterative solver
           134 MiB given to the printing process from OS
            83 MiB allocation reported by mallinfo(arena+hblkhd)
        486636 MiB available memory on the node where the printing process lives
------------------
     ethr =  1.33E-04,  avg # of iterations =  2.5

     negative rho (up, down):  4.851E-01 3.312E-02

     total cpu time spent up to now is      230.3 secs

     total energy              =   -1667.03387061 Ry
     estimated scf accuracy    <       0.78325694 Ry

     total magnetization       =     0.11 Bohr mag/cell
     absolute magnetization    =     0.95 Bohr mag/cell

     iteration # 26     ecut=    50.00 Ry     beta= 0.40
     Davidson diagonalization with overlap

---- Real-time Memory Report at c_bands before calling an iterative solver
           134 MiB given to the printing process from OS
            83 MiB allocation reported by mallinfo(arena+hblkhd)
        486632 MiB available memory on the node where the printing process lives
------------------
     ethr =  1.33E-04,  avg # of iterations =  1.5

     negative rho (up, down):  4.896E-01 5.813E-02

     total cpu time spent up to now is      238.7 secs

     total energy              =   -1667.03948559 Ry
     estimated scf accuracy    <       0.72191017 Ry

     total magnetization       =     0.08 Bohr mag/cell
     absolute magnetization    =     0.93 Bohr mag/cell

     iteration # 27     ecut=    50.00 Ry     beta= 0.40
     Davidson diagonalization with overlap

---- Real-time Memory Report at c_bands before calling an iterative solver
           134 MiB given to the printing process from OS
            83 MiB allocation reported by mallinfo(arena+hblkhd)
        486631 MiB available memory on the node where the printing process lives
------------------
     ethr =  1.33E-04,  avg # of iterations =  5.0

     negative rho (up, down):  4.588E-01 8.154E-02

     total cpu time spent up to now is      247.8 secs

     total energy              =   -1667.01058798 Ry
     estimated scf accuracy    <       2.47413695 Ry

     total magnetization       =     0.00 Bohr mag/cell
     absolute magnetization    =     0.77 Bohr mag/cell

     iteration # 28     ecut=    50.00 Ry     beta= 0.40
     Davidson diagonalization with overlap

---- Real-time Memory Report at c_bands before calling an iterative solver
           134 MiB given to the printing process from OS
            83 MiB allocation reported by mallinfo(arena+hblkhd)
        486629 MiB available memory on the node where the printing process lives
------------------
     ethr =  1.33E-04,  avg # of iterations =  4.5

     negative rho (up, down):  4.483E-01 1.359E-01

     total cpu time spent up to now is      257.0 secs

     total energy              =   -1667.00931298 Ry
     estimated scf accuracy    <       0.23866118 Ry

     total magnetization       =     0.07 Bohr mag/cell
     absolute magnetization    =     0.15 Bohr mag/cell

     iteration # 29     ecut=    50.00 Ry     beta= 0.40
     Davidson diagonalization with overlap

---- Real-time Memory Report at c_bands before calling an iterative solver
           134 MiB given to the printing process from OS
            83 MiB allocation reported by mallinfo(arena+hblkhd)
        486639 MiB available memory on the node where the printing process lives
------------------
     ethr =  1.33E-04,  avg # of iterations =  4.8

     negative rho (up, down):  4.493E-01 1.354E-01

     total cpu time spent up to now is      266.7 secs

     total energy              =   -1667.05206205 Ry
     estimated scf accuracy    <       1.95130144 Ry

     total magnetization       =     0.04 Bohr mag/cell
     absolute magnetization    =     3.25 Bohr mag/cell

     iteration # 30     ecut=    50.00 Ry     beta= 0.40
     Davidson diagonalization with overlap

---- Real-time Memory Report at c_bands before calling an iterative solver
           134 MiB given to the printing process from OS
            83 MiB allocation reported by mallinfo(arena+hblkhd)
        486638 MiB available memory on the node where the printing process lives
------------------
     ethr =  1.33E-04,  avg # of iterations =  1.0

     negative rho (up, down):  4.512E-01 1.353E-01

     total cpu time spent up to now is      274.6 secs

     total energy              =   -1667.05261516 Ry
     estimated scf accuracy    <       1.81838181 Ry

     total magnetization       =     0.06 Bohr mag/cell
     absolute magnetization    =     3.17 Bohr mag/cell

     iteration # 31     ecut=    50.00 Ry     beta= 0.40
     Davidson diagonalization with overlap

---- Real-time Memory Report at c_bands before calling an iterative solver
           134 MiB given to the printing process from OS
            83 MiB allocation reported by mallinfo(arena+hblkhd)
        486637 MiB available memory on the node where the printing process lives
------------------
     ethr =  1.33E-04,  avg # of iterations =  1.0

     negative rho (up, down):  4.447E-01 9.958E-02

     total cpu time spent up to now is      282.5 secs

     total energy              =   -1667.03062884 Ry
     estimated scf accuracy    <       1.80340462 Ry

     total magnetization       =     0.05 Bohr mag/cell
     absolute magnetization    =     3.15 Bohr mag/cell

     iteration # 32     ecut=    50.00 Ry     beta= 0.40
     Davidson diagonalization with overlap

---- Real-time Memory Report at c_bands before calling an iterative solver
           134 MiB given to the printing process from OS
            83 MiB allocation reported by mallinfo(arena+hblkhd)
        486633 MiB available memory on the node where the printing process lives
------------------
     ethr =  1.33E-04,  avg # of iterations =  4.5

     negative rho (up, down):  4.427E-01 1.155E-01

     total cpu time spent up to now is      291.5 secs

     total energy              =   -1667.04895335 Ry
     estimated scf accuracy    <       0.91379386 Ry

     total magnetization       =     0.10 Bohr mag/cell
     absolute magnetization    =     1.83 Bohr mag/cell

     iteration # 33     ecut=    50.00 Ry     beta= 0.40
     Davidson diagonalization with overlap

---- Real-time Memory Report at c_bands before calling an iterative solver
           134 MiB given to the printing process from OS
            83 MiB allocation reported by mallinfo(arena+hblkhd)
        486632 MiB available memory on the node where the printing process lives
------------------
     ethr =  1.33E-04,  avg # of iterations =  3.1

     negative rho (up, down):  4.418E-01 1.234E-01

     total cpu time spent up to now is      300.5 secs

     total energy              =   -1667.07340396 Ry
     estimated scf accuracy    <       1.93212143 Ry

     total magnetization       =     0.09 Bohr mag/cell
     absolute magnetization    =     2.70 Bohr mag/cell

     iteration # 34     ecut=    50.00 Ry     beta= 0.40
     Davidson diagonalization with overlap

---- Real-time Memory Report at c_bands before calling an iterative solver
           134 MiB given to the printing process from OS
            83 MiB allocation reported by mallinfo(arena+hblkhd)
        486632 MiB available memory on the node where the printing process lives
------------------
     ethr =  1.33E-04,  avg # of iterations =  2.7

     negative rho (up, down):  4.494E-01 1.086E-01

     total cpu time spent up to now is      309.4 secs

     total energy              =   -1667.01873621 Ry
     estimated scf accuracy    <       3.71724682 Ry

     total magnetization       =     0.10 Bohr mag/cell
     absolute magnetization    =     3.61 Bohr mag/cell

     iteration # 35     ecut=    50.00 Ry     beta= 0.40
     Davidson diagonalization with overlap

---- Real-time Memory Report at c_bands before calling an iterative solver
           134 MiB given to the printing process from OS
            83 MiB allocation reported by mallinfo(arena+hblkhd)
        486631 MiB available memory on the node where the printing process lives
------------------
     ethr =  1.33E-04,  avg # of iterations =  3.4

     negative rho (up, down):  4.566E-01 8.623E-02

     total cpu time spent up to now is      318.6 secs

     total energy              =   -1667.00797874 Ry
     estimated scf accuracy    <       0.67728839 Ry

     total magnetization       =     0.06 Bohr mag/cell
     absolute magnetization    =     2.08 Bohr mag/cell

     iteration # 36     ecut=    50.00 Ry     beta= 0.40
     Davidson diagonalization with overlap

---- Real-time Memory Report at c_bands before calling an iterative solver
           134 MiB given to the printing process from OS
            83 MiB allocation reported by mallinfo(arena+hblkhd)
        486631 MiB available memory on the node where the printing process lives
------------------
     ethr =  1.33E-04,  avg # of iterations =  3.1

     negative rho (up, down):  4.468E-01 9.482E-02

     total cpu time spent up to now is      327.7 secs

     total energy              =   -1667.02076720 Ry
     estimated scf accuracy    <       0.10775079 Ry

     total magnetization       =     0.03 Bohr mag/cell
     absolute magnetization    =     0.48 Bohr mag/cell

     iteration # 37     ecut=    50.00 Ry     beta= 0.40
     Davidson diagonalization with overlap

---- Real-time Memory Report at c_bands before calling an iterative solver
           134 MiB given to the printing process from OS
            83 MiB allocation reported by mallinfo(arena+hblkhd)
        486628 MiB available memory on the node where the printing process lives
------------------
     ethr =  1.27E-04,  avg # of iterations =  3.0

     negative rho (up, down):  4.498E-01 9.222E-02

     total cpu time spent up to now is      336.9 secs

     total energy              =   -1667.02464910 Ry
     estimated scf accuracy    <       0.09763854 Ry

     total magnetization       =     0.04 Bohr mag/cell
     absolute magnetization    =     1.35 Bohr mag/cell

     iteration # 38     ecut=    50.00 Ry     beta= 0.40
     Davidson diagonalization with overlap

---- Real-time Memory Report at c_bands before calling an iterative solver
           134 MiB given to the printing process from OS
            83 MiB allocation reported by mallinfo(arena+hblkhd)
        486626 MiB available memory on the node where the printing process lives
------------------
     ethr =  1.15E-04,  avg # of iterations =  1.5

     negative rho (up, down):  4.527E-01 9.054E-02

     total cpu time spent up to now is      345.2 secs

     total energy              =   -1667.02359609 Ry
     estimated scf accuracy    <       0.05163220 Ry

     total magnetization       =     0.04 Bohr mag/cell
     absolute magnetization    =     1.26 Bohr mag/cell

     iteration # 39     ecut=    50.00 Ry     beta= 0.40
     Davidson diagonalization with overlap

---- Real-time Memory Report at c_bands before calling an iterative solver
           134 MiB given to the printing process from OS
            83 MiB allocation reported by mallinfo(arena+hblkhd)
        486623 MiB available memory on the node where the printing process lives
------------------
     ethr =  6.07E-05,  avg # of iterations =  3.2

     negative rho (up, down):  4.501E-01 9.151E-02

     total cpu time spent up to now is      354.2 secs

     total energy              =   -1667.02437935 Ry
     estimated scf accuracy    <       0.02075276 Ry

     total magnetization       =     0.02 Bohr mag/cell
     absolute magnetization    =     0.88 Bohr mag/cell

     iteration # 40     ecut=    50.00 Ry     beta= 0.40
     Davidson diagonalization with overlap

---- Real-time Memory Report at c_bands before calling an iterative solver
           134 MiB given to the printing process from OS
            83 MiB allocation reported by mallinfo(arena+hblkhd)
        486621 MiB available memory on the node where the printing process lives
------------------
     ethr =  2.44E-05,  avg # of iterations =  3.6

     negative rho (up, down):  4.501E-01 9.090E-02

     total cpu time spent up to now is      363.9 secs

     total energy              =   -1667.02496227 Ry
     estimated scf accuracy    <       0.01954161 Ry

     total magnetization       =     0.04 Bohr mag/cell
     absolute magnetization    =     1.15 Bohr mag/cell

     iteration # 41     ecut=    50.00 Ry     beta= 0.40
     Davidson diagonalization with overlap

---- Real-time Memory Report at c_bands before calling an iterative solver
           134 MiB given to the printing process from OS
            83 MiB allocation reported by mallinfo(arena+hblkhd)
        486621 MiB available memory on the node where the printing process lives
------------------
     ethr =  2.30E-05,  avg # of iterations =  1.3

     negative rho (up, down):  4.504E-01 9.105E-02

     total cpu time spent up to now is      372.1 secs

     total energy              =   -1667.02493905 Ry
     estimated scf accuracy    <       0.01747670 Ry

     total magnetization       =     0.04 Bohr mag/cell
     absolute magnetization    =     1.12 Bohr mag/cell

     iteration # 42     ecut=    50.00 Ry     beta= 0.40
     Davidson diagonalization with overlap

---- Real-time Memory Report at c_bands before calling an iterative solver
           134 MiB given to the printing process from OS
            83 MiB allocation reported by mallinfo(arena+hblkhd)
        486618 MiB available memory on the node where the printing process lives
------------------
     ethr =  2.06E-05,  avg # of iterations =  1.0

     negative rho (up, down):  4.513E-01 9.298E-02

     total cpu time spent up to now is      380.0 secs

     total energy              =   -1667.02488252 Ry
     estimated scf accuracy    <       0.01560525 Ry

     total magnetization       =     0.04 Bohr mag/cell
[...]
            83 MiB allocation reported by mallinfo(arena+hblkhd)
        486617 MiB available memory on the node where the printing process lives
------------------
     ethr =  1.21E-06,  avg # of iterations =  4.0

     negative rho (up, down):  4.539E-01 8.446E-02

     total cpu time spent up to now is      715.9 secs

     total energy              =   -1667.02352462 Ry
     estimated scf accuracy    <       0.03819996 Ry

     total magnetization       =     0.00 Bohr mag/cell
     absolute magnetization    =     0.91 Bohr mag/cell

     iteration # 81     ecut=    50.00 Ry     beta= 0.40
     Davidson diagonalization with overlap

---- Real-time Memory Report at c_bands before calling an iterative solver
           135 MiB given to the printing process from OS
            83 MiB allocation reported by mallinfo(arena+hblkhd)
        486617 MiB available memory on the node where the printing process lives
------------------
     ethr =  1.21E-06,  avg # of iterations =  5.3

     negative rho (up, down):  4.534E-01 8.377E-02

     total cpu time spent up to now is      725.4 secs

     total energy              =   -1667.02387621 Ry
     estimated scf accuracy    <       0.00286352 Ry

     total magnetization       =    -0.00 Bohr mag/cell
     absolute magnetization    =     0.76 Bohr mag/cell

     iteration # 82     ecut=    50.00 Ry     beta= 0.40
     Davidson diagonalization with overlap

---- Real-time Memory Report at c_bands before calling an iterative solver
           135 MiB given to the printing process from OS
            83 MiB allocation reported by mallinfo(arena+hblkhd)
        486618 MiB available memory on the node where the printing process lives
------------------
     ethr =  1.21E-06,  avg # of iterations =  4.5

     negative rho (up, down):  4.542E-01 8.002E-02

     total cpu time spent up to now is      734.7 secs

     total energy              =   -1667.02427367 Ry
     estimated scf accuracy    <       0.00657307 Ry

     total magnetization       =     0.00 Bohr mag/cell
     absolute magnetization    =     0.92 Bohr mag/cell

     iteration # 83     ecut=    50.00 Ry     beta= 0.40
     Davidson diagonalization with overlap

---- Real-time Memory Report at c_bands before calling an iterative solver
           135 MiB given to the printing process from OS
            83 MiB allocation reported by mallinfo(arena+hblkhd)
        486617 MiB available memory on the node where the printing process lives
------------------
     ethr =  1.21E-06,  avg # of iterations =  4.2

     negative rho (up, down):  4.541E-01 8.226E-02

     total cpu time spent up to now is      743.9 secs

     total energy              =   -1667.02421003 Ry
     estimated scf accuracy    <       0.00174720 Ry

     total magnetization       =     0.00 Bohr mag/cell
     absolute magnetization    =     0.84 Bohr mag/cell

     iteration # 84     ecut=    50.00 Ry     beta= 0.40
     Davidson diagonalization with overlap

---- Real-time Memory Report at c_bands before calling an iterative solver
           135 MiB given to the printing process from OS
            83 MiB allocation reported by mallinfo(arena+hblkhd)
        486617 MiB available memory on the node where the printing process lives
------------------
     ethr =  1.21E-06,  avg # of iterations =  3.8

     negative rho (up, down):  4.534E-01 8.351E-02

     total cpu time spent up to now is      753.7 secs

     total energy              =   -1667.02400564 Ry
     estimated scf accuracy    <       0.04543481 Ry

     total magnetization       =     0.00 Bohr mag/cell
     absolute magnetization    =     1.15 Bohr mag/cell

     iteration # 85     ecut=    50.00 Ry     beta= 0.40
     Davidson diagonalization with overlap

---- Real-time Memory Report at c_bands before calling an iterative solver
           135 MiB given to the printing process from OS
            83 MiB allocation reported by mallinfo(arena+hblkhd)
        486615 MiB available memory on the node where the printing process lives
------------------
     ethr =  1.21E-06,  avg # of iterations =  3.4

     negative rho (up, down):  4.571E-01 8.201E-02

     total cpu time spent up to now is      762.8 secs

     total energy              =   -1667.02306037 Ry
     estimated scf accuracy    <       0.01235919 Ry

     total magnetization       =     0.00 Bohr mag/cell
     absolute magnetization    =     0.98 Bohr mag/cell

     iteration # 86     ecut=    50.00 Ry     beta= 0.40
     Davidson diagonalization with overlap

---- Real-time Memory Report at c_bands before calling an iterative solver
           135 MiB given to the printing process from OS
            83 MiB allocation reported by mallinfo(arena+hblkhd)
        486615 MiB available memory on the node where the printing process lives
------------------
     ethr =  1.21E-06,  avg # of iterations =  4.0

     negative rho (up, down):  4.540E-01 8.176E-02

     total cpu time spent up to now is      773.5 secs

     total energy              =   -1667.02194838 Ry
     estimated scf accuracy    <       0.08683333 Ry

     total magnetization       =    -0.01 Bohr mag/cell
     absolute magnetization    =     0.43 Bohr mag/cell

     iteration # 87     ecut=    50.00 Ry     beta= 0.40
     Davidson diagonalization with overlap

---- Real-time Memory Report at c_bands before calling an iterative solver
           135 MiB given to the printing process from OS
            83 MiB allocation reported by mallinfo(arena+hblkhd)
        486616 MiB available memory on the node where the printing process lives
------------------
     ethr =  1.21E-06,  avg # of iterations =  3.6

     negative rho (up, down):  4.532E-01 8.027E-02

     total cpu time spent up to now is      784.4 secs

     total energy              =   -1667.02416761 Ry
     estimated scf accuracy    <       0.02410752 Ry

     total magnetization       =     0.00 Bohr mag/cell
     absolute magnetization    =     1.06 Bohr mag/cell

     iteration # 88     ecut=    50.00 Ry     beta= 0.40
     Davidson diagonalization with overlap

---- Real-time Memory Report at c_bands before calling an iterative solver
           135 MiB given to the printing process from OS
            83 MiB allocation reported by mallinfo(arena+hblkhd)
        486632 MiB available memory on the node where the printing process lives
------------------
     ethr =  1.21E-06,  avg # of iterations =  3.0

     negative rho (up, down):  4.531E-01 8.103E-02

     total cpu time spent up to now is      793.5 secs

     total energy              =   -1667.02420675 Ry
     estimated scf accuracy    <       0.00605025 Ry

     total magnetization       =     0.01 Bohr mag/cell
     absolute magnetization    =     0.95 Bohr mag/cell

     iteration # 89     ecut=    50.00 Ry     beta= 0.40
     Davidson diagonalization with overlap

---- Real-time Memory Report at c_bands before calling an iterative solver
           135 MiB given to the printing process from OS
            83 MiB allocation reported by mallinfo(arena+hblkhd)
        486635 MiB available memory on the node where the printing process lives
------------------
     ethr =  1.21E-06,  avg # of iterations =  2.5

     negative rho (up, down):  4.522E-01 8.045E-02

     total cpu time spent up to now is      802.2 secs

     total energy              =   -1667.02429643 Ry
     estimated scf accuracy    <       0.00186104 Ry

     total magnetization       =     0.01 Bohr mag/cell
     absolute magnetization    =     0.90 Bohr mag/cell

     iteration # 90     ecut=    50.00 Ry     beta= 0.40
     Davidson diagonalization with overlap

---- Real-time Memory Report at c_bands before calling an iterative solver
           135 MiB given to the printing process from OS
            83 MiB allocation reported by mallinfo(arena+hblkhd)
        486635 MiB available memory on the node where the printing process lives
------------------
     ethr =  1.21E-06,  avg # of iterations =  3.0

     negative rho (up, down):  4.511E-01 8.169E-02

     total cpu time spent up to now is      811.3 secs

     total energy              =   -1667.02449638 Ry
     estimated scf accuracy    <       0.00931462 Ry

     total magnetization       =     0.01 Bohr mag/cell
     absolute magnetization    =     0.98 Bohr mag/cell

     iteration # 91     ecut=    50.00 Ry     beta= 0.40
     Davidson diagonalization with overlap

---- Real-time Memory Report at c_bands before calling an iterative solver
           135 MiB given to the printing process from OS
            83 MiB allocation reported by mallinfo(arena+hblkhd)
        486634 MiB available memory on the node where the printing process lives
------------------
     ethr =  1.21E-06,  avg # of iterations =  2.5

     negative rho (up, down):  4.506E-01 8.173E-02

     total cpu time spent up to now is      820.0 secs

     total energy              =   -1667.02456690 Ry
     estimated scf accuracy    <       0.01479995 Ry

     total magnetization       =     0.01 Bohr mag/cell
     absolute magnetization    =     1.02 Bohr mag/cell

     iteration # 92     ecut=    50.00 Ry     beta= 0.40
     Davidson diagonalization with overlap

---- Real-time Memory Report at c_bands before calling an iterative solver
           135 MiB given to the printing process from OS
            83 MiB allocation reported by mallinfo(arena+hblkhd)
        486634 MiB available memory on the node where the printing process lives
------------------
     ethr =  1.21E-06,  avg # of iterations =  2.5

     negative rho (up, down):  4.501E-01 8.396E-02

     total cpu time spent up to now is      828.8 secs

     total energy              =   -1667.02505564 Ry
     estimated scf accuracy    <       0.02153677 Ry

     total magnetization       =     0.01 Bohr mag/cell
     absolute magnetization    =     1.05 Bohr mag/cell

     iteration # 93     ecut=    50.00 Ry     beta= 0.40
     Davidson diagonalization with overlap

---- Real-time Memory Report at c_bands before calling an iterative solver
           135 MiB given to the printing process from OS
            83 MiB allocation reported by mallinfo(arena+hblkhd)
        486631 MiB available memory on the node where the printing process lives
------------------
     ethr =  1.21E-06,  avg # of iterations =  3.0

     negative rho (up, down):  4.507E-01 8.206E-02

     total cpu time spent up to now is      837.8 secs

     total energy              =   -1667.02461390 Ry
     estimated scf accuracy    <       0.04966323 Ry

     total magnetization       =     0.01 Bohr mag/cell
     absolute magnetization    =     1.15 Bohr mag/cell

     iteration # 94     ecut=    50.00 Ry     beta= 0.40
     Davidson diagonalization with overlap

---- Real-time Memory Report at c_bands before calling an iterative solver
           135 MiB given to the printing process from OS
            83 MiB allocation reported by mallinfo(arena+hblkhd)
        486630 MiB available memory on the node where the printing process lives
------------------
     ethr =  1.21E-06,  avg # of iterations =  3.0

     negative rho (up, down):  4.505E-01 8.365E-02

     total cpu time spent up to now is      846.9 secs

     total energy              =   -1667.02499027 Ry
     estimated scf accuracy    <       0.02422306 Ry

     total magnetization       =     0.01 Bohr mag/cell
     absolute magnetization    =     1.06 Bohr mag/cell

     iteration # 95     ecut=    50.00 Ry     beta= 0.40
     Davidson diagonalization with overlap

---- Real-time Memory Report at c_bands before calling an iterative solver
           135 MiB given to the printing process from OS
            83 MiB allocation reported by mallinfo(arena+hblkhd)
        486630 MiB available memory on the node where the printing process lives
------------------
     ethr =  1.21E-06,  avg # of iterations =  3.0

     negative rho (up, down):  4.489E-01 8.674E-02

     total cpu time spent up to now is      855.9 secs

     total energy              =   -1667.02467567 Ry
     estimated scf accuracy    <       0.04298236 Ry

     total magnetization       =     0.01 Bohr mag/cell
     absolute magnetization    =     1.13 Bohr mag/cell

     iteration # 96     ecut=    50.00 Ry     beta= 0.40
     Davidson diagonalization with overlap

---- Real-time Memory Report at c_bands before calling an iterative solver
           135 MiB given to the printing process from OS
            83 MiB allocation reported by mallinfo(arena+hblkhd)
        486629 MiB available memory on the node where the printing process lives
------------------
     ethr =  1.21E-06,  avg # of iterations =  1.5

     negative rho (up, down):  4.503E-01 8.490E-02

     total cpu time spent up to now is      864.3 secs

     total energy              =   -1667.02448169 Ry
     estimated scf accuracy    <       0.03848049 Ry

     total magnetization       =     0.01 Bohr mag/cell
     absolute magnetization    =     1.12 Bohr mag/cell

     iteration # 97     ecut=    50.00 Ry     beta= 0.40
     Davidson diagonalization with overlap

---- Real-time Memory Report at c_bands before calling an iterative solver
           135 MiB given to the printing process from OS
            83 MiB allocation reported by mallinfo(arena+hblkhd)
        486629 MiB available memory on the node where the printing process lives
------------------
     ethr =  1.21E-06,  avg # of iterations =  2.7

     negative rho (up, down):  4.514E-01 7.810E-02

     total cpu time spent up to now is      873.2 secs

     total energy              =   -1667.02434204 Ry
     estimated scf accuracy    <       0.02878160 Ry

     total magnetization       =     0.01 Bohr mag/cell
     absolute magnetization    =     1.06 Bohr mag/cell

     iteration # 98     ecut=    50.00 Ry     beta= 0.40
     Davidson diagonalization with overlap

---- Real-time Memory Report at c_bands before calling an iterative solver
           135 MiB given to the printing process from OS
            83 MiB allocation reported by mallinfo(arena+hblkhd)
        486628 MiB available memory on the node where the printing process lives
------------------
     ethr =  1.21E-06,  avg # of iterations =  4.4

     negative rho (up, down):  4.525E-01 7.309E-02

     total cpu time spent up to now is      882.3 secs

     total energy              =   -1667.02436591 Ry
     estimated scf accuracy    <       0.01080899 Ry

     total magnetization       =     0.01 Bohr mag/cell
     absolute magnetization    =     1.01 Bohr mag/cell

     iteration # 99     ecut=    50.00 Ry     beta= 0.40
     Davidson diagonalization with overlap

---- Real-time Memory Report at c_bands before calling an iterative solver
           135 MiB given to the printing process from OS
            83 MiB allocation reported by mallinfo(arena+hblkhd)
        486627 MiB available memory on the node where the printing process lives
------------------
     ethr =  1.21E-06,  avg # of iterations =  2.0

     negative rho (up, down):  4.536E-01 7.124E-02

     total cpu time spent up to now is      890.6 secs

     total energy              =   -1667.02441916 Ry
     estimated scf accuracy    <       0.01153106 Ry

     total magnetization       =     0.01 Bohr mag/cell
     absolute magnetization    =     1.03 Bohr mag/cell

     iteration #100     ecut=    50.00 Ry     beta= 0.40
     Davidson diagonalization with overlap

---- Real-time Memory Report at c_bands before calling an iterative solver
           135 MiB given to the printing process from OS
            83 MiB allocation reported by mallinfo(arena+hblkhd)
        486626 MiB available memory on the node where the printing process lives
------------------
     ethr =  1.21E-06,  avg # of iterations =  2.5

     negative rho (up, down):  4.583E-01 6.207E-02

     total cpu time spent up to now is      899.4 secs

     total energy              =   -1667.02435934 Ry
     estimated scf accuracy    <       0.01677387 Ry

     total magnetization       =     0.01 Bohr mag/cell
     absolute magnetization    =     1.07 Bohr mag/cell

     End of self-consistent calculation

     convergence NOT achieved after 100 iterations: stopping

     Writing config to output data dir ./out/aiida.save/ :
     XML data file, charge density

     init_run     :      4.27s CPU      4.60s WALL (       1 calls)
     electrons    :    828.52s CPU    894.20s WALL (       1 calls)

     Called by init_run:
     wfcinit      :      3.12s CPU      3.40s WALL (       1 calls)
     wfcinit:atom :      0.03s CPU      0.03s WALL (      66 calls)
     wfcinit:wfcr :      2.91s CPU      3.19s WALL (      66 calls)
     potinit      :      0.66s CPU      0.69s WALL (       1 calls)
     hinit0       :      0.26s CPU      0.28s WALL (       1 calls)

     Called by electrons:
     c_bands      :    678.85s CPU    729.71s WALL (     100 calls)
     sum_band     :    126.16s CPU    137.39s WALL (     100 calls)
     v_of_rho     :      8.75s CPU      9.74s WALL (     101 calls)
     v_h          :      0.28s CPU      0.39s WALL (     101 calls)
     v_xc         :      8.47s CPU      9.36s WALL (     101 calls)
     newd         :      2.03s CPU      2.24s WALL (     101 calls)
     PAW_pot      :     10.44s CPU     12.58s WALL (     101 calls)
     mix_rho      :      0.95s CPU      0.99s WALL (     100 calls)

     Called by c_bands:
     init_us_2    :      6.07s CPU      6.24s WALL (   13266 calls)
     init_us_2:cp :      6.01s CPU      6.20s WALL (   13266 calls)
     cegterg      :    636.43s CPU    683.67s WALL (    6600 calls)

     Called by sum_band:
     sum_band:wei :      0.39s CPU      0.40s WALL (     100 calls)
     sum_band:loo :    117.50s CPU    128.53s WALL (     100 calls)
     sum_band:buf :      0.96s CPU      0.99s WALL (    6600 calls)
     sum_band:ini :      2.59s CPU      2.65s WALL (    6600 calls)
     sum_band:cal :      9.32s CPU      9.60s WALL (    6600 calls)
     sum_band:bec :      0.28s CPU      0.29s WALL (    6600 calls)
     addusdens    :      2.87s CPU      2.91s WALL (     100 calls)
                                        0.00s GPU  (     100 calls)
     addusd:skk   :      0.01s CPU      0.01s WALL (     300 calls)
                                        0.00s GPU  (     300 calls)

     Called by *egterg:
     cdiaghg      :     78.16s CPU     79.05s WALL (   30763 calls)
     cegterg:over :     20.40s CPU     20.72s WALL (   24163 calls)
     cegterg:upda :     12.06s CPU     12.38s WALL (   24163 calls)
     cegterg:last :     23.43s CPU     24.18s WALL (   12223 calls)
     h_psi        :    474.12s CPU    518.57s WALL (   30829 calls)
     s_psi        :     17.44s CPU     17.64s WALL (   30829 calls)
     g_psi        :      0.79s CPU      0.81s WALL (   24163 calls)

     Called by h_psi:
     h_psi:calbec :     26.93s CPU     27.64s WALL (   30829 calls)
     vloc_psi     :    424.42s CPU    467.75s WALL (   30829 calls)
     add_vuspsi   :     19.91s CPU     20.18s WALL (   30829 calls)

     General routines
     calbec       :     36.14s CPU     37.10s WALL (   37429 calls)
     fft          :      3.38s CPU      3.89s WALL (    2523 calls)
     ffts         :      0.69s CPU      0.70s WALL (     402 calls)
     fftw         :    441.13s CPU    489.40s WALL ( 1780736 calls)
     interpolate  :      0.89s CPU      0.94s WALL (     202 calls)
     davcio       :      0.00s CPU      0.14s WALL (      84 calls)

     Parallel routines

     PAW routines
     PAW_pot      :     10.44s CPU     12.58s WALL (     101 calls)
     PAW_symme    :      0.04s CPU      0.04s WALL (     201 calls)

     PWSCF        :  13m53.54s CPU  15m 1.46s WALL


   This run was terminated on:  22:37:13  19Dec2023            

=------------------------------------------------------------------------------=
   JOB DONE.
=------------------------------------------------------------------------------=
