
     Program PWSCF v.7.2 starts on 23Oct2023 at 21:38:12 

     This program is part of the open-source Quantum ESPRESSO suite
     for quantum simulation of materials; please cite
         "P. Giannozzi et al., J. Phys.:Condens. Matter 21 395502 (2009);
         "P. Giannozzi et al., J. Phys.:Condens. Matter 29 465901 (2017);
         "P. Giannozzi et al., J. Chem. Phys. 152 154105 (2020);
          URL http://www.quantum-espresso.org", 
     in publications or presentations arising from this work. More details at
     http://www.quantum-espresso.org/quote

     Parallel version (MPI & OpenMP), running on      12 processor cores
     Number of MPI processes:                 1
     Threads/MPI process:                    12

     MPI processes distributed on     1 nodes
     60305 MiB available memory on the printing compute node when the environment starts
 
     Reading input from aiida.in

     Current dimensions of program PWSCF are:
     Max number of different atomic species (ntypx) = 10
     Max number of k-points (npk) =  40000
     Max angular momentum in pseudopotentials (lmaxx) =  4
     file O.pbesol-n-kjpaw_psl.0.1.UPF: wavefunction(s)  2P renormalized
     Message from routine setup:
     using ibrav=0 with symmetry is DISCOURAGED, use correct ibrav instead
 
     Subspace diagonalization in iterative solution of the eigenvalue problem:
     a serial algorithm will be used

 
     G-vector sticks info
     --------------------
     sticks:   dense  smooth     PW     G-vecs:    dense   smooth      PW
     Sum        4111    2047    599               182885    64583   10129
 
     Using Slab Decomposition
 


     bravais-lattice index     =            0
     lattice parameter (alat)  =      11.7390  a.u.
     unit-cell volume          =    1353.3476 (a.u.)^3
     number of atoms/cell      =            9
     number of atomic types    =            3
     number of electrons       =        68.00
     number of Kohn-Sham states=           41
     kinetic-energy cutoff     =      50.0000  Ry
     charge density cutoff     =     400.0000  Ry
     scf convergence threshold =      1.8E-09
     mixing beta               =       0.4000
     number of iterations used =            8  plain     mixing
     Exchange-correlation= SLA  PW   PSX  PSC
                           (   1   4  10   8   0   0   0)

     GPU acceleration is ACTIVE.


     GPU used by master process:

        Device Number: 0
        Device name: Tesla P100-PCIE-16GB
        Compute capability : 60
        Ratio of single to double precision performance  : 2
        Memory Clock Rate (KHz): 715000
        Memory Bus Width (bits): 4096
        Peak Memory Bandwidth (GB/s): 732.16

     celldm(1)=  11.738964  celldm(2)=   0.000000  celldm(3)=   0.000000
     celldm(4)=   0.000000  celldm(5)=   0.000000  celldm(6)=   0.000000

     crystal axes: (cart. coord. in units of alat)
               a(1) = (   0.823407   0.567451   0.000000 )  
               a(2) = (  -0.823407   0.567451   0.000000 )  
               a(3) = (  -0.563118   0.000000   0.895256 )  

     reciprocal axes: (cart. coord. in units 2 pi/alat)
               b(1) = (  0.607233  0.881134  0.381951 )  
               b(2) = ( -0.607233  0.881134 -0.381951 )  
               b(3) = (  0.000000 -0.000000  1.116999 )  


     PseudoPot. # 1 for Cl read from file:
     ./pseudo/cl_pbesol_v1.4.uspp.F.UPF
     MD5 check sum: ed6bbcf06f19043c0df9f6394706ff8f
     Pseudo is Ultrasoft + core correction, Zval =  7.0
     Generated by new atomic code, or converted to UPF format
     Using radial grid of  909 points,  6 beta functions with: 
                l(1) =   0
                l(2) =   0
                l(3) =   1
                l(4) =   1
                l(5) =   2
                l(6) =   2
     Q(r) pseudized with  8 coefficients,  rinner =    1.300   1.300   1.300
                                                       1.300   1.300

     PseudoPot. # 2 for Ni read from file:
     ./pseudo/ni_pbesol_v1.4.uspp.F.UPF
     MD5 check sum: de937c0c8ae4b350e69c02b76d8a83cb
     Pseudo is Ultrasoft + core correction, Zval = 18.0
     Generated by new atomic code, or converted to UPF format
     Using radial grid of  865 points,  6 beta functions with: 
                l(1) =   0
                l(2) =   0
                l(3) =   1
                l(4) =   1
                l(5) =   2
                l(6) =   2
     Q(r) pseudized with 10 coefficients,  rinner =    0.980   0.980   0.980
                                                       0.980   0.980

     PseudoPot. # 3 for O  read from file:
     ./pseudo/O.pbesol-n-kjpaw_psl.0.1.UPF
     MD5 check sum: 81d73d1479e654e5638b0319f0d6c2c7
     Pseudo is Projector augmented-wave + core cor, Zval =  6.0
     Generated using "atomic" code by A. Dal Corso  v.6.0 svn rev. 13079
     Shape of augmentation charge: BESSEL
     Using radial grid of 1095 points,  4 beta functions with: 
                l(1) =   0
                l(2) =   0
                l(3) =   1
                l(4) =   1
     Q(r) pseudized with 0 coefficients 


     atomic species   valence    mass     pseudopotential
        Cl             7.00    35.45300     Cl( 1.00)
        Ni            18.00    58.69340     Ni( 1.00)
        O              6.00    15.99940     O ( 1.00)

     Starting magnetic structure 
     atomic species   magnetization
        Cl           0.100
        Ni           0.278
        O            0.100

      4 Sym. Ops., with inversion, found


                                    s                        frac. trans.

      isym =  1     identity                                     

 cryst.   s( 1) = (     1          0          0      )
                  (     0          1          0      )
                  (     0          0          1      )

 cart.    s( 1) = (  1.0000000  0.0000000  0.0000000 )
                  ( -0.0000000  1.0000000  0.0000000 )
                  (  0.0000000  0.0000000  1.0000000 )


      isym =  2     180 deg rotation - cart. axis [0,1,0]        

 cryst.   s( 2) = (     0          1          0      )
                  (     1          0          0      )
                  (     0          0         -1      )

 cart.    s( 2) = ( -1.0000000  0.0000000 -0.0000000 )
                  (  0.0000000  1.0000000 -0.0000000 )
                  (  0.0000000  0.0000000 -1.0000000 )


      isym =  3     inversion                                    

 cryst.   s( 3) = (    -1          0          0      )
                  (     0         -1          0      )
                  (     0          0         -1      )

 cart.    s( 3) = ( -1.0000000 -0.0000000 -0.0000000 )
                  (  0.0000000 -1.0000000 -0.0000000 )
                  (  0.0000000  0.0000000 -1.0000000 )


      isym =  4     inv. 180 deg rotation - cart. axis [0,1,0]   

 cryst.   s( 4) = (     0         -1          0      )
                  (    -1          0          0      )
                  (     0          0          1      )

 cart.    s( 4) = (  1.0000000 -0.0000000  0.0000000 )
                  ( -0.0000000 -1.0000000  0.0000000 )
                  (  0.0000000  0.0000000  1.0000000 )


   Cartesian axes

     site n.     atom                  positions (alat units)
         1           Ni  tau(   1) = (   0.0000000   0.0000000   0.0000000  )
         2           Cl  tau(   2) = (  -0.0919569   0.5674508   0.7457480  )
         3           Cl  tau(   3) = (   1.1756533   0.5674508   0.1495077  )
         4           O   tau(   4) = (   1.1736585   0.8988420   0.6705465  )
         5           O   tau(   5) = (   1.1736585   0.2360595   0.6705465  )
         6           O   tau(   6) = (  -0.0899620   0.8988420   0.2247092  )
         7           O   tau(   7) = (  -0.0899620   0.2360595   0.2247092  )
         8           O   tau(   8) = (   0.1813155   0.5674508   0.2667862  )
         9           O   tau(   9) = (   0.9023810   0.5674508   0.6284695  )

   Crystallographic axes

     site n.     atom                  positions (cryst. coord.)
         1           Ni  tau(   1) = (  0.0000000  0.0000000  0.0000000  )
         2           Cl  tau(   2) = (  0.7290000  0.2710000  0.8330000  )
         3           Cl  tau(   3) = (  1.2710000 -0.2710000  0.1670000  )
         4           O   tau(   4) = (  1.7608000 -0.1768000  0.7490000  )
         5           O   tau(   5) = (  1.1768000 -0.7608000  0.7490000  )
         6           O   tau(   6) = (  0.8232000  0.7608000  0.2510000  )
         7           O   tau(   7) = (  0.2392000  0.1768000  0.2510000  )
         8           O   tau(   8) = (  0.7120000  0.2880000  0.2980000  )
         9           O   tau(   9) = (  1.2880000 -0.2880000  0.7020000  )

     number of k points=   150  Marzari-Vanderbilt smearing, width (Ry)=  0.0100
                       cart. coord. in units 2pi/alat
        k(    1) = (   0.0000000   0.0000000   0.0000000), wk =   0.0019531
        k(    2) = (   0.0000000   0.0000000   0.1396249), wk =   0.0039063
        k(    3) = (   0.0000000   0.0000000   0.2792498), wk =   0.0039063
        k(    4) = (   0.0000000   0.0000000   0.4188748), wk =   0.0039063
        k(    5) = (   0.0000000   0.0000000  -0.5584997), wk =   0.0019531
        k(    6) = (  -0.0759041   0.1101417  -0.0477439), wk =   0.0078125
        k(    7) = (  -0.0759041   0.1101417   0.0918810), wk =   0.0078125
        k(    8) = (  -0.0759041   0.1101417   0.2315060), wk =   0.0078125
        k(    9) = (  -0.0759041   0.1101417   0.3711309), wk =   0.0078125
        k(   10) = (  -0.0759041   0.1101417  -0.6062436), wk =   0.0078125
        k(   11) = (  -0.0759041   0.1101417  -0.4666186), wk =   0.0078125
        k(   12) = (  -0.0759041   0.1101417  -0.3269937), wk =   0.0078125
        k(   13) = (  -0.0759041   0.1101417  -0.1873688), wk =   0.0078125
        k(   14) = (  -0.1518082   0.2202834  -0.0954878), wk =   0.0078125
        k(   15) = (  -0.1518082   0.2202834   0.0441372), wk =   0.0078125
        k(   16) = (  -0.1518082   0.2202834   0.1837621), wk =   0.0078125
        k(   17) = (  -0.1518082   0.2202834   0.3233870), wk =   0.0078125
        k(   18) = (  -0.1518082   0.2202834  -0.6539874), wk =   0.0078125
        k(   19) = (  -0.1518082   0.2202834  -0.5143625), wk =   0.0078125
        k(   20) = (  -0.1518082   0.2202834  -0.3747376), wk =   0.0078125
        k(   21) = (  -0.1518082   0.2202834  -0.2351127), wk =   0.0078125
        k(   22) = (  -0.2277123   0.3304251  -0.1432317), wk =   0.0078125
        k(   23) = (  -0.2277123   0.3304251  -0.0036067), wk =   0.0078125
        k(   24) = (  -0.2277123   0.3304251   0.1360182), wk =   0.0078125
        k(   25) = (  -0.2277123   0.3304251   0.2756431), wk =   0.0078125
        k(   26) = (  -0.2277123   0.3304251  -0.7017313), wk =   0.0078125
        k(   27) = (  -0.2277123   0.3304251  -0.5621064), wk =   0.0078125
        k(   28) = (  -0.2277123   0.3304251  -0.4224815), wk =   0.0078125
        k(   29) = (  -0.2277123   0.3304251  -0.2828566), wk =   0.0078125
        k(   30) = (   0.3036164  -0.4405668   0.1909755), wk =   0.0039063
        k(   31) = (   0.3036164  -0.4405668   0.3306005), wk =   0.0078125
        k(   32) = (   0.3036164  -0.4405668   0.4702254), wk =   0.0078125
        k(   33) = (   0.3036164  -0.4405668   0.6098503), wk =   0.0078125
        k(   34) = (   0.3036164  -0.4405668  -0.3675241), wk =   0.0039063
        k(   35) = (   0.0000000   0.2202834   0.0000000), wk =   0.0039063
        k(   36) = (   0.0000000   0.2202834   0.1396249), wk =   0.0078125
        k(   37) = (   0.0000000   0.2202834   0.2792498), wk =   0.0078125
        k(   38) = (   0.0000000   0.2202834   0.4188748), wk =   0.0078125
        k(   39) = (   0.0000000   0.2202834  -0.5584997), wk =   0.0039063
        k(   40) = (  -0.0759041   0.3304251  -0.0477439), wk =   0.0078125
        k(   41) = (  -0.0759041   0.3304251   0.0918810), wk =   0.0078125
        k(   42) = (  -0.0759041   0.3304251   0.2315060), wk =   0.0078125
        k(   43) = (  -0.0759041   0.3304251   0.3711309), wk =   0.0078125
        k(   44) = (  -0.0759041   0.3304251  -0.6062436), wk =   0.0078125
        k(   45) = (  -0.0759041   0.3304251  -0.4666186), wk =   0.0078125
        k(   46) = (  -0.0759041   0.3304251  -0.3269937), wk =   0.0078125
        k(   47) = (  -0.0759041   0.3304251  -0.1873688), wk =   0.0078125
        k(   48) = (  -0.1518082   0.4405668  -0.0954878), wk =   0.0078125
        k(   49) = (  -0.1518082   0.4405668   0.0441372), wk =   0.0078125
        k(   50) = (  -0.1518082   0.4405668   0.1837621), wk =   0.0078125
        k(   51) = (  -0.1518082   0.4405668   0.3233870), wk =   0.0078125
        k(   52) = (  -0.1518082   0.4405668  -0.6539874), wk =   0.0078125
        k(   53) = (  -0.1518082   0.4405668  -0.5143625), wk =   0.0078125
        k(   54) = (  -0.1518082   0.4405668  -0.3747376), wk =   0.0078125
        k(   55) = (  -0.1518082   0.4405668  -0.2351127), wk =   0.0078125
        k(   56) = (   0.3795206  -0.3304251   0.2387194), wk =   0.0078125
        k(   57) = (   0.3795206  -0.3304251   0.3783443), wk =   0.0078125
        k(   58) = (   0.3795206  -0.3304251   0.5179693), wk =   0.0078125
        k(   59) = (   0.3795206  -0.3304251   0.6575942), wk =   0.0078125
        k(   60) = (   0.3795206  -0.3304251  -0.3197803), wk =   0.0078125
        k(   61) = (   0.3795206  -0.3304251  -0.1801553), wk =   0.0078125
        k(   62) = (   0.3795206  -0.3304251  -0.0405304), wk =   0.0078125
        k(   63) = (   0.3795206  -0.3304251   0.0990945), wk =   0.0078125
        k(   64) = (   0.3036164  -0.2202834   0.1909755), wk =   0.0078125
        k(   65) = (   0.3036164  -0.2202834   0.3306005), wk =   0.0078125
        k(   66) = (   0.3036164  -0.2202834   0.4702254), wk =   0.0078125
        k(   67) = (   0.3036164  -0.2202834   0.6098503), wk =   0.0078125
        k(   68) = (   0.3036164  -0.2202834  -0.3675241), wk =   0.0078125
        k(   69) = (   0.3036164  -0.2202834  -0.2278992), wk =   0.0078125
        k(   70) = (   0.3036164  -0.2202834  -0.0882743), wk =   0.0078125
        k(   71) = (   0.3036164  -0.2202834   0.0513506), wk =   0.0078125
        k(   72) = (   0.2277123  -0.1101417   0.1432317), wk =   0.0078125
        k(   73) = (   0.2277123  -0.1101417   0.2828566), wk =   0.0078125
        k(   74) = (   0.2277123  -0.1101417   0.4224815), wk =   0.0078125
        k(   75) = (   0.2277123  -0.1101417   0.5621064), wk =   0.0078125
        k(   76) = (   0.2277123  -0.1101417  -0.4152680), wk =   0.0078125
        k(   77) = (   0.2277123  -0.1101417  -0.2756431), wk =   0.0078125
        k(   78) = (   0.2277123  -0.1101417  -0.1360182), wk =   0.0078125
        k(   79) = (   0.2277123  -0.1101417   0.0036067), wk =   0.0078125
        k(   80) = (   0.1518082   0.0000000   0.0954878), wk =   0.0039063
        k(   81) = (   0.1518082   0.0000000   0.2351127), wk =   0.0039063
        k(   82) = (   0.1518082   0.0000000   0.3747376), wk =   0.0039063
        k(   83) = (   0.1518082   0.0000000   0.5143625), wk =   0.0039063
        k(   84) = (   0.1518082   0.0000000  -0.4630119), wk =   0.0039063
        k(   85) = (   0.1518082   0.0000000  -0.3233870), wk =   0.0039063
        k(   86) = (   0.1518082   0.0000000  -0.1837621), wk =   0.0039063
        k(   87) = (   0.1518082   0.0000000  -0.0441372), wk =   0.0039063
        k(   88) = (   0.0000000   0.4405668   0.0000000), wk =   0.0039063
        k(   89) = (   0.0000000   0.4405668   0.1396249), wk =   0.0078125
        k(   90) = (   0.0000000   0.4405668   0.2792498), wk =   0.0078125
        k(   91) = (   0.0000000   0.4405668   0.4188748), wk =   0.0078125
        k(   92) = (   0.0000000   0.4405668  -0.5584997), wk =   0.0039063
        k(   93) = (  -0.0759041   0.5507085  -0.0477439), wk =   0.0078125
        k(   94) = (  -0.0759041   0.5507085   0.0918810), wk =   0.0078125
        k(   95) = (  -0.0759041   0.5507085   0.2315060), wk =   0.0078125
        k(   96) = (  -0.0759041   0.5507085   0.3711309), wk =   0.0078125
        k(   97) = (  -0.0759041   0.5507085  -0.6062436), wk =   0.0078125
        k(   98) = (  -0.0759041   0.5507085  -0.4666186), wk =   0.0078125
        k(   99) = (  -0.0759041   0.5507085  -0.3269937), wk =   0.0078125
        k(  100) = (  -0.0759041   0.5507085  -0.1873688), wk =   0.0078125
        k(  101) = (   0.4554247  -0.2202834   0.2864633), wk =   0.0078125
        k(  102) = (   0.4554247  -0.2202834   0.4260882), wk =   0.0078125
        k(  103) = (   0.4554247  -0.2202834   0.5657131), wk =   0.0078125
        k(  104) = (   0.4554247  -0.2202834   0.7053381), wk =   0.0078125
        k(  105) = (   0.4554247  -0.2202834  -0.2720364), wk =   0.0078125
        k(  106) = (   0.4554247  -0.2202834  -0.1324115), wk =   0.0078125
        k(  107) = (   0.4554247  -0.2202834   0.0072135), wk =   0.0078125
        k(  108) = (   0.4554247  -0.2202834   0.1468384), wk =   0.0078125
        k(  109) = (   0.3795206  -0.1101417   0.2387194), wk =   0.0078125
        k(  110) = (   0.3795206  -0.1101417   0.3783443), wk =   0.0078125
        k(  111) = (   0.3795206  -0.1101417   0.5179693), wk =   0.0078125
        k(  112) = (   0.3795206  -0.1101417   0.6575942), wk =   0.0078125
        k(  113) = (   0.3795206  -0.1101417  -0.3197803), wk =   0.0078125
        k(  114) = (   0.3795206  -0.1101417  -0.1801553), wk =   0.0078125
        k(  115) = (   0.3795206  -0.1101417  -0.0405304), wk =   0.0078125
        k(  116) = (   0.3795206  -0.1101417   0.0990945), wk =   0.0078125
        k(  117) = (   0.3036164   0.0000000   0.1909755), wk =   0.0039063
        k(  118) = (   0.3036164   0.0000000   0.3306005), wk =   0.0039063
        k(  119) = (   0.3036164   0.0000000   0.4702254), wk =   0.0039063
        k(  120) = (   0.3036164   0.0000000   0.6098503), wk =   0.0039063
        k(  121) = (   0.3036164   0.0000000  -0.3675241), wk =   0.0039063
        k(  122) = (   0.3036164   0.0000000  -0.2278992), wk =   0.0039063
        k(  123) = (   0.3036164   0.0000000  -0.0882743), wk =   0.0039063
        k(  124) = (   0.3036164   0.0000000   0.0513506), wk =   0.0039063
        k(  125) = (   0.0000000   0.6608503   0.0000000), wk =   0.0039063
        k(  126) = (   0.0000000   0.6608503   0.1396249), wk =   0.0078125
        k(  127) = (   0.0000000   0.6608503   0.2792498), wk =   0.0078125
        k(  128) = (   0.0000000   0.6608503   0.4188748), wk =   0.0078125
        k(  129) = (   0.0000000   0.6608503  -0.5584997), wk =   0.0039063
        k(  130) = (   0.5313288  -0.1101417   0.3342072), wk =   0.0078125
        k(  131) = (   0.5313288  -0.1101417   0.4738321), wk =   0.0078125
        k(  132) = (   0.5313288  -0.1101417   0.6134570), wk =   0.0078125
        k(  133) = (   0.5313288  -0.1101417   0.7530819), wk =   0.0078125
        k(  134) = (   0.5313288  -0.1101417  -0.2242925), wk =   0.0078125
        k(  135) = (   0.5313288  -0.1101417  -0.0846676), wk =   0.0078125
        k(  136) = (   0.5313288  -0.1101417   0.0549574), wk =   0.0078125
        k(  137) = (   0.5313288  -0.1101417   0.1945823), wk =   0.0078125
        k(  138) = (   0.4554247  -0.0000000   0.2864633), wk =   0.0039063
        k(  139) = (   0.4554247  -0.0000000   0.4260882), wk =   0.0039063
        k(  140) = (   0.4554247  -0.0000000   0.5657131), wk =   0.0039063
        k(  141) = (   0.4554247  -0.0000000   0.7053381), wk =   0.0039063
        k(  142) = (   0.4554247  -0.0000000  -0.2720364), wk =   0.0039063
        k(  143) = (   0.4554247  -0.0000000  -0.1324115), wk =   0.0039063
        k(  144) = (   0.4554247  -0.0000000   0.0072135), wk =   0.0039063
        k(  145) = (   0.4554247  -0.0000000   0.1468384), wk =   0.0039063
        k(  146) = (   0.0000000  -0.8811337   0.0000000), wk =   0.0019531
        k(  147) = (   0.0000000  -0.8811337   0.1396249), wk =   0.0039063
        k(  148) = (   0.0000000  -0.8811337   0.2792498), wk =   0.0039063
        k(  149) = (   0.0000000  -0.8811337   0.4188748), wk =   0.0039063
        k(  150) = (   0.0000000  -0.8811337  -0.5584997), wk =   0.0019531

                       cryst. coord.
        k(    1) = (   0.0000000   0.0000000   0.0000000), wk =   0.0019531
        k(    2) = (   0.0000000   0.0000000   0.1250000), wk =   0.0039063
        k(    3) = (   0.0000000   0.0000000   0.2500000), wk =   0.0039063
        k(    4) = (   0.0000000   0.0000000   0.3750000), wk =   0.0039063
        k(    5) = (   0.0000000   0.0000000  -0.5000000), wk =   0.0019531
        k(    6) = (   0.0000000   0.1250000  -0.0000000), wk =   0.0078125
        k(    7) = (   0.0000000   0.1250000   0.1250000), wk =   0.0078125
        k(    8) = (   0.0000000   0.1250000   0.2500000), wk =   0.0078125
        k(    9) = (   0.0000000   0.1250000   0.3750000), wk =   0.0078125
        k(   10) = (   0.0000000   0.1250000  -0.5000000), wk =   0.0078125
        k(   11) = (   0.0000000   0.1250000  -0.3750000), wk =   0.0078125
        k(   12) = (   0.0000000   0.1250000  -0.2500000), wk =   0.0078125
        k(   13) = (   0.0000000   0.1250000  -0.1250000), wk =   0.0078125
        k(   14) = (   0.0000000   0.2500000  -0.0000000), wk =   0.0078125
        k(   15) = (   0.0000000   0.2500000   0.1250000), wk =   0.0078125
        k(   16) = (   0.0000000   0.2500000   0.2500000), wk =   0.0078125
        k(   17) = (   0.0000000   0.2500000   0.3750000), wk =   0.0078125
        k(   18) = (   0.0000000   0.2500000  -0.5000000), wk =   0.0078125
        k(   19) = (   0.0000000   0.2500000  -0.3750000), wk =   0.0078125
        k(   20) = (   0.0000000   0.2500000  -0.2500000), wk =   0.0078125
        k(   21) = (   0.0000000   0.2500000  -0.1250000), wk =   0.0078125
        k(   22) = (  -0.0000000   0.3750000  -0.0000000), wk =   0.0078125
        k(   23) = (  -0.0000000   0.3750000   0.1250000), wk =   0.0078125
        k(   24) = (  -0.0000000   0.3750000   0.2500000), wk =   0.0078125
        k(   25) = (  -0.0000000   0.3750000   0.3750000), wk =   0.0078125
        k(   26) = (  -0.0000000   0.3750000  -0.5000000), wk =   0.0078125
        k(   27) = (  -0.0000000   0.3750000  -0.3750000), wk =   0.0078125
        k(   28) = (  -0.0000000   0.3750000  -0.2500000), wk =   0.0078125
        k(   29) = (  -0.0000000   0.3750000  -0.1250000), wk =   0.0078125
        k(   30) = (  -0.0000000  -0.5000000   0.0000000), wk =   0.0039063
        k(   31) = (  -0.0000000  -0.5000000   0.1250000), wk =   0.0078125
        k(   32) = (  -0.0000000  -0.5000000   0.2500000), wk =   0.0078125
        k(   33) = (  -0.0000000  -0.5000000   0.3750000), wk =   0.0078125
        k(   34) = (  -0.0000000  -0.5000000  -0.5000000), wk =   0.0039063
        k(   35) = (   0.1250000   0.1250000   0.0000000), wk =   0.0039063
        k(   36) = (   0.1250000   0.1250000   0.1250000), wk =   0.0078125
        k(   37) = (   0.1250000   0.1250000   0.2500000), wk =   0.0078125
        k(   38) = (   0.1250000   0.1250000   0.3750000), wk =   0.0078125
        k(   39) = (   0.1250000   0.1250000  -0.5000000), wk =   0.0039063
        k(   40) = (   0.1250000   0.2500000  -0.0000000), wk =   0.0078125
        k(   41) = (   0.1250000   0.2500000   0.1250000), wk =   0.0078125
        k(   42) = (   0.1250000   0.2500000   0.2500000), wk =   0.0078125
        k(   43) = (   0.1250000   0.2500000   0.3750000), wk =   0.0078125
        k(   44) = (   0.1250000   0.2500000  -0.5000000), wk =   0.0078125
        k(   45) = (   0.1250000   0.2500000  -0.3750000), wk =   0.0078125
        k(   46) = (   0.1250000   0.2500000  -0.2500000), wk =   0.0078125
        k(   47) = (   0.1250000   0.2500000  -0.1250000), wk =   0.0078125
        k(   48) = (   0.1250000   0.3750000  -0.0000000), wk =   0.0078125
        k(   49) = (   0.1250000   0.3750000   0.1250000), wk =   0.0078125
        k(   50) = (   0.1250000   0.3750000   0.2500000), wk =   0.0078125
        k(   51) = (   0.1250000   0.3750000   0.3750000), wk =   0.0078125
        k(   52) = (   0.1250000   0.3750000  -0.5000000), wk =   0.0078125
        k(   53) = (   0.1250000   0.3750000  -0.3750000), wk =   0.0078125
        k(   54) = (   0.1250000   0.3750000  -0.2500000), wk =   0.0078125
        k(   55) = (   0.1250000   0.3750000  -0.1250000), wk =   0.0078125
        k(   56) = (   0.1250000  -0.5000000   0.0000000), wk =   0.0078125
        k(   57) = (   0.1250000  -0.5000000   0.1250000), wk =   0.0078125
        k(   58) = (   0.1250000  -0.5000000   0.2500000), wk =   0.0078125
        k(   59) = (   0.1250000  -0.5000000   0.3750000), wk =   0.0078125
        k(   60) = (   0.1250000  -0.5000000  -0.5000000), wk =   0.0078125
        k(   61) = (   0.1250000  -0.5000000  -0.3750000), wk =   0.0078125
        k(   62) = (   0.1250000  -0.5000000  -0.2500000), wk =   0.0078125
        k(   63) = (   0.1250000  -0.5000000  -0.1250000), wk =   0.0078125
        k(   64) = (   0.1250000  -0.3750000   0.0000000), wk =   0.0078125
        k(   65) = (   0.1250000  -0.3750000   0.1250000), wk =   0.0078125
        k(   66) = (   0.1250000  -0.3750000   0.2500000), wk =   0.0078125
        k(   67) = (   0.1250000  -0.3750000   0.3750000), wk =   0.0078125
        k(   68) = (   0.1250000  -0.3750000  -0.5000000), wk =   0.0078125
        k(   69) = (   0.1250000  -0.3750000  -0.3750000), wk =   0.0078125
        k(   70) = (   0.1250000  -0.3750000  -0.2500000), wk =   0.0078125
        k(   71) = (   0.1250000  -0.3750000  -0.1250000), wk =   0.0078125
        k(   72) = (   0.1250000  -0.2500000   0.0000000), wk =   0.0078125
        k(   73) = (   0.1250000  -0.2500000   0.1250000), wk =   0.0078125
        k(   74) = (   0.1250000  -0.2500000   0.2500000), wk =   0.0078125
        k(   75) = (   0.1250000  -0.2500000   0.3750000), wk =   0.0078125
        k(   76) = (   0.1250000  -0.2500000  -0.5000000), wk =   0.0078125
        k(   77) = (   0.1250000  -0.2500000  -0.3750000), wk =   0.0078125
        k(   78) = (   0.1250000  -0.2500000  -0.2500000), wk =   0.0078125
        k(   79) = (   0.1250000  -0.2500000  -0.1250000), wk =   0.0078125
        k(   80) = (   0.1250000  -0.1250000   0.0000000), wk =   0.0039063
        k(   81) = (   0.1250000  -0.1250000   0.1250000), wk =   0.0039063
        k(   82) = (   0.1250000  -0.1250000   0.2500000), wk =   0.0039063
        k(   83) = (   0.1250000  -0.1250000   0.3750000), wk =   0.0039063
        k(   84) = (   0.1250000  -0.1250000  -0.5000000), wk =   0.0039063
        k(   85) = (   0.1250000  -0.1250000  -0.3750000), wk =   0.0039063
        k(   86) = (   0.1250000  -0.1250000  -0.2500000), wk =   0.0039063
        k(   87) = (   0.1250000  -0.1250000  -0.1250000), wk =   0.0039063
        k(   88) = (   0.2500000   0.2500000   0.0000000), wk =   0.0039063
        k(   89) = (   0.2500000   0.2500000   0.1250000), wk =   0.0078125
        k(   90) = (   0.2500000   0.2500000   0.2500000), wk =   0.0078125
        k(   91) = (   0.2500000   0.2500000   0.3750000), wk =   0.0078125
        k(   92) = (   0.2500000   0.2500000  -0.5000000), wk =   0.0039063
        k(   93) = (   0.2500000   0.3750000  -0.0000000), wk =   0.0078125
        k(   94) = (   0.2500000   0.3750000   0.1250000), wk =   0.0078125
        k(   95) = (   0.2500000   0.3750000   0.2500000), wk =   0.0078125
        k(   96) = (   0.2500000   0.3750000   0.3750000), wk =   0.0078125
        k(   97) = (   0.2500000   0.3750000  -0.5000000), wk =   0.0078125
        k(   98) = (   0.2500000   0.3750000  -0.3750000), wk =   0.0078125
        k(   99) = (   0.2500000   0.3750000  -0.2500000), wk =   0.0078125
        k(  100) = (   0.2500000   0.3750000  -0.1250000), wk =   0.0078125
        k(  101) = (   0.2500000  -0.5000000   0.0000000), wk =   0.0078125
        k(  102) = (   0.2500000  -0.5000000   0.1250000), wk =   0.0078125
        k(  103) = (   0.2500000  -0.5000000   0.2500000), wk =   0.0078125
        k(  104) = (   0.2500000  -0.5000000   0.3750000), wk =   0.0078125
        k(  105) = (   0.2500000  -0.5000000  -0.5000000), wk =   0.0078125
        k(  106) = (   0.2500000  -0.5000000  -0.3750000), wk =   0.0078125
        k(  107) = (   0.2500000  -0.5000000  -0.2500000), wk =   0.0078125
        k(  108) = (   0.2500000  -0.5000000  -0.1250000), wk =   0.0078125
        k(  109) = (   0.2500000  -0.3750000   0.0000000), wk =   0.0078125
        k(  110) = (   0.2500000  -0.3750000   0.1250000), wk =   0.0078125
        k(  111) = (   0.2500000  -0.3750000   0.2500000), wk =   0.0078125
        k(  112) = (   0.2500000  -0.3750000   0.3750000), wk =   0.0078125
        k(  113) = (   0.2500000  -0.3750000  -0.5000000), wk =   0.0078125
        k(  114) = (   0.2500000  -0.3750000  -0.3750000), wk =   0.0078125
        k(  115) = (   0.2500000  -0.3750000  -0.2500000), wk =   0.0078125
        k(  116) = (   0.2500000  -0.3750000  -0.1250000), wk =   0.0078125
        k(  117) = (   0.2500000  -0.2500000   0.0000000), wk =   0.0039063
        k(  118) = (   0.2500000  -0.2500000   0.1250000), wk =   0.0039063
        k(  119) = (   0.2500000  -0.2500000   0.2500000), wk =   0.0039063
        k(  120) = (   0.2500000  -0.2500000   0.3750000), wk =   0.0039063
        k(  121) = (   0.2500000  -0.2500000  -0.5000000), wk =   0.0039063
        k(  122) = (   0.2500000  -0.2500000  -0.3750000), wk =   0.0039063
        k(  123) = (   0.2500000  -0.2500000  -0.2500000), wk =   0.0039063
        k(  124) = (   0.2500000  -0.2500000  -0.1250000), wk =   0.0039063
        k(  125) = (   0.3750000   0.3750000  -0.0000000), wk =   0.0039063
        k(  126) = (   0.3750000   0.3750000   0.1250000), wk =   0.0078125
        k(  127) = (   0.3750000   0.3750000   0.2500000), wk =   0.0078125
        k(  128) = (   0.3750000   0.3750000   0.3750000), wk =   0.0078125
        k(  129) = (   0.3750000   0.3750000  -0.5000000), wk =   0.0039063
        k(  130) = (   0.3750000  -0.5000000   0.0000000), wk =   0.0078125
        k(  131) = (   0.3750000  -0.5000000   0.1250000), wk =   0.0078125
        k(  132) = (   0.3750000  -0.5000000   0.2500000), wk =   0.0078125
        k(  133) = (   0.3750000  -0.5000000   0.3750000), wk =   0.0078125
        k(  134) = (   0.3750000  -0.5000000  -0.5000000), wk =   0.0078125
        k(  135) = (   0.3750000  -0.5000000  -0.3750000), wk =   0.0078125
        k(  136) = (   0.3750000  -0.5000000  -0.2500000), wk =   0.0078125
        k(  137) = (   0.3750000  -0.5000000  -0.1250000), wk =   0.0078125
        k(  138) = (   0.3750000  -0.3750000   0.0000000), wk =   0.0039063
        k(  139) = (   0.3750000  -0.3750000   0.1250000), wk =   0.0039063
        k(  140) = (   0.3750000  -0.3750000   0.2500000), wk =   0.0039063
        k(  141) = (   0.3750000  -0.3750000   0.3750000), wk =   0.0039063
        k(  142) = (   0.3750000  -0.3750000  -0.5000000), wk =   0.0039063
        k(  143) = (   0.3750000  -0.3750000  -0.3750000), wk =   0.0039063
        k(  144) = (   0.3750000  -0.3750000  -0.2500000), wk =   0.0039063
        k(  145) = (   0.3750000  -0.3750000  -0.1250000), wk =   0.0039063
        k(  146) = (  -0.5000000  -0.5000000   0.0000000), wk =   0.0019531
        k(  147) = (  -0.5000000  -0.5000000   0.1250000), wk =   0.0039063
        k(  148) = (  -0.5000000  -0.5000000   0.2500000), wk =   0.0039063
        k(  149) = (  -0.5000000  -0.5000000   0.3750000), wk =   0.0039063
        k(  150) = (  -0.5000000  -0.5000000  -0.5000000), wk =   0.0019531

     Dense  grid:   182885 G-vectors     FFT dimensions: (  75,  75,  80)

     Smooth grid:    64583 G-vectors     FFT dimensions: (  54,  54,  60)

     Dynamical RAM for                 wfc:       5.05 MB

     Dynamical RAM for     wfc (w. buffer):    1521.53 MB

     Dynamical RAM for           str. fact:       8.37 MB

     Dynamical RAM for           local pot:       0.00 MB

     Dynamical RAM for          nlocal pot:      12.58 MB

     Dynamical RAM for                qrad:       4.82 MB

     Dynamical RAM for          rho,v,vnew:      37.34 MB

     Dynamical RAM for               rhoin:      12.45 MB

     Dynamical RAM for            rho*nmix:      89.30 MB

     Dynamical RAM for           G-vectors:      10.96 MB

     Dynamical RAM for          h,s,v(r/c):       0.31 MB

     Dynamical RAM for          <psi|beta>:       0.06 MB

     Dynamical RAM for                 psi:      10.11 MB

     Dynamical RAM for                hpsi:      10.11 MB

     Dynamical RAM for                spsi:      10.11 MB

     Dynamical RAM for      wfcinit/wfcrot:      11.14 MB

     Dynamical RAM for           addusdens:     538.59 MB

     Dynamical RAM for          addusforce:     566.54 MB

     Dynamical RAM for         addusstress:     565.10 MB

     Estimated static dynamical RAM per process >       1.60 GB

     Estimated max dynamical RAM per process >       2.24 GB

     Check: negative core charge=   -0.000003
     Generating pointlists ...
     new r_m :   0.1578 (alat units)  1.8530 (a.u.) for type    1
     new r_m :   0.1395 (alat units)  1.6372 (a.u.) for type    2
     new r_m :   0.1395 (alat units)  1.6372 (a.u.) for type    3

     Initial potential from superposition of free atoms

     starting charge      66.0000, renormalised to      68.0000

     negative rho (up, down):  1.740E-02 1.424E-02
     Starting wfcs are   45 randomized atomic wfcs
     Checking if some PAW data can be deallocated... 

     total cpu time spent up to now is       11.3 secs

     Self-consistent Calculation
[tb_dev] Currently allocated     8.95E+00 Mbytes, locked:    0 /  15
[tb_pin] Currently allocated     0.00E+00 Mbytes, locked:    0 /   0

     iteration #  1     ecut=    50.00 Ry     beta= 0.40
     Davidson diagonalization with overlap

---- Real-time Memory Report at c_bands before calling an iterative solver
          2635 MiB given to the printing process from OS
         -1795 MiB allocation reported by mallinfo(arena+hblkhd)
         56610 MiB available memory on the node where the printing process lives
     GPU memory used/free/total (MiB): 1696 / 14584 / 16280
------------------
     ethr =  1.00E-02,  avg # of iterations =  2.0

     negative rho (up, down):  1.654E-02 1.460E-02

     total cpu time spent up to now is       22.6 secs

     total energy              =    -645.20386024 Ry
     estimated scf accuracy    <      18.25856141 Ry

     total magnetization       =     8.00 Bohr mag/cell
     absolute magnetization    =     8.43 Bohr mag/cell
[tb_dev] Currently allocated     8.95E+00 Mbytes, locked:    0 /  13
[tb_pin] Currently allocated     0.00E+00 Mbytes, locked:    0 /   0

     iteration #  2     ecut=    50.00 Ry     beta= 0.40
     Davidson diagonalization with overlap

---- Real-time Memory Report at c_bands before calling an iterative solver
          2819 MiB given to the printing process from OS
         -1745 MiB allocation reported by mallinfo(arena+hblkhd)
         56562 MiB available memory on the node where the printing process lives
     GPU memory used/free/total (MiB): 2456 / 13824 / 16280
------------------
     ethr =  1.00E-02,  avg # of iterations =  3.0

     negative rho (up, down):  1.629E-02 1.460E-02

     total cpu time spent up to now is       37.5 secs

     total energy              =    -653.69370667 Ry
     estimated scf accuracy    <      49.19325009 Ry

     total magnetization       =     1.90 Bohr mag/cell
     absolute magnetization    =     2.14 Bohr mag/cell
[tb_dev] Currently allocated     8.95E+00 Mbytes, locked:    0 /  13
[tb_pin] Currently allocated     0.00E+00 Mbytes, locked:    0 /   0

     iteration #  3     ecut=    50.00 Ry     beta= 0.40
     Davidson diagonalization with overlap

---- Real-time Memory Report at c_bands before calling an iterative solver
          2966 MiB given to the printing process from OS
         -1729 MiB allocation reported by mallinfo(arena+hblkhd)
         56545 MiB available memory on the node where the printing process lives
     GPU memory used/free/total (MiB): 2500 / 13780 / 16280
------------------
     ethr =  1.00E-02,  avg # of iterations =  3.0

     negative rho (up, down):  1.603E-02 1.440E-02

     total cpu time spent up to now is       51.6 secs

     total energy              =    -654.67962981 Ry
     estimated scf accuracy    <      16.15551358 Ry

     total magnetization       =     6.03 Bohr mag/cell
     absolute magnetization    =     6.31 Bohr mag/cell
[tb_dev] Currently allocated     8.95E+00 Mbytes, locked:    0 /  13
[tb_pin] Currently allocated     0.00E+00 Mbytes, locked:    0 /   0

     iteration #  4     ecut=    50.00 Ry     beta= 0.40
     Davidson diagonalization with overlap

---- Real-time Memory Report at c_bands before calling an iterative solver
          3092 MiB given to the printing process from OS
         -1709 MiB allocation reported by mallinfo(arena+hblkhd)
         56524 MiB available memory on the node where the printing process lives
     GPU memory used/free/total (MiB): 2536 / 13744 / 16280
------------------
     ethr =  1.00E-02,  avg # of iterations =  1.0

     negative rho (up, down):  1.572E-02 1.441E-02

     total cpu time spent up to now is       61.6 secs

     total energy              =    -652.58629620 Ry
     estimated scf accuracy    <      11.89860355 Ry

     total magnetization       =     4.91 Bohr mag/cell
     absolute magnetization    =     5.03 Bohr mag/cell
[tb_dev] Currently allocated     8.95E+00 Mbytes, locked:    0 /  13
[tb_pin] Currently allocated     0.00E+00 Mbytes, locked:    0 /   0

     iteration #  5     ecut=    50.00 Ry     beta= 0.40
     Davidson diagonalization with overlap

---- Real-time Memory Report at c_bands before calling an iterative solver
          3164 MiB given to the printing process from OS
         -1695 MiB allocation reported by mallinfo(arena+hblkhd)
         56511 MiB available memory on the node where the printing process lives
     GPU memory used/free/total (MiB): 2536 / 13744 / 16280
------------------
     ethr =  1.00E-02,  avg # of iterations =  2.0

     negative rho (up, down):  1.521E-02 1.463E-02

     total cpu time spent up to now is       73.0 secs

     total energy              =    -653.05387603 Ry
     estimated scf accuracy    <      15.35798004 Ry

     total magnetization       =     7.98 Bohr mag/cell
     absolute magnetization    =     8.50 Bohr mag/cell
[tb_dev] Currently allocated     8.95E+00 Mbytes, locked:    0 /  13
[tb_pin] Currently allocated     0.00E+00 Mbytes, locked:    0 /   0

     iteration #  6     ecut=    50.00 Ry     beta= 0.40
     Davidson diagonalization with overlap

---- Real-time Memory Report at c_bands before calling an iterative solver
          3219 MiB given to the printing process from OS
         -1681 MiB allocation reported by mallinfo(arena+hblkhd)
         56497 MiB available memory on the node where the printing process lives
     GPU memory used/free/total (MiB): 2536 / 13744 / 16280
------------------
     ethr =  1.00E-02,  avg # of iterations =  2.0

     negative rho (up, down):  1.522E-02 1.466E-02

     total cpu time spent up to now is       84.3 secs

     total energy              =    -654.83654562 Ry
     estimated scf accuracy    <       4.43731979 Ry

     total magnetization       =    10.66 Bohr mag/cell
     absolute magnetization    =    10.71 Bohr mag/cell
[tb_dev] Currently allocated     8.95E+00 Mbytes, locked:    0 /  13
[tb_pin] Currently allocated     0.00E+00 Mbytes, locked:    0 /   0

     iteration #  7     ecut=    50.00 Ry     beta= 0.40
     Davidson diagonalization with overlap

---- Real-time Memory Report at c_bands before calling an iterative solver
          3279 MiB given to the printing process from OS
         -1663 MiB allocation reported by mallinfo(arena+hblkhd)
         56480 MiB available memory on the node where the printing process lives
     GPU memory used/free/total (MiB): 2536 / 13744 / 16280
------------------
     ethr =  6.53E-03,  avg # of iterations =  1.0

     negative rho (up, down):  1.524E-02 1.467E-02

     total cpu time spent up to now is       94.3 secs

     total energy              =    -654.83873281 Ry
     estimated scf accuracy    <       4.34171114 Ry

     total magnetization       =    10.70 Bohr mag/cell
     absolute magnetization    =    10.74 Bohr mag/cell
[tb_dev] Currently allocated     8.95E+00 Mbytes, locked:    0 /  13
[tb_pin] Currently allocated     0.00E+00 Mbytes, locked:    0 /   0

     iteration #  8     ecut=    50.00 Ry     beta= 0.40
     Davidson diagonalization with overlap

---- Real-time Memory Report at c_bands before calling an iterative solver
          3333 MiB given to the printing process from OS
         -1649 MiB allocation reported by mallinfo(arena+hblkhd)
         56466 MiB available memory on the node where the printing process lives
     GPU memory used/free/total (MiB): 2536 / 13744 / 16280
------------------
     ethr =  6.38E-03,  avg # of iterations =  1.0

     negative rho (up, down):  1.531E-02 1.461E-02

     total cpu time spent up to now is      104.3 secs

     total energy              =    -654.78427912 Ry
     estimated scf accuracy    <       4.17476258 Ry

     total magnetization       =    10.98 Bohr mag/cell
     absolute magnetization    =    11.02 Bohr mag/cell
[tb_dev] Currently allocated     8.95E+00 Mbytes, locked:    0 /  13
[tb_pin] Currently allocated     0.00E+00 Mbytes, locked:    0 /   0

     iteration #  9     ecut=    50.00 Ry     beta= 0.40
     Davidson diagonalization with overlap

---- Real-time Memory Report at c_bands before calling an iterative solver
          3356 MiB given to the printing process from OS
         -1635 MiB allocation reported by mallinfo(arena+hblkhd)
         56455 MiB available memory on the node where the printing process lives
     GPU memory used/free/total (MiB): 2536 / 13744 / 16280
------------------
     ethr =  6.14E-03,  avg # of iterations =  1.0

     negative rho (up, down):  1.530E-02 1.462E-02

     total cpu time spent up to now is      114.3 secs

     total energy              =    -654.79678235 Ry
     estimated scf accuracy    <       3.64303494 Ry

     total magnetization       =    12.72 Bohr mag/cell
     absolute magnetization    =    12.76 Bohr mag/cell
[tb_dev] Currently allocated     8.95E+00 Mbytes, locked:    0 /  13
[tb_pin] Currently allocated     0.00E+00 Mbytes, locked:    0 /   0

     iteration # 10     ecut=    50.00 Ry     beta= 0.40
     Davidson diagonalization with overlap

---- Real-time Memory Report at c_bands before calling an iterative solver
          3380 MiB given to the printing process from OS
         -1621 MiB allocation reported by mallinfo(arena+hblkhd)
         56438 MiB available memory on the node where the printing process lives
     GPU memory used/free/total (MiB): 2536 / 13744 / 16280
------------------
     ethr =  5.36E-03,  avg # of iterations =  1.0

     negative rho (up, down):  1.566E-02 1.448E-02

     total cpu time spent up to now is      124.4 secs

     total energy              =    -654.71817702 Ry
     estimated scf accuracy    <       3.65275562 Ry

     total magnetization       =    12.67 Bohr mag/cell
     absolute magnetization    =    12.71 Bohr mag/cell
[tb_dev] Currently allocated     8.95E+00 Mbytes, locked:    0 /  13
[tb_pin] Currently allocated     0.00E+00 Mbytes, locked:    0 /   0

     iteration # 11     ecut=    50.00 Ry     beta= 0.40
     Davidson diagonalization with overlap

---- Real-time Memory Report at c_bands before calling an iterative solver
          3401 MiB given to the printing process from OS
         -1611 MiB allocation reported by mallinfo(arena+hblkhd)
         56431 MiB available memory on the node where the printing process lives
     GPU memory used/free/total (MiB): 2536 / 13744 / 16280
------------------
     ethr =  5.36E-03,  avg # of iterations =  1.0

     negative rho (up, down):  1.583E-02 1.427E-02

     total cpu time spent up to now is      134.4 secs

     total energy              =    -654.43093542 Ry
     estimated scf accuracy    <       3.07290290 Ry

     total magnetization       =    12.96 Bohr mag/cell
     absolute magnetization    =    13.01 Bohr mag/cell
[tb_dev] Currently allocated     8.95E+00 Mbytes, locked:    0 /  13
[tb_pin] Currently allocated     0.00E+00 Mbytes, locked:    0 /   0

     iteration # 12     ecut=    50.00 Ry     beta= 0.40
     Davidson diagonalization with overlap

---- Real-time Memory Report at c_bands before calling an iterative solver
          3415 MiB given to the printing process from OS
         -1600 MiB allocation reported by mallinfo(arena+hblkhd)
         56416 MiB available memory on the node where the printing process lives
     GPU memory used/free/total (MiB): 2536 / 13744 / 16280
------------------
     ethr =  4.52E-03,  avg # of iterations =  1.0

     negative rho (up, down):  1.601E-02 1.418E-02

     total cpu time spent up to now is      144.4 secs

     total energy              =    -654.53813271 Ry
     estimated scf accuracy    <       0.35217936 Ry

     total magnetization       =    12.95 Bohr mag/cell
     absolute magnetization    =    13.04 Bohr mag/cell
[tb_dev] Currently allocated     8.95E+00 Mbytes, locked:    0 /  13
[tb_pin] Currently allocated     0.00E+00 Mbytes, locked:    0 /   0

     iteration # 13     ecut=    50.00 Ry     beta= 0.40
     Davidson diagonalization with overlap

---- Real-time Memory Report at c_bands before calling an iterative solver
          3426 MiB given to the printing process from OS
         -1589 MiB allocation reported by mallinfo(arena+hblkhd)
         56410 MiB available memory on the node where the printing process lives
     GPU memory used/free/total (MiB): 2536 / 13744 / 16280
------------------
     ethr =  5.18E-04,  avg # of iterations =  1.5

     negative rho (up, down):  1.591E-02 1.429E-02

     total cpu time spent up to now is      155.0 secs

     total energy              =    -654.52593462 Ry
     estimated scf accuracy    <       0.38996526 Ry

     total magnetization       =    12.12 Bohr mag/cell
     absolute magnetization    =    12.27 Bohr mag/cell
[tb_dev] Currently allocated     8.95E+00 Mbytes, locked:    0 /  13
[tb_pin] Currently allocated     0.00E+00 Mbytes, locked:    0 /   0

     iteration # 14     ecut=    50.00 Ry     beta= 0.40
     Davidson diagonalization with overlap

---- Real-time Memory Report at c_bands before calling an iterative solver
          3438 MiB given to the printing process from OS
         -1578 MiB allocation reported by mallinfo(arena+hblkhd)
         56396 MiB available memory on the node where the printing process lives
     GPU memory used/free/total (MiB): 2536 / 13744 / 16280
------------------
     ethr =  5.18E-04,  avg # of iterations =  1.0

     negative rho (up, down):  1.599E-02 1.432E-02

     total cpu time spent up to now is      165.0 secs

     total energy              =    -654.58812939 Ry
     estimated scf accuracy    <       0.63739939 Ry

     total magnetization       =    13.76 Bohr mag/cell
     absolute magnetization    =    13.88 Bohr mag/cell
[tb_dev] Currently allocated     8.95E+00 Mbytes, locked:    0 /  13
[tb_pin] Currently allocated     0.00E+00 Mbytes, locked:    0 /   0

     iteration # 15     ecut=    50.00 Ry     beta= 0.40
     Davidson diagonalization with overlap

---- Real-time Memory Report at c_bands before calling an iterative solver
          3449 MiB given to the printing process from OS
         -1567 MiB allocation reported by mallinfo(arena+hblkhd)
         56389 MiB available memory on the node where the printing process lives
     GPU memory used/free/total (MiB): 2536 / 13744 / 16280
------------------
     ethr =  5.18E-04,  avg # of iterations =  1.0

     negative rho (up, down):  1.599E-02 1.431E-02

     total cpu time spent up to now is      175.0 secs

     total energy              =    -654.56296573 Ry
     estimated scf accuracy    <       0.42151574 Ry

     total magnetization       =    13.64 Bohr mag/cell
     absolute magnetization    =    13.79 Bohr mag/cell
[tb_dev] Currently allocated     8.95E+00 Mbytes, locked:    0 /  13
[tb_pin] Currently allocated     0.00E+00 Mbytes, locked:    0 /   0

     iteration # 16     ecut=    50.00 Ry     beta= 0.40
     Davidson diagonalization with overlap

---- Real-time Memory Report at c_bands before calling an iterative solver
          3462 MiB given to the printing process from OS
         -1555 MiB allocation reported by mallinfo(arena+hblkhd)
         56373 MiB available memory on the node where the printing process lives
     GPU memory used/free/total (MiB): 2536 / 13744 / 16280
------------------
     ethr =  5.18E-04,  avg # of iterations =  1.0

     negative rho (up, down):  1.597E-02 1.431E-02

     total cpu time spent up to now is      185.0 secs

     total energy              =    -654.57481543 Ry
     estimated scf accuracy    <       0.01876190 Ry

     total magnetization       =    12.89 Bohr mag/cell
     absolute magnetization    =    13.08 Bohr mag/cell
[tb_dev] Currently allocated     8.95E+00 Mbytes, locked:    0 /  13
[tb_pin] Currently allocated     0.00E+00 Mbytes, locked:    0 /   0

     iteration # 17     ecut=    50.00 Ry     beta= 0.40
     Davidson diagonalization with overlap

---- Real-time Memory Report at c_bands before calling an iterative solver
          3475 MiB given to the printing process from OS
         -1544 MiB allocation reported by mallinfo(arena+hblkhd)
         56366 MiB available memory on the node where the printing process lives
     GPU memory used/free/total (MiB): 2536 / 13744 / 16280
------------------
     ethr =  2.76E-05,  avg # of iterations =  1.0

     negative rho (up, down):  1.584E-02 1.436E-02

     total cpu time spent up to now is      195.0 secs

     total energy              =    -654.57756574 Ry
     estimated scf accuracy    <       0.01873545 Ry

     total magnetization       =    12.94 Bohr mag/cell
     absolute magnetization    =    13.12 Bohr mag/cell
[tb_dev] Currently allocated     8.95E+00 Mbytes, locked:    0 /  13
[tb_pin] Currently allocated     0.00E+00 Mbytes, locked:    0 /   0

     iteration # 18     ecut=    50.00 Ry     beta= 0.40
     Davidson diagonalization with overlap

---- Real-time Memory Report at c_bands before calling an iterative solver
          3488 MiB given to the printing process from OS
         -1533 MiB allocation reported by mallinfo(arena+hblkhd)
         56351 MiB available memory on the node where the printing process lives
     GPU memory used/free/total (MiB): 2536 / 13744 / 16280
------------------
     ethr =  2.76E-05,  avg # of iterations =  1.0

     negative rho (up, down):  1.579E-02 1.442E-02

     total cpu time spent up to now is      205.0 secs

     total energy              =    -654.57564980 Ry
     estimated scf accuracy    <       0.10213953 Ry

     total magnetization       =    13.09 Bohr mag/cell
     absolute magnetization    =    13.26 Bohr mag/cell
[tb_dev] Currently allocated     8.95E+00 Mbytes, locked:    0 /  13
[tb_pin] Currently allocated     0.00E+00 Mbytes, locked:    0 /   0

     iteration # 19     ecut=    50.00 Ry     beta= 0.40
     Davidson diagonalization with overlap

---- Real-time Memory Report at c_bands before calling an iterative solver
          3499 MiB given to the printing process from OS
         -1522 MiB allocation reported by mallinfo(arena+hblkhd)
         56344 MiB available memory on the node where the printing process lives
     GPU memory used/free/total (MiB): 2536 / 13744 / 16280
------------------
     ethr =  2.76E-05,  avg # of iterations =  1.0

     negative rho (up, down):  1.573E-02 1.446E-02

     total cpu time spent up to now is      215.0 secs

     total energy              =    -654.57824226 Ry
     estimated scf accuracy    <       0.01050087 Ry

     total magnetization       =    12.71 Bohr mag/cell
     absolute magnetization    =    12.88 Bohr mag/cell
[tb_dev] Currently allocated     8.95E+00 Mbytes, locked:    0 /  13
[tb_pin] Currently allocated     0.00E+00 Mbytes, locked:    0 /   0

     iteration # 20     ecut=    50.00 Ry     beta= 0.40
     Davidson diagonalization with overlap

---- Real-time Memory Report at c_bands before calling an iterative solver
          3513 MiB given to the printing process from OS
         -1491 MiB allocation reported by mallinfo(arena+hblkhd)
         56318 MiB available memory on the node where the printing process lives
     GPU memory used/free/total (MiB): 2536 / 13744 / 16280
------------------
     ethr =  1.54E-05,  avg # of iterations =  1.0

     negative rho (up, down):  1.559E-02 1.455E-02

     total cpu time spent up to now is      224.9 secs

     total energy              =    -654.57743662 Ry
     estimated scf accuracy    <       0.01577216 Ry

     total magnetization       =    12.65 Bohr mag/cell
     absolute magnetization    =    12.82 Bohr mag/cell
[tb_dev] Currently allocated     8.95E+00 Mbytes, locked:    0 /  13
[tb_pin] Currently allocated     0.00E+00 Mbytes, locked:    0 /   0

     iteration # 21     ecut=    50.00 Ry     beta= 0.40
     Davidson diagonalization with overlap

---- Real-time Memory Report at c_bands before calling an iterative solver
          3524 MiB given to the printing process from OS
         -1480 MiB allocation reported by mallinfo(arena+hblkhd)
         56308 MiB available memory on the node where the printing process lives
     GPU memory used/free/total (MiB): 2536 / 13744 / 16280
------------------
     ethr =  1.54E-05,  avg # of iterations =  1.0

     negative rho (up, down):  1.559E-02 1.454E-02

     total cpu time spent up to now is      235.0 secs

     total energy              =    -654.57910961 Ry
     estimated scf accuracy    <       0.00715592 Ry

     total magnetization       =    12.06 Bohr mag/cell
     absolute magnetization    =    12.23 Bohr mag/cell
[tb_dev] Currently allocated     8.95E+00 Mbytes, locked:    0 /  13
[tb_pin] Currently allocated     0.00E+00 Mbytes, locked:    0 /   0

     iteration # 22     ecut=    50.00 Ry     beta= 0.40
     Davidson diagonalization with overlap

---- Real-time Memory Report at c_bands before calling an iterative solver
          3535 MiB given to the printing process from OS
         -1468 MiB allocation reported by mallinfo(arena+hblkhd)
         56296 MiB available memory on the node where the printing process lives
     GPU memory used/free/total (MiB): 2536 / 13744 / 16280
------------------
     ethr =  1.05E-05,  avg # of iterations =  1.0

     negative rho (up, down):  1.556E-02 1.458E-02

     total cpu time spent up to now is      244.9 secs

     total energy              =    -654.57928874 Ry
     estimated scf accuracy    <       0.00871898 Ry

     total magnetization       =    12.05 Bohr mag/cell
     absolute magnetization    =    12.22 Bohr mag/cell
[tb_dev] Currently allocated     8.95E+00 Mbytes, locked:    0 /  13
[tb_pin] Currently allocated     0.00E+00 Mbytes, locked:    0 /   0

     iteration # 23     ecut=    50.00 Ry     beta= 0.40
     Davidson diagonalization with overlap

---- Real-time Memory Report at c_bands before calling an iterative solver
          3548 MiB given to the printing process from OS
         -1457 MiB allocation reported by mallinfo(arena+hblkhd)
         56285 MiB available memory on the node where the printing process lives
     GPU memory used/free/total (MiB): 2536 / 13744 / 16280
------------------
     ethr =  1.05E-05,  avg # of iterations =  1.0

     negative rho (up, down):  1.556E-02 1.457E-02

     total cpu time spent up to now is      254.9 secs

     total energy              =    -654.57974113 Ry
     estimated scf accuracy    <       0.01038292 Ry

     total magnetization       =    11.87 Bohr mag/cell
     absolute magnetization    =    12.04 Bohr mag/cell
[tb_dev] Currently allocated     8.95E+00 Mbytes, locked:    0 /  13
[tb_pin] Currently allocated     0.00E+00 Mbytes, locked:    0 /   0

     iteration # 24     ecut=    50.00 Ry     beta= 0.40
     Davidson diagonalization with overlap

---- Real-time Memory Report at c_bands before calling an iterative solver
          3559 MiB given to the printing process from OS
         -1446 MiB allocation reported by mallinfo(arena+hblkhd)
         56271 MiB available memory on the node where the printing process lives
     GPU memory used/free/total (MiB): 2536 / 13744 / 16280
------------------
     ethr =  1.05E-05,  avg # of iterations =  1.0

     negative rho (up, down):  1.557E-02 1.458E-02

     total cpu time spent up to now is      264.9 secs

     total energy              =    -654.57930158 Ry
     estimated scf accuracy    <       0.01736350 Ry

     total magnetization       =    11.73 Bohr mag/cell
     absolute magnetization    =    11.90 Bohr mag/cell
[tb_dev] Currently allocated     8.95E+00 Mbytes, locked:    0 /  13
[tb_pin] Currently allocated     0.00E+00 Mbytes, locked:    0 /   0

     iteration # 25     ecut=    50.00 Ry     beta= 0.40
     Davidson diagonalization with overlap

---- Real-time Memory Report at c_bands before calling an iterative solver
          3570 MiB given to the printing process from OS
         -1435 MiB allocation reported by mallinfo(arena+hblkhd)
         56262 MiB available memory on the node where the printing process lives
     GPU memory used/free/total (MiB): 2536 / 13744 / 16280
------------------
     ethr =  1.05E-05,  avg # of iterations =  1.0

     negative rho (up, down):  1.559E-02 1.458E-02

     total cpu time spent up to now is      275.5 secs

     total energy              =    -654.57869464 Ry
     estimated scf accuracy    <       0.00801758 Ry

     total magnetization       =    11.90 Bohr mag/cell
     absolute magnetization    =    12.07 Bohr mag/cell
[tb_dev] Currently allocated     8.95E+00 Mbytes, locked:    0 /  13
[tb_pin] Currently allocated     0.00E+00 Mbytes, locked:    0 /   0

     iteration # 26     ecut=    50.00 Ry     beta= 0.40
     Davidson diagonalization with overlap

---- Real-time Memory Report at c_bands before calling an iterative solver
          3582 MiB given to the printing process from OS
         -1424 MiB allocation reported by mallinfo(arena+hblkhd)
         56225 MiB available memory on the node where the printing process lives
     GPU memory used/free/total (MiB): 2536 / 13744 / 16280
------------------
     ethr =  1.05E-05,  avg # of iterations =  1.0

     negative rho (up, down):  1.560E-02 1.456E-02

     total cpu time spent up to now is      285.5 secs

     total energy              =    -654.57868801 Ry
     estimated scf accuracy    <       0.00161172 Ry

     total magnetization       =    12.15 Bohr mag/cell
     absolute magnetization    =    12.31 Bohr mag/cell
[tb_dev] Currently allocated     8.95E+00 Mbytes, locked:    0 /  13
[tb_pin] Currently allocated     0.00E+00 Mbytes, locked:    0 /   0

     iteration # 27     ecut=    50.00 Ry     beta= 0.40
     Davidson diagonalization with overlap

---- Real-time Memory Report at c_bands before calling an iterative solver
          3594 MiB given to the printing process from OS
         -1413 MiB allocation reported by mallinfo(arena+hblkhd)
         56224 MiB available memory on the node where the printing process lives
     GPU memory used/free/total (MiB): 2536 / 13744 / 16280
------------------
     ethr =  2.37E-06,  avg # of iterations =  1.0

     negative rho (up, down):  1.559E-02 1.458E-02

     total cpu time spent up to now is      295.5 secs

     total energy              =    -654.57877656 Ry
     estimated scf accuracy    <       0.00087228 Ry

     total magnetization       =    12.25 Bohr mag/cell
     absolute magnetization    =    12.41 Bohr mag/cell
[tb_dev] Currently allocated     8.95E+00 Mbytes, locked:    0 /  13
[tb_pin] Currently allocated     0.00E+00 Mbytes, locked:    0 /   0

     iteration # 28     ecut=    50.00 Ry     beta= 0.40
     Davidson diagonalization with overlap

---- Real-time Memory Report at c_bands before calling an iterative solver
          3609 MiB given to the printing process from OS
         -1402 MiB allocation reported by mallinfo(arena+hblkhd)
         56209 MiB available memory on the node where the printing process lives
     GPU memory used/free/total (MiB): 2536 / 13744 / 16280
------------------
     ethr =  1.28E-06,  avg # of iterations =  1.0

     negative rho (up, down):  1.557E-02 1.460E-02

     total cpu time spent up to now is      305.5 secs

     total energy              =    -654.57875569 Ry
     estimated scf accuracy    <       0.00069262 Ry

     total magnetization       =    12.24 Bohr mag/cell
     absolute magnetization    =    12.41 Bohr mag/cell
[tb_dev] Currently allocated     8.95E+00 Mbytes, locked:    0 /  13
[tb_pin] Currently allocated     0.00E+00 Mbytes, locked:    0 /   0

     iteration # 29     ecut=    50.00 Ry     beta= 0.40
     Davidson diagonalization with overlap

---- Real-time Memory Report at c_bands before calling an iterative solver
          3620 MiB given to the printing process from OS
         -1391 MiB allocation reported by mallinfo(arena+hblkhd)
         56202 MiB available memory on the node where the printing process lives
     GPU memory used/free/total (MiB): 2536 / 13744 / 16280
------------------
     ethr =  1.02E-06,  avg # of iterations =  1.0

     negative rho (up, down):  1.557E-02 1.460E-02

     total cpu time spent up to now is      315.5 secs

     total energy              =    -654.57878093 Ry
     estimated scf accuracy    <       0.00146263 Ry

     total magnetization       =    12.23 Bohr mag/cell
     absolute magnetization    =    12.39 Bohr mag/cell
[tb_dev] Currently allocated     8.95E+00 Mbytes, locked:    0 /  13
[tb_pin] Currently allocated     0.00E+00 Mbytes, locked:    0 /   0

     iteration # 30     ecut=    50.00 Ry     beta= 0.40
     Davidson diagonalization with overlap

---- Real-time Memory Report at c_bands before calling an iterative solver
          3631 MiB given to the printing process from OS
         -1380 MiB allocation reported by mallinfo(arena+hblkhd)
         56189 MiB available memory on the node where the printing process lives
     GPU memory used/free/total (MiB): 2536 / 13744 / 16280
------------------
     ethr =  1.02E-06,  avg # of iterations =  1.0

     negative rho (up, down):  1.557E-02 1.460E-02

     total cpu time spent up to now is      325.5 secs

     total energy              =    -654.57873592 Ry
     estimated scf accuracy    <       0.00161153 Ry

     total magnetization       =    12.22 Bohr mag/cell
     absolute magnetization    =    12.39 Bohr mag/cell
[tb_dev] Currently allocated     8.95E+00 Mbytes, locked:    0 /  13
[tb_pin] Currently allocated     0.00E+00 Mbytes, locked:    0 /   0

     iteration # 31     ecut=    50.00 Ry     beta= 0.40
     Davidson diagonalization with overlap

---- Real-time Memory Report at c_bands before calling an iterative solver
          3644 MiB given to the printing process from OS
         -1369 MiB allocation reported by mallinfo(arena+hblkhd)
         56181 MiB available memory on the node where the printing process lives
     GPU memory used/free/total (MiB): 2536 / 13744 / 16280
------------------
     ethr =  1.02E-06,  avg # of iterations =  1.0

     negative rho (up, down):  1.560E-02 1.454E-02

     total cpu time spent up to now is      335.5 secs

     total energy              =    -654.57786710 Ry
     estimated scf accuracy    <       0.00210323 Ry

     total magnetization       =    12.23 Bohr mag/cell
     absolute magnetization    =    12.40 Bohr mag/cell
[tb_dev] Currently allocated     8.95E+00 Mbytes, locked:    0 /  13
[tb_pin] Currently allocated     0.00E+00 Mbytes, locked:    0 /   0

     iteration # 32     ecut=    50.00 Ry     beta= 0.40
     Davidson diagonalization with overlap

---- Real-time Memory Report at c_bands before calling an iterative solver
          3656 MiB given to the printing process from OS
         -1358 MiB allocation reported by mallinfo(arena+hblkhd)
         56167 MiB available memory on the node where the printing process lives
     GPU memory used/free/total (MiB): 2536 / 13744 / 16280
------------------
     ethr =  1.02E-06,  avg # of iterations =  2.0

     negative rho (up, down):  1.561E-02 1.453E-02

     total cpu time spent up to now is      346.7 secs

     total energy              =    -654.57806297 Ry
     estimated scf accuracy    <       0.00115309 Ry

     total magnetization       =    12.48 Bohr mag/cell
     absolute magnetization    =    12.64 Bohr mag/cell
[tb_dev] Currently allocated     8.95E+00 Mbytes, locked:    0 /  13
[tb_pin] Currently allocated     0.00E+00 Mbytes, locked:    0 /   0

     iteration # 33     ecut=    50.00 Ry     beta= 0.40
     Davidson diagonalization with overlap

---- Real-time Memory Report at c_bands before calling an iterative solver
          3669 MiB given to the printing process from OS
         -1347 MiB allocation reported by mallinfo(arena+hblkhd)
         56160 MiB available memory on the node where the printing process lives
     GPU memory used/free/total (MiB): 2536 / 13744 / 16280
------------------
     ethr =  1.02E-06,  avg # of iterations =  1.0

     negative rho (up, down):  1.561E-02 1.452E-02

     total cpu time spent up to now is      356.7 secs

     total energy              =    -654.57762650 Ry
     estimated scf accuracy    <       0.00133204 Ry

     total magnetization       =    12.54 Bohr mag/cell
     absolute magnetization    =    12.70 Bohr mag/cell
[tb_dev] Currently allocated     8.95E+00 Mbytes, locked:    0 /  13
[tb_pin] Currently allocated     0.00E+00 Mbytes, locked:    0 /   0

     iteration # 34     ecut=    50.00 Ry     beta= 0.40
     Davidson diagonalization with overlap

---- Real-time Memory Report at c_bands before calling an iterative solver
          3679 MiB given to the printing process from OS
         -1336 MiB allocation reported by mallinfo(arena+hblkhd)
         56148 MiB available memory on the node where the printing process lives
     GPU memory used/free/total (MiB): 2536 / 13744 / 16280
------------------
     ethr =  1.02E-06,  avg # of iterations =  1.0

     negative rho (up, down):  1.559E-02 1.455E-02

     total cpu time spent up to now is      366.8 secs

     total energy              =    -654.57780175 Ry
     estimated scf accuracy    <       0.00170357 Ry

     total magnetization       =    12.66 Bohr mag/cell
     absolute magnetization    =    12.83 Bohr mag/cell
[tb_dev] Currently allocated     8.95E+00 Mbytes, locked:    0 /  13
[tb_pin] Currently allocated     0.00E+00 Mbytes, locked:    0 /   0

     iteration # 35     ecut=    50.00 Ry     beta= 0.40
     Davidson diagonalization with overlap

---- Real-time Memory Report at c_bands before calling an iterative solver
          3690 MiB given to the printing process from OS
         -1325 MiB allocation reported by mallinfo(arena+hblkhd)
         56141 MiB available memory on the node where the printing process lives
     GPU memory used/free/total (MiB): 2536 / 13744 / 16280
------------------
     ethr =  1.02E-06,  avg # of iterations =  2.0

     negative rho (up, down):  1.556E-02 1.460E-02

     total cpu time spent up to now is      378.8 secs

     total energy              =    -654.57840324 Ry
     estimated scf accuracy    <       0.00121267 Ry

     total magnetization       =    12.34 Bohr mag/cell
     absolute magnetization    =    12.50 Bohr mag/cell
[tb_dev] Currently allocated     8.95E+00 Mbytes, locked:    0 /  13
[tb_pin] Currently allocated     0.00E+00 Mbytes, locked:    0 /   0

     iteration # 36     ecut=    50.00 Ry     beta= 0.40
     Davidson diagonalization with overlap

---- Real-time Memory Report at c_bands before calling an iterative solver
          3703 MiB given to the printing process from OS
         -1314 MiB allocation reported by mallinfo(arena+hblkhd)
         56130 MiB available memory on the node where the printing process lives
     GPU memory used/free/total (MiB): 2536 / 13744 / 16280
------------------
     ethr =  1.02E-06,  avg # of iterations =  2.0

     negative rho (up, down):  1.570E-02 1.442E-02

     total cpu time spent up to now is      391.1 secs

     total energy              =    -654.55524293 Ry
     estimated scf accuracy    <       0.00509977 Ry

     total magnetization       =    11.84 Bohr mag/cell
     absolute magnetization    =    12.01 Bohr mag/cell
[tb_dev] Currently allocated     8.95E+00 Mbytes, locked:    0 /  13
[tb_pin] Currently allocated     0.00E+00 Mbytes, locked:    0 /   0

     iteration # 37     ecut=    50.00 Ry     beta= 0.40
     Davidson diagonalization with overlap

---- Real-time Memory Report at c_bands before calling an iterative solver
          3714 MiB given to the printing process from OS
         -1303 MiB allocation reported by mallinfo(arena+hblkhd)
         56122 MiB available memory on the node where the printing process lives
     GPU memory used/free/total (MiB): 2574 / 13706 / 16280
------------------
     ethr =  1.02E-06,  avg # of iterations =  3.5

     negative rho (up, down):  1.570E-02 1.443E-02

     total cpu time spent up to now is      407.7 secs

     total energy              =    -654.57447578 Ry
     estimated scf accuracy    <       0.03673879 Ry

     total magnetization       =    13.30 Bohr mag/cell
     absolute magnetization    =    13.47 Bohr mag/cell
[tb_dev] Currently allocated     8.95E+00 Mbytes, locked:    0 /  13
[tb_pin] Currently allocated     0.00E+00 Mbytes, locked:    0 /   0

     iteration # 38     ecut=    50.00 Ry     beta= 0.40
     Davidson diagonalization with overlap

---- Real-time Memory Report at c_bands before calling an iterative solver
          3729 MiB given to the printing process from OS
         -1291 MiB allocation reported by mallinfo(arena+hblkhd)
         56107 MiB available memory on the node where the printing process lives
     GPU memory used/free/total (MiB): 2574 / 13706 / 16280
------------------
     ethr =  1.02E-06,  avg # of iterations =  1.0

     negative rho (up, down):  1.571E-02 1.440E-02

     total cpu time spent up to now is      417.7 secs

     total energy              =    -654.57448036 Ry
     estimated scf accuracy    <       0.03751699 Ry

     total magnetization       =    13.32 Bohr mag/cell
     absolute magnetization    =    13.50 Bohr mag/cell
[tb_dev] Currently allocated     8.95E+00 Mbytes, locked:    0 /  13
[tb_pin] Currently allocated     0.00E+00 Mbytes, locked:    0 /   0

     iteration # 39     ecut=    50.00 Ry     beta= 0.40
     Davidson diagonalization with overlap

---- Real-time Memory Report at c_bands before calling an iterative solver
          3740 MiB given to the printing process from OS
         -1280 MiB allocation reported by mallinfo(arena+hblkhd)
         56099 MiB available memory on the node where the printing process lives
     GPU memory used/free/total (MiB): 2574 / 13706 / 16280
------------------
     ethr =  1.02E-06,  avg # of iterations =  1.0

     negative rho (up, down):  1.570E-02 1.441E-02

     total cpu time spent up to now is      427.7 secs

     total energy              =    -654.57480150 Ry
     estimated scf accuracy    <       0.04078416 Ry

     total magnetization       =    13.31 Bohr mag/cell
     absolute magnetization    =    13.49 Bohr mag/cell
[tb_dev] Currently allocated     8.95E+00 Mbytes, locked:    0 /  13
[tb_pin] Currently allocated     0.00E+00 Mbytes, locked:    0 /   0

     iteration # 40     ecut=    50.00 Ry     beta= 0.40
     Davidson diagonalization with overlap

---- Real-time Memory Report at c_bands before calling an iterative solver
          3752 MiB given to the printing process from OS
         -1266 MiB allocation reported by mallinfo(arena+hblkhd)
         56083 MiB available memory on the node where the printing process lives
     GPU memory used/free/total (MiB): 2574 / 13706 / 16280
------------------
     ethr =  1.02E-06,  avg # of iterations =  1.0

     negative rho (up, down):  1.571E-02 1.442E-02

     total cpu time spent up to now is      437.7 secs

     total energy              =    -654.57528426 Ry
     estimated scf accuracy    <       0.03847409 Ry

     total magnetization       =    13.24 Bohr mag/cell
     absolute magnetization    =    13.42 Bohr mag/cell
[tb_dev] Currently allocated     8.95E+00 Mbytes, locked:    0 /  13
[tb_pin] Currently allocated     0.00E+00 Mbytes, locked:    0 /   0

     iteration # 41     ecut=    50.00 Ry     beta= 0.40
     Davidson diagonalization with overlap

---- Real-time Memory Report at c_bands before calling an iterative solver
          3765 MiB given to the printing process from OS
         -1255 MiB allocation reported by mallinfo(arena+hblkhd)
         56074 MiB available memory on the node where the printing process lives
     GPU memory used/free/total (MiB): 2574 / 13706 / 16280
------------------
     ethr =  1.02E-06,  avg # of iterations =  1.5

     negative rho (up, down):  1.569E-02 1.443E-02

     total cpu time spent up to now is      448.6 secs

     total energy              =    -654.57581629 Ry
     estimated scf accuracy    <       0.02024638 Ry

     total magnetization       =    13.10 Bohr mag/cell
     absolute magnetization    =    13.28 Bohr mag/cell
[tb_dev] Currently allocated     8.95E+00 Mbytes, locked:    0 /  13
[tb_pin] Currently allocated     0.00E+00 Mbytes, locked:    0 /   0

     iteration # 42     ecut=    50.00 Ry     beta= 0.40
     Davidson diagonalization with overlap

---- Real-time Memory Report at c_bands before calling an iterative solver
          3776 MiB given to the printing process from OS
         -1244 MiB allocation reported by mallinfo(arena+hblkhd)
         56062 MiB available memory on the node where the printing process lives
     GPU memory used/free/total (MiB): 2574 / 13706 / 16280
------------------
     ethr =  1.02E-06,  avg # of iterations =  1.0

     negative rho (up, down):  1.568E-02 1.445E-02

     total cpu time spent up to now is      458.6 secs

     total energy              =    -654.57625592 Ry
     estimated scf accuracy    <       0.01966322 Ry

     total magnetization       =    13.07 Bohr mag/cell
     absolute magnetization    =    13.24 Bohr mag/cell
[tb_dev] Currently allocated     8.95E+00 Mbytes, locked:    0 /  13
[tb_pin] Currently allocated     0.00E+00 Mbytes, locked:    0 /   0

     iteration # 43     ecut=    50.00 Ry     beta= 0.40
     Davidson diagonalization with overlap

---- Real-time Memory Report at c_bands before calling an iterative solver
          3789 MiB given to the printing process from OS
         -1233 MiB allocation reported by mallinfo(arena+hblkhd)
         56053 MiB available memory on the node where the printing process lives
     GPU memory used/free/total (MiB): 2574 / 13706 / 16280
------------------
     ethr =  1.02E-06,  avg # of iterations =  1.3

     negative rho (up, down):  1.564E-02 1.447E-02

     total cpu time spent up to now is      468.9 secs

     total energy              =    -654.57618912 Ry
     estimated scf accuracy    <       0.01415559 Ry

     total magnetization       =    12.98 Bohr mag/cell
     absolute magnetization    =    13.15 Bohr mag/cell
[tb_dev] Currently allocated     8.95E+00 Mbytes, locked:    0 /  13
[tb_pin] Currently allocated     0.00E+00 Mbytes, locked:    0 /   0

     iteration # 44     ecut=    50.00 Ry     beta= 0.40
     Davidson diagonalization with overlap

---- Real-time Memory Report at c_bands before calling an iterative solver
          3800 MiB given to the printing process from OS
         -1222 MiB allocation reported by mallinfo(arena+hblkhd)
         56039 MiB available memory on the node where the printing process lives
     GPU memory used/free/total (MiB): 2574 / 13706 / 16280
------------------
     ethr =  1.02E-06,  avg # of iterations =  1.3

     negative rho (up, down):  1.532E-02 1.478E-02

     total cpu time spent up to now is      479.2 secs

     total energy              =    -654.53863902 Ry
     estimated scf accuracy    <       0.02034986 Ry

     total magnetization       =    12.95 Bohr mag/cell
     absolute magnetization    =    13.13 Bohr mag/cell
[tb_dev] Currently allocated     8.95E+00 Mbytes, locked:    0 /  13
[tb_pin] Currently allocated     0.00E+00 Mbytes, locked:    0 /   0

     iteration # 45     ecut=    50.00 Ry     beta= 0.40
     Davidson diagonalization with overlap

---- Real-time Memory Report at c_bands before calling an iterative solver
          3811 MiB given to the printing process from OS
         -1207 MiB allocation reported by mallinfo(arena+hblkhd)
         56027 MiB available memory on the node where the printing process lives
     GPU memory used/free/total (MiB): 2574 / 13706 / 16280
------------------
     ethr =  1.02E-06,  avg # of iterations =  4.5

     negative rho (up, down):  1.542E-02 1.465E-02

     total cpu time spent up to now is      498.3 secs

     total energy              =    -654.57045751 Ry
     estimated scf accuracy    <       0.13984428 Ry

     total magnetization       =    10.11 Bohr mag/cell
     absolute magnetization    =    10.33 Bohr mag/cell
[tb_dev] Currently allocated     8.95E+00 Mbytes, locked:    0 /  13
[tb_pin] Currently allocated     0.00E+00 Mbytes, locked:    0 /   0

     iteration # 46     ecut=    50.00 Ry     beta= 0.40
     Davidson diagonalization with overlap

---- Real-time Memory Report at c_bands before calling an iterative solver
          3824 MiB given to the printing process from OS
         -1196 MiB allocation reported by mallinfo(arena+hblkhd)
         56014 MiB available memory on the node where the printing process lives
     GPU memory used/free/total (MiB): 2616 / 13664 / 16280
------------------
     ethr =  1.02E-06,  avg # of iterations =  3.0

     negative rho (up, down):  1.535E-02 1.471E-02

     total cpu time spent up to now is      513.4 secs

     total energy              =    -654.58059053 Ry
     estimated scf accuracy    <       0.04911935 Ry

     total magnetization       =    11.38 Bohr mag/cell
     absolute magnetization    =    11.55 Bohr mag/cell
[tb_dev] Currently allocated     8.95E+00 Mbytes, locked:    0 /  13
[tb_pin] Currently allocated     0.00E+00 Mbytes, locked:    0 /   0

     iteration # 47     ecut=    50.00 Ry     beta= 0.40
     Davidson diagonalization with overlap

---- Real-time Memory Report at c_bands before calling an iterative solver
          3835 MiB given to the printing process from OS
         -1185 MiB allocation reported by mallinfo(arena+hblkhd)
         56005 MiB available memory on the node where the printing process lives
     GPU memory used/free/total (MiB): 2616 / 13664 / 16280
------------------
     ethr =  1.02E-06,  avg # of iterations =  2.0

     negative rho (up, down):  1.534E-02 1.474E-02

     total cpu time spent up to now is      525.3 secs

     total energy              =    -654.58201166 Ry
     estimated scf accuracy    <       0.08290038 Ry

     total magnetization       =    11.03 Bohr mag/cell
     absolute magnetization    =    11.21 Bohr mag/cell
[tb_dev] Currently allocated     8.95E+00 Mbytes, locked:    0 /  13
[tb_pin] Currently allocated     0.00E+00 Mbytes, locked:    0 /   0

     iteration # 48     ecut=    50.00 Ry     beta= 0.40
     Davidson diagonalization with overlap

---- Real-time Memory Report at c_bands before calling an iterative solver
[...]
     estimated scf accuracy    <       0.07474005 Ry

     total magnetization       =    13.42 Bohr mag/cell
     absolute magnetization    =    13.59 Bohr mag/cell
[tb_dev] Currently allocated     8.95E+00 Mbytes, locked:    0 /  13
[tb_pin] Currently allocated     0.00E+00 Mbytes, locked:    0 /   0

     iteration # 66     ecut=    50.00 Ry     beta= 0.40
     Davidson diagonalization with overlap

---- Real-time Memory Report at c_bands before calling an iterative solver
          4067 MiB given to the printing process from OS
          -954 MiB allocation reported by mallinfo(arena+hblkhd)
         55771 MiB available memory on the node where the printing process lives
     GPU memory used/free/total (MiB): 2616 / 13664 / 16280
------------------
     ethr =  1.02E-06,  avg # of iterations =  3.5

     negative rho (up, down):  1.547E-02 1.466E-02

     total cpu time spent up to now is      763.4 secs

     total energy              =    -654.57753189 Ry
     estimated scf accuracy    <       0.01098813 Ry

     total magnetization       =    12.38 Bohr mag/cell
     absolute magnetization    =    12.55 Bohr mag/cell
[tb_dev] Currently allocated     8.95E+00 Mbytes, locked:    0 /  13
[tb_pin] Currently allocated     0.00E+00 Mbytes, locked:    0 /   0

     iteration # 67     ecut=    50.00 Ry     beta= 0.40
     Davidson diagonalization with overlap

---- Real-time Memory Report at c_bands before calling an iterative solver
          4077 MiB given to the printing process from OS
          -943 MiB allocation reported by mallinfo(arena+hblkhd)
         55764 MiB available memory on the node where the printing process lives
     GPU memory used/free/total (MiB): 2616 / 13664 / 16280
------------------
     ethr =  1.02E-06,  avg # of iterations =  2.3

     negative rho (up, down):  1.542E-02 1.471E-02

     total cpu time spent up to now is      776.7 secs

     total energy              =    -654.57957398 Ry
     estimated scf accuracy    <       0.02039924 Ry

     total magnetization       =    11.74 Bohr mag/cell
     absolute magnetization    =    11.91 Bohr mag/cell
[tb_dev] Currently allocated     8.95E+00 Mbytes, locked:    0 /  13
[tb_pin] Currently allocated     0.00E+00 Mbytes, locked:    0 /   0

     iteration # 68     ecut=    50.00 Ry     beta= 0.40
     Davidson diagonalization with overlap

---- Real-time Memory Report at c_bands before calling an iterative solver
          4089 MiB given to the printing process from OS
          -932 MiB allocation reported by mallinfo(arena+hblkhd)
         55750 MiB available memory on the node where the printing process lives
     GPU memory used/free/total (MiB): 2616 / 13664 / 16280
------------------
     ethr =  1.02E-06,  avg # of iterations =  2.5

     negative rho (up, down):  1.558E-02 1.455E-02

     total cpu time spent up to now is      790.4 secs

     total energy              =    -654.55871562 Ry
     estimated scf accuracy    <       0.06084322 Ry

     total magnetization       =    10.96 Bohr mag/cell
     absolute magnetization    =    11.14 Bohr mag/cell
[tb_dev] Currently allocated     8.95E+00 Mbytes, locked:    0 /  13
[tb_pin] Currently allocated     0.00E+00 Mbytes, locked:    0 /   0

     iteration # 69     ecut=    50.00 Ry     beta= 0.40
     Davidson diagonalization with overlap

---- Real-time Memory Report at c_bands before calling an iterative solver
          4104 MiB given to the printing process from OS
          -919 MiB allocation reported by mallinfo(arena+hblkhd)
         55739 MiB available memory on the node where the printing process lives
     GPU memory used/free/total (MiB): 2616 / 13664 / 16280
------------------
     ethr =  1.02E-06,  avg # of iterations =  3.5

     negative rho (up, down):  1.562E-02 1.452E-02

     total cpu time spent up to now is      806.8 secs

     total energy              =    -654.57518730 Ry
     estimated scf accuracy    <       0.01623292 Ry

     total magnetization       =    12.75 Bohr mag/cell
     absolute magnetization    =    12.91 Bohr mag/cell
[tb_dev] Currently allocated     8.95E+00 Mbytes, locked:    0 /  13
[tb_pin] Currently allocated     0.00E+00 Mbytes, locked:    0 /   0

     iteration # 70     ecut=    50.00 Ry     beta= 0.40
     Davidson diagonalization with overlap

---- Real-time Memory Report at c_bands before calling an iterative solver
          4114 MiB given to the printing process from OS
          -905 MiB allocation reported by mallinfo(arena+hblkhd)
         55723 MiB available memory on the node where the printing process lives
     GPU memory used/free/total (MiB): 2616 / 13664 / 16280
------------------
     ethr =  1.02E-06,  avg # of iterations =  2.0

     negative rho (up, down):  1.562E-02 1.452E-02

     total cpu time spent up to now is      819.3 secs

     total energy              =    -654.57598611 Ry
     estimated scf accuracy    <       0.03246675 Ry

     total magnetization       =    12.99 Bohr mag/cell
     absolute magnetization    =    13.16 Bohr mag/cell
[tb_dev] Currently allocated     8.95E+00 Mbytes, locked:    0 /  13
[tb_pin] Currently allocated     0.00E+00 Mbytes, locked:    0 /   0

     iteration # 71     ecut=    50.00 Ry     beta= 0.40
     Davidson diagonalization with overlap

---- Real-time Memory Report at c_bands before calling an iterative solver
          4126 MiB given to the printing process from OS
          -894 MiB allocation reported by mallinfo(arena+hblkhd)
         55714 MiB available memory on the node where the printing process lives
     GPU memory used/free/total (MiB): 2616 / 13664 / 16280
------------------
     ethr =  1.02E-06,  avg # of iterations =  1.0

     negative rho (up, down):  1.564E-02 1.449E-02

     total cpu time spent up to now is      829.5 secs

     total energy              =    -654.57476390 Ry
     estimated scf accuracy    <       0.03284983 Ry

     total magnetization       =    13.00 Bohr mag/cell
     absolute magnetization    =    13.17 Bohr mag/cell
[tb_dev] Currently allocated     8.95E+00 Mbytes, locked:    0 /  13
[tb_pin] Currently allocated     0.00E+00 Mbytes, locked:    0 /   0

     iteration # 72     ecut=    50.00 Ry     beta= 0.40
     Davidson diagonalization with overlap

---- Real-time Memory Report at c_bands before calling an iterative solver
          4137 MiB given to the printing process from OS
          -882 MiB allocation reported by mallinfo(arena+hblkhd)
         55700 MiB available memory on the node where the printing process lives
     GPU memory used/free/total (MiB): 2616 / 13664 / 16280
------------------
     ethr =  1.02E-06,  avg # of iterations =  1.5

     negative rho (up, down):  1.564E-02 1.450E-02

     total cpu time spent up to now is      840.3 secs

     total energy              =    -654.57526965 Ry
     estimated scf accuracy    <       0.04541845 Ry

     total magnetization       =    13.16 Bohr mag/cell
     absolute magnetization    =    13.34 Bohr mag/cell
[tb_dev] Currently allocated     8.95E+00 Mbytes, locked:    0 /  13
[tb_pin] Currently allocated     0.00E+00 Mbytes, locked:    0 /   0

     iteration # 73     ecut=    50.00 Ry     beta= 0.40
     Davidson diagonalization with overlap

---- Real-time Memory Report at c_bands before calling an iterative solver
          4149 MiB given to the printing process from OS
          -871 MiB allocation reported by mallinfo(arena+hblkhd)
         55691 MiB available memory on the node where the printing process lives
     GPU memory used/free/total (MiB): 2616 / 13664 / 16280
------------------
     ethr =  1.02E-06,  avg # of iterations =  1.0

     negative rho (up, down):  1.566E-02 1.448E-02

     total cpu time spent up to now is      850.3 secs

     total energy              =    -654.57417525 Ry
     estimated scf accuracy    <       0.04249048 Ry

     total magnetization       =    13.12 Bohr mag/cell
     absolute magnetization    =    13.30 Bohr mag/cell
[tb_dev] Currently allocated     8.95E+00 Mbytes, locked:    0 /  13
[tb_pin] Currently allocated     0.00E+00 Mbytes, locked:    0 /   0

     iteration # 74     ecut=    50.00 Ry     beta= 0.40
     Davidson diagonalization with overlap

---- Real-time Memory Report at c_bands before calling an iterative solver
          4163 MiB given to the printing process from OS
          -859 MiB allocation reported by mallinfo(arena+hblkhd)
         55676 MiB available memory on the node where the printing process lives
     GPU memory used/free/total (MiB): 2616 / 13664 / 16280
------------------
     ethr =  1.02E-06,  avg # of iterations =  1.5

     negative rho (up, down):  1.566E-02 1.447E-02

     total cpu time spent up to now is      860.9 secs

     total energy              =    -654.57415853 Ry
     estimated scf accuracy    <       0.05552745 Ry

     total magnetization       =    13.27 Bohr mag/cell
     absolute magnetization    =    13.45 Bohr mag/cell
[tb_dev] Currently allocated     8.95E+00 Mbytes, locked:    0 /  13
[tb_pin] Currently allocated     0.00E+00 Mbytes, locked:    0 /   0

     iteration # 75     ecut=    50.00 Ry     beta= 0.40
     Davidson diagonalization with overlap

---- Real-time Memory Report at c_bands before calling an iterative solver
          4174 MiB given to the printing process from OS
          -844 MiB allocation reported by mallinfo(arena+hblkhd)
         55663 MiB available memory on the node where the printing process lives
     GPU memory used/free/total (MiB): 2616 / 13664 / 16280
------------------
     ethr =  1.02E-06,  avg # of iterations =  1.0

     negative rho (up, down):  1.568E-02 1.446E-02

     total cpu time spent up to now is      871.0 secs

     total energy              =    -654.57337488 Ry
     estimated scf accuracy    <       0.05929021 Ry

     total magnetization       =    13.31 Bohr mag/cell
     absolute magnetization    =    13.49 Bohr mag/cell
[tb_dev] Currently allocated     8.95E+00 Mbytes, locked:    0 /  13
[tb_pin] Currently allocated     0.00E+00 Mbytes, locked:    0 /   0

     iteration # 76     ecut=    50.00 Ry     beta= 0.40
     Davidson diagonalization with overlap

---- Real-time Memory Report at c_bands before calling an iterative solver
          4187 MiB given to the printing process from OS
          -833 MiB allocation reported by mallinfo(arena+hblkhd)
         55650 MiB available memory on the node where the printing process lives
     GPU memory used/free/total (MiB): 2616 / 13664 / 16280
------------------
     ethr =  1.02E-06,  avg # of iterations =  1.0

     negative rho (up, down):  1.589E-02 1.427E-02

     total cpu time spent up to now is      880.9 secs

     total energy              =    -654.54036306 Ry
     estimated scf accuracy    <       0.06983519 Ry

     total magnetization       =    13.43 Bohr mag/cell
     absolute magnetization    =    13.60 Bohr mag/cell
[tb_dev] Currently allocated     8.95E+00 Mbytes, locked:    0 /  13
[tb_pin] Currently allocated     0.00E+00 Mbytes, locked:    0 /   0

     iteration # 77     ecut=    50.00 Ry     beta= 0.40
     Davidson diagonalization with overlap

---- Real-time Memory Report at c_bands before calling an iterative solver
          4199 MiB given to the printing process from OS
          -822 MiB allocation reported by mallinfo(arena+hblkhd)
         55641 MiB available memory on the node where the printing process lives
     GPU memory used/free/total (MiB): 2616 / 13664 / 16280
------------------
     ethr =  1.02E-06,  avg # of iterations =  3.5

     negative rho (up, down):  1.548E-02 1.465E-02

     total cpu time spent up to now is      897.8 secs

     total energy              =    -654.51135767 Ry
     estimated scf accuracy    <       0.55714722 Ry

     total magnetization       =    14.05 Bohr mag/cell
     absolute magnetization    =    14.26 Bohr mag/cell
[tb_dev] Currently allocated     8.95E+00 Mbytes, locked:    0 /  13
[tb_pin] Currently allocated     0.00E+00 Mbytes, locked:    0 /   0

     iteration # 78     ecut=    50.00 Ry     beta= 0.40
     Davidson diagonalization with overlap

---- Real-time Memory Report at c_bands before calling an iterative solver
          4210 MiB given to the printing process from OS
          -811 MiB allocation reported by mallinfo(arena+hblkhd)
         55629 MiB available memory on the node where the printing process lives
     GPU memory used/free/total (MiB): 2616 / 13664 / 16280
------------------
     ethr =  1.02E-06,  avg # of iterations =  5.1

     negative rho (up, down):  1.539E-02 1.475E-02

     total cpu time spent up to now is      918.5 secs

     total energy              =    -654.57687317 Ry
     estimated scf accuracy    <       0.01903142 Ry

     total magnetization       =    11.88 Bohr mag/cell
     absolute magnetization    =    12.04 Bohr mag/cell
[tb_dev] Currently allocated     8.95E+00 Mbytes, locked:    0 /  13
[tb_pin] Currently allocated     0.00E+00 Mbytes, locked:    0 /   0

     iteration # 79     ecut=    50.00 Ry     beta= 0.40
     Davidson diagonalization with overlap

---- Real-time Memory Report at c_bands before calling an iterative solver
          4225 MiB given to the printing process from OS
          -798 MiB allocation reported by mallinfo(arena+hblkhd)
         55618 MiB available memory on the node where the printing process lives
     GPU memory used/free/total (MiB): 2616 / 13664 / 16280
------------------
     ethr =  1.02E-06,  avg # of iterations =  3.0

     negative rho (up, down):  1.580E-02 1.435E-02

     total cpu time spent up to now is      933.4 secs

     total energy              =    -654.47575041 Ry
     estimated scf accuracy    <       0.09659118 Ry

     total magnetization       =    10.64 Bohr mag/cell
     absolute magnetization    =    10.83 Bohr mag/cell
[tb_dev] Currently allocated     8.95E+00 Mbytes, locked:    0 /  13
[tb_pin] Currently allocated     0.00E+00 Mbytes, locked:    0 /   0

     iteration # 80     ecut=    50.00 Ry     beta= 0.40
     Davidson diagonalization with overlap

---- Real-time Memory Report at c_bands before calling an iterative solver
          4235 MiB given to the printing process from OS
          -784 MiB allocation reported by mallinfo(arena+hblkhd)
         55600 MiB available memory on the node where the printing process lives
     GPU memory used/free/total (MiB): 2616 / 13664 / 16280
------------------
     ethr =  1.02E-06,  avg # of iterations =  4.8

     negative rho (up, down):  1.566E-02 1.447E-02

     total cpu time spent up to now is      953.5 secs

     total energy              =    -654.56714157 Ry
     estimated scf accuracy    <       0.16831958 Ry

     total magnetization       =    14.00 Bohr mag/cell
     absolute magnetization    =    14.18 Bohr mag/cell

     End of self-consistent calculation

     convergence NOT achieved after  80 iterations: stopping

     Writing config to output data dir ./out/aiida.save/
 
     init_run     :     29.45s CPU     10.50s WALL (       1 calls)
     electrons    :   1445.65s CPU    942.21s WALL (       1 calls)

     Called by init_run:
     wfcinit      :      5.60s CPU      7.13s WALL (       1 calls)
                                        7.13s GPU  (       1 calls)
     wfcinit:atom :      0.10s CPU      0.12s WALL (     300 calls)
                                        0.11s GPU  (     300 calls)
     wfcinit:wfcr :      3.14s CPU      3.96s WALL (     300 calls)
                                        3.96s GPU  (     300 calls)
     potinit      :     10.66s CPU      1.00s WALL (       1 calls)
     hinit0       :      7.45s CPU      1.51s WALL (       1 calls)

     Called by electrons:
     c_bands      :    787.02s CPU    745.26s WALL (      80 calls)
     sum_band     :    132.36s CPU    147.68s WALL (      80 calls)
     v_of_rho     :     30.80s CPU      2.78s WALL (      81 calls)
     v_h          :      4.34s CPU      0.38s WALL (      81 calls)
     v_xc         :     26.45s CPU      2.39s WALL (      81 calls)
     newd         :     56.29s CPU      5.49s WALL (      81 calls)
                                        5.48s GPU  (      81 calls)
     PAW_pot      :    402.55s CPU     37.49s WALL (      81 calls)
     mix_rho      :     34.92s CPU      3.57s WALL (      80 calls)

     Called by c_bands:
     init_us_2    :     57.79s CPU     60.80s WALL (   48300 calls)
     init_us_2:gp :     56.93s CPU     60.00s WALL (   48300 calls)
     cegterg      :    660.31s CPU    624.96s WALL (   24000 calls)

     Called by sum_band:
     sum_band:wei :      1.11s CPU      1.12s WALL (      80 calls)
                                        1.12s GPU  (      80 calls)
     sum_band:loo :    124.28s CPU    139.39s WALL (      80 calls)
                                      139.39s GPU  (      80 calls)
     sum_band:buf :     35.10s CPU     37.08s WALL (   24000 calls)
                                       36.94s GPU  (   24000 calls)
     sum_band:ini :     25.56s CPU     29.99s WALL (   24000 calls)
                                       29.85s GPU  (   24000 calls)
     sum_band:cal :      0.61s CPU      6.20s WALL (   24000 calls)
                                        5.20s GPU  (   24000 calls)
     sum_band:bec :      6.01s CPU      6.66s WALL (   24000 calls)
                                        6.50s GPU  (   24000 calls)
     addusdens    :      4.99s CPU      5.18s WALL (      80 calls)
                                        5.17s GPU  (      80 calls)
     addusd:skk   :      0.03s CPU      0.03s WALL (     240 calls)
                                        0.03s GPU  (     240 calls)

     Called by *egterg:
     cdiaghg      :    202.60s CPU    207.06s WALL (   66355 calls)
                                      206.61s GPU  (   66355 calls)
     cegterg:over :     13.75s CPU     12.79s WALL (   42355 calls)
     cegterg:upda :     23.29s CPU     22.32s WALL (   42355 calls)
     cegterg:last :      9.92s CPU      9.25s WALL (   39398 calls)
     h_psi        :    362.67s CPU    331.35s WALL (   66655 calls)
                                      330.57s GPU  (   66655 calls)
     s_psi        :      9.69s CPU     18.59s WALL (   66655 calls)
                                       17.09s GPU  (   66655 calls)
     g_psi        :      0.32s CPU      1.92s WALL (   42355 calls)
                                        1.64s GPU  (   42355 calls)

     Called by h_psi:
     h_psi:calbec :      2.30s CPU     14.52s WALL (   66655 calls)
                                       14.08s GPU  (   66655 calls)
     vloc_psi     :    315.65s CPU    289.04s WALL (   66655 calls)
                                      288.62s GPU  (   66655 calls)
     add_vuspsi   :     15.95s CPU     22.20s WALL (   66655 calls)
                                       21.76s GPU  (   66655 calls)

     General routines
     calbec       :      2.05s CPU      1.98s WALL (   90655 calls)
     fft          :      2.77s CPU      0.60s WALL (    2023 calls)
                                        0.51s GPU  (    1861 calls)
     ffts         :      0.14s CPU      0.04s WALL (     322 calls)
                                        0.01s GPU  (     160 calls)
     fftw         :      8.84s CPU    230.01s WALL (  423730 calls)
                                      227.68s GPU  (  423730 calls)
     interpolate  :      3.98s CPU      0.35s WALL (     162 calls)
     davcio       :      0.71s CPU      0.96s WALL (     318 calls)
 
     Parallel routines

     PAW routines
     PAW_pot      :    402.55s CPU     37.49s WALL (      81 calls)
     PAW_symme    :      0.05s CPU      0.01s WALL (     161 calls)
 
     PWSCF        :  24m38.76s CPU  15m54.71s WALL

 
   This run was terminated on:  21:54: 7  23Oct2023            

=------------------------------------------------------------------------------=
   JOB DONE.
=------------------------------------------------------------------------------=
