
     Program PWSCF v.7.2 starts on 22Oct2023 at 23:50:43 

     This program is part of the open-source Quantum ESPRESSO suite
     for quantum simulation of materials; please cite
         "P. Giannozzi et al., J. Phys.:Condens. Matter 21 395502 (2009);
         "P. Giannozzi et al., J. Phys.:Condens. Matter 29 465901 (2017);
         "P. Giannozzi et al., J. Chem. Phys. 152 154105 (2020);
          URL http://www.quantum-espresso.org", 
     in publications or presentations arising from this work. More details at
     http://www.quantum-espresso.org/quote

     Parallel version (MPI & OpenMP), running on      12 processor cores
     Number of MPI processes:                 1
     Threads/MPI process:                    12

     MPI processes distributed on     1 nodes
     60369 MiB available memory on the printing compute node when the environment starts
 
     Reading input from aiida.in

     Current dimensions of program PWSCF are:
     Max number of different atomic species (ntypx) = 10
     Max number of k-points (npk) =  40000
     Max angular momentum in pseudopotentials (lmaxx) =  4
     file O.pbesol-n-kjpaw_psl.0.1.UPF: wavefunction(s)  2P renormalized
     Message from routine setup:
     using ibrav=0 with symmetry is DISCOURAGED, use correct ibrav instead
 
     Subspace diagonalization in iterative solution of the eigenvalue problem:
     a serial algorithm will be used

 
     G-vector sticks info
     --------------------
     sticks:   dense  smooth     PW     G-vecs:    dense   smooth      PW
     Sum        5841    2921    821               259655    91809   13607
 
     Using Slab Decomposition
 


     bravais-lattice index     =            0
     lattice parameter (alat)  =      13.9084  a.u.
     unit-cell volume          =    1462.0353 (a.u.)^3
     number of atoms/cell      =           15
     number of atomic types    =            4
     number of electrons       =       100.00
     number of Kohn-Sham states=           60
     kinetic-energy cutoff     =      60.0000  Ry
     charge density cutoff     =     480.0000  Ry
     scf convergence threshold =      3.0E-09
     mixing beta               =       0.4000
     number of iterations used =            8  plain     mixing
     Exchange-correlation= SLA  PW   PSX  PSC
                           (   1   4  10   8   0   0   0)

     GPU acceleration is ACTIVE.


     GPU used by master process:

        Device Number: 0
        Device name: Tesla P100-PCIE-16GB
        Compute capability : 60
        Ratio of single to double precision performance  : 2
        Memory Clock Rate (KHz): 715000
        Memory Bus Width (bits): 4096
        Peak Memory Bandwidth (GB/s): 732.16

     celldm(1)=  13.908384  celldm(2)=   0.000000  celldm(3)=   0.000000
     celldm(4)=   0.000000  celldm(5)=   0.000000  celldm(6)=   0.000000

     crystal axes: (cart. coord. in units of alat)
               a(1) = (   0.270600  -0.001118   0.962691 )  
               a(2) = (   0.133235   0.779456   0.000000 )  
               a(3) = (  -0.724185   0.000000   0.000000 )  

     reciprocal axes: (cart. coord. in units 2 pi/alat)
               b(1) = (  0.000000 -0.000000  1.038755 )  
               b(2) = (  0.000000  1.282946  0.001490 )  
               b(3) = ( -1.380863  0.236035  0.388417 )  


     PseudoPot. # 1 for N  read from file:
     ./pseudo/N.pbesol-theos.UPF
     MD5 check sum: 1b64827339d390a5a22afef3ff345c9d
     Pseudo is Ultrasoft + core correction, Zval =  5.0
     Generated using "atomic" code by A. Dal Corso  v.5.1
     Using radial grid of 1085 points,  4 beta functions with: 
                l(1) =   0
                l(2) =   0
                l(3) =   1
                l(4) =   1
     Q(r) pseudized with 0 coefficients 


     PseudoPot. # 2 for O  read from file:
     ./pseudo/O.pbesol-n-kjpaw_psl.0.1.UPF
     MD5 check sum: 81d73d1479e654e5638b0319f0d6c2c7
     Pseudo is Projector augmented-wave + core cor, Zval =  6.0
     Generated using "atomic" code by A. Dal Corso  v.6.0 svn rev. 13079
     Shape of augmentation charge: BESSEL
     Using radial grid of 1095 points,  4 beta functions with: 
                l(1) =   0
                l(2) =   0
                l(3) =   1
                l(4) =   1
     Q(r) pseudized with 0 coefficients 


     PseudoPot. # 3 for S  read from file:
     ./pseudo/s_pbesol_v1.4.uspp.F.UPF
     MD5 check sum: 0ccfa86ec6eb59065d10aaae963ef2a7
     Pseudo is Ultrasoft + core correction, Zval =  6.0
     Generated by new atomic code, or converted to UPF format
     Using radial grid of  907 points,  6 beta functions with: 
                l(1) =   0
                l(2) =   0
                l(3) =   1
                l(4) =   1
                l(5) =   2
                l(6) =   2
     Q(r) pseudized with  8 coefficients,  rinner =    1.300   1.300   1.300
                                                       1.300   1.300

     PseudoPot. # 4 for Zn read from file:
     ./pseudo/zn_pbesol_v1.uspp.F.UPF
     MD5 check sum: 7d8615e52efe7c1e2b1899de8658bae2
     Pseudo is Ultrasoft, Zval = 20.0
     Generated by new atomic code, or converted to UPF format
     Using radial grid of  943 points,  6 beta functions with: 
                l(1) =   0
                l(2) =   0
                l(3) =   1
                l(4) =   1
                l(5) =   2
                l(6) =   2
     Q(r) pseudized with  8 coefficients,  rinner =    1.100   1.100   1.100
                                                       1.100   1.100

     atomic species   valence    mass     pseudopotential
        N              5.00    14.00670     N ( 1.00)
        O              6.00    15.99940     O ( 1.00)
        S              6.00    32.06500     S ( 1.00)
        Zn            20.00    65.38000     Zn( 1.00)

     Starting magnetic structure 
     atomic species   magnetization
        N            0.100
        O            0.100
        S            0.100
        Zn           0.100

      2 Sym. Ops., with inversion, found


                                    s                        frac. trans.

      isym =  1     identity                                     

 cryst.   s( 1) = (     1          0          0      )
                  (     0          1          0      )
                  (     0          0          1      )

 cart.    s( 1) = (  1.0000000  0.0000000  0.0000000 )
                  (  0.0000000  1.0000000  0.0000000 )
                  (  0.0000000  0.0000000  1.0000000 )


      isym =  2     inversion                                    

 cryst.   s( 2) = (    -1          0          0      )
                  (     0         -1          0      )
                  (     0          0         -1      )

 cart.    s( 2) = ( -1.0000000 -0.0000000 -0.0000000 )
                  (  0.0000000 -1.0000000 -0.0000000 )
                  (  0.0000000  0.0000000 -1.0000000 )


   Cartesian axes

     site n.     atom                  positions (alat units)
         1           Zn  tau(   1) = (   0.0000000   0.0000000   0.0000000  )
         2           S   tau(   2) = (   0.7689836   0.5860525   0.7557125  )
         3           S   tau(   3) = (   0.3590365   0.1922852   0.2069786  )
         4           N   tau(   4) = (   0.8743559   0.6451020   0.2474116  )
         5           N   tau(   5) = (   0.2536641   0.1332357   0.7152795  )
         6           N   tau(   6) = (   0.7040876   0.5234722   0.2772550  )
         7           N   tau(   7) = (   0.4239324   0.2548654   0.6854361  )
         8           O   tau(   8) = (   0.9105853   0.5555139   0.8760489  )
         9           O   tau(   9) = (   0.2174347   0.2228237   0.0866422  )
        10           O   tau(  10) = (   0.8230491   0.7397417   0.6382642  )
        11           O   tau(  11) = (   0.3049709   0.0385960   0.3244269  )
        12           O   tau(  12) = (   0.7077993   0.4287500   0.6286373  )
        13           O   tau(  13) = (   0.4202208   0.3495876   0.3340538  )
        14           O   tau(  14) = (   0.6234755   0.6124019   0.8866385  )
        15           O   tau(  15) = (   0.5045445   0.1659357   0.0760526  )

   Crystallographic axes

     site n.     atom                  positions (cryst. coord.)
         1           Zn  tau(   1) = (  0.0000000  0.0000000  0.0000000  )
         2           S   tau(   2) = (  0.7850000  0.7530000 -0.6300000  )
         3           S   tau(   3) = (  0.2150000  0.2470000 -0.3700000  )
         4           N   tau(   4) = (  0.2570000  0.8280000 -0.9590000  )
         5           N   tau(   5) = (  0.7430000  0.1720000 -0.0410000  )
         6           N   tau(   6) = (  0.2880000  0.6720000 -0.7410000  )
         7           N   tau(   7) = (  0.7120000  0.3280000 -0.2590000  )
         8           O   tau(   8) = (  0.9100000  0.7140000 -0.7860000  )
         9           O   tau(   9) = (  0.0900000  0.2860000 -0.2140000  )
        10           O   tau(  10) = (  0.6630000  0.9500000 -0.7140000  )
        11           O   tau(  11) = (  0.3370000  0.0500000 -0.2860000  )
        12           O   tau(  12) = (  0.6530000  0.5510000 -0.6320000  )
        13           O   tau(  13) = (  0.3470000  0.4490000 -0.3680000  )
        14           O   tau(  14) = (  0.9210000  0.7870000 -0.3720000  )
        15           O   tau(  15) = (  0.0790000  0.2130000 -0.6280000  )

     number of k points=   218  Marzari-Vanderbilt smearing, width (Ry)=  0.0100
                       cart. coord. in units 2pi/alat
        k(    1) = (   0.0000000   0.0000000   0.0000000), wk =   0.0023148
        k(    2) = (  -0.1534292   0.0262261   0.0431575), wk =   0.0046296
        k(    3) = (  -0.3068585   0.0524523   0.0863150), wk =   0.0046296
        k(    4) = (  -0.4602877   0.0786784   0.1294725), wk =   0.0046296
        k(    5) = (  -0.6137169   0.1049046   0.1726300), wk =   0.0046296
        k(    6) = (   0.0000000   0.1603683   0.0001863), wk =   0.0046296
        k(    7) = (  -0.1534292   0.1865944   0.0433438), wk =   0.0046296
        k(    8) = (  -0.3068585   0.2128206   0.0865013), wk =   0.0046296
        k(    9) = (  -0.4602877   0.2390467   0.1296588), wk =   0.0046296
        k(   10) = (  -0.6137169   0.2652729   0.1728162), wk =   0.0046296
        k(   11) = (   0.6137169   0.0554638  -0.1724437), wk =   0.0046296
        k(   12) = (   0.4602877   0.0816899  -0.1292862), wk =   0.0046296
        k(   13) = (   0.3068585   0.1079160  -0.0861287), wk =   0.0046296
        k(   14) = (   0.1534292   0.1341422  -0.0429712), wk =   0.0046296
        k(   15) = (   0.0000000   0.3207366   0.0003725), wk =   0.0046296
        k(   16) = (  -0.1534292   0.3469628   0.0435300), wk =   0.0046296
        k(   17) = (  -0.3068585   0.3731889   0.0866875), wk =   0.0046296
        k(   18) = (  -0.4602877   0.3994150   0.1298450), wk =   0.0046296
        k(   19) = (  -0.6137169   0.4256412   0.1730025), wk =   0.0046296
        k(   20) = (   0.6137169   0.2158321  -0.1722575), wk =   0.0046296
        k(   21) = (   0.4602877   0.2420582  -0.1291000), wk =   0.0046296
        k(   22) = (   0.3068585   0.2682843  -0.0859425), wk =   0.0046296
        k(   23) = (   0.1534292   0.2945105  -0.0427850), wk =   0.0046296
        k(   24) = (   0.0000000   0.4811049   0.0005588), wk =   0.0046296
        k(   25) = (  -0.1534292   0.5073311   0.0437163), wk =   0.0046296
        k(   26) = (  -0.3068585   0.5335572   0.0868738), wk =   0.0046296
        k(   27) = (  -0.4602877   0.5597833   0.1300313), wk =   0.0046296
        k(   28) = (  -0.6137169   0.5860095   0.1731888), wk =   0.0046296
        k(   29) = (   0.6137169   0.3762004  -0.1720712), wk =   0.0046296
        k(   30) = (   0.4602877   0.4024265  -0.1289137), wk =   0.0046296
        k(   31) = (   0.3068585   0.4286527  -0.0857562), wk =   0.0046296
        k(   32) = (   0.1534292   0.4548788  -0.0425987), wk =   0.0046296
        k(   33) = (   0.0000000  -0.6414732  -0.0007450), wk =   0.0023148
        k(   34) = (  -0.1534292  -0.6152471   0.0424125), wk =   0.0046296
        k(   35) = (  -0.3068585  -0.5890210   0.0855700), wk =   0.0046296
        k(   36) = (  -0.4602877  -0.5627948   0.1287275), wk =   0.0046296
        k(   37) = (  -0.6137169  -0.5365687   0.1718850), wk =   0.0046296
        k(   38) = (   0.0000000   0.0000000   0.1731258), wk =   0.0046296
        k(   39) = (  -0.1534292   0.0262261   0.2162833), wk =   0.0046296
        k(   40) = (  -0.3068585   0.0524523   0.2594408), wk =   0.0046296
        k(   41) = (  -0.4602877   0.0786784   0.3025983), wk =   0.0046296
        k(   42) = (  -0.6137169   0.1049046   0.3457558), wk =   0.0046296
        k(   43) = (   0.6137169  -0.1049046   0.0004958), wk =   0.0046296
        k(   44) = (   0.4602877  -0.0786784   0.0436533), wk =   0.0046296
        k(   45) = (   0.3068585  -0.0524523   0.0868108), wk =   0.0046296
        k(   46) = (   0.1534292  -0.0262261   0.1299683), wk =   0.0046296
        k(   47) = (   0.0000000   0.1603683   0.1733121), wk =   0.0046296
        k(   48) = (  -0.1534292   0.1865944   0.2164696), wk =   0.0046296
        k(   49) = (  -0.3068585   0.2128206   0.2596271), wk =   0.0046296
        k(   50) = (  -0.4602877   0.2390467   0.3027846), wk =   0.0046296
        k(   51) = (  -0.6137169   0.2652729   0.3459421), wk =   0.0046296
        k(   52) = (   0.6137169   0.0554638   0.0006821), wk =   0.0046296
        k(   53) = (   0.4602877   0.0816899   0.0438396), wk =   0.0046296
        k(   54) = (   0.3068585   0.1079160   0.0869971), wk =   0.0046296
        k(   55) = (   0.1534292   0.1341422   0.1301546), wk =   0.0046296
        k(   56) = (   0.0000000   0.3207366   0.1734983), wk =   0.0046296
        k(   57) = (  -0.1534292   0.3469628   0.2166558), wk =   0.0046296
        k(   58) = (  -0.3068585   0.3731889   0.2598133), wk =   0.0046296
        k(   59) = (  -0.4602877   0.3994150   0.3029708), wk =   0.0046296
        k(   60) = (  -0.6137169   0.4256412   0.3461283), wk =   0.0046296
        k(   61) = (   0.6137169   0.2158321   0.0008683), wk =   0.0046296
        k(   62) = (   0.4602877   0.2420582   0.0440258), wk =   0.0046296
        k(   63) = (   0.3068585   0.2682843   0.0871833), wk =   0.0046296
        k(   64) = (   0.1534292   0.2945105   0.1303408), wk =   0.0046296
        k(   65) = (   0.0000000   0.4811049   0.1736846), wk =   0.0046296
        k(   66) = (  -0.1534292   0.5073311   0.2168421), wk =   0.0046296
        k(   67) = (  -0.3068585   0.5335572   0.2599996), wk =   0.0046296
        k(   68) = (  -0.4602877   0.5597833   0.3031571), wk =   0.0046296
        k(   69) = (  -0.6137169   0.5860095   0.3463146), wk =   0.0046296
        k(   70) = (   0.6137169   0.3762004   0.0010546), wk =   0.0046296
        k(   71) = (   0.4602877   0.4024265   0.0442121), wk =   0.0046296
        k(   72) = (   0.3068585   0.4286527   0.0873696), wk =   0.0046296
        k(   73) = (   0.1534292   0.4548788   0.1305271), wk =   0.0046296
        k(   74) = (   0.0000000  -0.6414732   0.1723808), wk =   0.0046296
        k(   75) = (  -0.1534292  -0.6152471   0.2155383), wk =   0.0046296
        k(   76) = (  -0.3068585  -0.5890210   0.2586958), wk =   0.0046296
        k(   77) = (  -0.4602877  -0.5627948   0.3018533), wk =   0.0046296
        k(   78) = (  -0.6137169  -0.5365687   0.3450108), wk =   0.0046296
        k(   79) = (   0.6137169  -0.7463778  -0.0002492), wk =   0.0046296
        k(   80) = (   0.4602877  -0.7201517   0.0429083), wk =   0.0046296
        k(   81) = (   0.3068585  -0.6939255   0.0860658), wk =   0.0046296
        k(   82) = (   0.1534292  -0.6676994   0.1292233), wk =   0.0046296
        k(   83) = (   0.0000000  -0.4811049   0.1725670), wk =   0.0046296
        k(   84) = (  -0.1534292  -0.4548788   0.2157245), wk =   0.0046296
        k(   85) = (  -0.3068585  -0.4286527   0.2588820), wk =   0.0046296
        k(   86) = (  -0.4602877  -0.4024265   0.3020395), wk =   0.0046296
        k(   87) = (  -0.6137169  -0.3762004   0.3451970), wk =   0.0046296
        k(   88) = (   0.6137169  -0.5860095  -0.0000630), wk =   0.0046296
        k(   89) = (   0.4602877  -0.5597833   0.0430945), wk =   0.0046296
        k(   90) = (   0.3068585  -0.5335572   0.0862520), wk =   0.0046296
        k(   91) = (   0.1534292  -0.5073311   0.1294095), wk =   0.0046296
        k(   92) = (   0.0000000  -0.3207366   0.1727533), wk =   0.0046296
        k(   93) = (  -0.1534292  -0.2945105   0.2159108), wk =   0.0046296
        k(   94) = (  -0.3068585  -0.2682843   0.2590683), wk =   0.0046296
        k(   95) = (  -0.4602877  -0.2420582   0.3022258), wk =   0.0046296
        k(   96) = (  -0.6137169  -0.2158321   0.3453833), wk =   0.0046296
        k(   97) = (   0.6137169  -0.4256412   0.0001233), wk =   0.0046296
        k(   98) = (   0.4602877  -0.3994150   0.0432808), wk =   0.0046296
        k(   99) = (   0.3068585  -0.3731889   0.0864383), wk =   0.0046296
        k(  100) = (   0.1534292  -0.3469628   0.1295958), wk =   0.0046296
        k(  101) = (   0.0000000  -0.1603683   0.1729395), wk =   0.0046296
        k(  102) = (  -0.1534292  -0.1341422   0.2160970), wk =   0.0046296
        k(  103) = (  -0.3068585  -0.1079160   0.2592545), wk =   0.0046296
        k(  104) = (  -0.4602877  -0.0816899   0.3024120), wk =   0.0046296
        k(  105) = (  -0.6137169  -0.0554638   0.3455695), wk =   0.0046296
        k(  106) = (   0.6137169  -0.2652729   0.0003096), wk =   0.0046296
        k(  107) = (   0.4602877  -0.2390467   0.0434670), wk =   0.0046296
        k(  108) = (   0.3068585  -0.2128206   0.0866245), wk =   0.0046296
        k(  109) = (   0.1534292  -0.1865944   0.1297820), wk =   0.0046296
        k(  110) = (   0.0000000   0.0000000   0.3462516), wk =   0.0046296
        k(  111) = (  -0.1534292   0.0262261   0.3894091), wk =   0.0046296
        k(  112) = (  -0.3068585   0.0524523   0.4325666), wk =   0.0046296
        k(  113) = (  -0.4602877   0.0786784   0.4757241), wk =   0.0046296
        k(  114) = (  -0.6137169   0.1049046   0.5188816), wk =   0.0046296
        k(  115) = (   0.6137169  -0.1049046   0.1736216), wk =   0.0046296
        k(  116) = (   0.4602877  -0.0786784   0.2167791), wk =   0.0046296
        k(  117) = (   0.3068585  -0.0524523   0.2599366), wk =   0.0046296
        k(  118) = (   0.1534292  -0.0262261   0.3030941), wk =   0.0046296
        k(  119) = (   0.0000000   0.1603683   0.3464379), wk =   0.0046296
        k(  120) = (  -0.1534292   0.1865944   0.3895954), wk =   0.0046296
        k(  121) = (  -0.3068585   0.2128206   0.4327529), wk =   0.0046296
        k(  122) = (  -0.4602877   0.2390467   0.4759104), wk =   0.0046296
        k(  123) = (  -0.6137169   0.2652729   0.5190679), wk =   0.0046296
        k(  124) = (   0.6137169   0.0554638   0.1738079), wk =   0.0046296
        k(  125) = (   0.4602877   0.0816899   0.2169654), wk =   0.0046296
        k(  126) = (   0.3068585   0.1079160   0.2601229), wk =   0.0046296
        k(  127) = (   0.1534292   0.1341422   0.3032804), wk =   0.0046296
        k(  128) = (   0.0000000   0.3207366   0.3466241), wk =   0.0046296
        k(  129) = (  -0.1534292   0.3469628   0.3897816), wk =   0.0046296
        k(  130) = (  -0.3068585   0.3731889   0.4329391), wk =   0.0046296
        k(  131) = (  -0.4602877   0.3994150   0.4760966), wk =   0.0046296
        k(  132) = (  -0.6137169   0.4256412   0.5192541), wk =   0.0046296
        k(  133) = (   0.6137169   0.2158321   0.1739941), wk =   0.0046296
        k(  134) = (   0.4602877   0.2420582   0.2171516), wk =   0.0046296
        k(  135) = (   0.3068585   0.2682843   0.2603091), wk =   0.0046296
        k(  136) = (   0.1534292   0.2945105   0.3034666), wk =   0.0046296
        k(  137) = (   0.0000000   0.4811049   0.3468104), wk =   0.0046296
        k(  138) = (  -0.1534292   0.5073311   0.3899679), wk =   0.0046296
        k(  139) = (  -0.3068585   0.5335572   0.4331254), wk =   0.0046296
        k(  140) = (  -0.4602877   0.5597833   0.4762829), wk =   0.0046296
        k(  141) = (  -0.6137169   0.5860095   0.5194404), wk =   0.0046296
        k(  142) = (   0.6137169   0.3762004   0.1741804), wk =   0.0046296
        k(  143) = (   0.4602877   0.4024265   0.2173379), wk =   0.0046296
        k(  144) = (   0.3068585   0.4286527   0.2604954), wk =   0.0046296
        k(  145) = (   0.1534292   0.4548788   0.3036529), wk =   0.0046296
        k(  146) = (   0.0000000  -0.6414732   0.3455066), wk =   0.0046296
        k(  147) = (  -0.1534292  -0.6152471   0.3886641), wk =   0.0046296
        k(  148) = (  -0.3068585  -0.5890210   0.4318216), wk =   0.0046296
        k(  149) = (  -0.4602877  -0.5627948   0.4749791), wk =   0.0046296
        k(  150) = (  -0.6137169  -0.5365687   0.5181366), wk =   0.0046296
        k(  151) = (   0.6137169  -0.7463778   0.1728766), wk =   0.0046296
        k(  152) = (   0.4602877  -0.7201517   0.2160341), wk =   0.0046296
        k(  153) = (   0.3068585  -0.6939255   0.2591916), wk =   0.0046296
        k(  154) = (   0.1534292  -0.6676994   0.3023491), wk =   0.0046296
        k(  155) = (   0.0000000  -0.4811049   0.3456928), wk =   0.0046296
        k(  156) = (  -0.1534292  -0.4548788   0.3888503), wk =   0.0046296
        k(  157) = (  -0.3068585  -0.4286527   0.4320078), wk =   0.0046296
        k(  158) = (  -0.4602877  -0.4024265   0.4751653), wk =   0.0046296
        k(  159) = (  -0.6137169  -0.3762004   0.5183228), wk =   0.0046296
        k(  160) = (   0.6137169  -0.5860095   0.1730628), wk =   0.0046296
        k(  161) = (   0.4602877  -0.5597833   0.2162203), wk =   0.0046296
        k(  162) = (   0.3068585  -0.5335572   0.2593778), wk =   0.0046296
        k(  163) = (   0.1534292  -0.5073311   0.3025353), wk =   0.0046296
        k(  164) = (   0.0000000  -0.3207366   0.3458791), wk =   0.0046296
        k(  165) = (  -0.1534292  -0.2945105   0.3890366), wk =   0.0046296
        k(  166) = (  -0.3068585  -0.2682843   0.4321941), wk =   0.0046296
        k(  167) = (  -0.4602877  -0.2420582   0.4753516), wk =   0.0046296
        k(  168) = (  -0.6137169  -0.2158321   0.5185091), wk =   0.0046296
        k(  169) = (   0.6137169  -0.4256412   0.1732491), wk =   0.0046296
        k(  170) = (   0.4602877  -0.3994150   0.2164066), wk =   0.0046296
        k(  171) = (   0.3068585  -0.3731889   0.2595641), wk =   0.0046296
        k(  172) = (   0.1534292  -0.3469628   0.3027216), wk =   0.0046296
        k(  173) = (   0.0000000  -0.1603683   0.3460653), wk =   0.0046296
        k(  174) = (  -0.1534292  -0.1341422   0.3892228), wk =   0.0046296
        k(  175) = (  -0.3068585  -0.1079160   0.4323803), wk =   0.0046296
        k(  176) = (  -0.4602877  -0.0816899   0.4755378), wk =   0.0046296
        k(  177) = (  -0.6137169  -0.0554638   0.5186953), wk =   0.0046296
        k(  178) = (   0.6137169  -0.2652729   0.1734354), wk =   0.0046296
        k(  179) = (   0.4602877  -0.2390467   0.2165928), wk =   0.0046296
        k(  180) = (   0.3068585  -0.2128206   0.2597503), wk =   0.0046296
        k(  181) = (   0.1534292  -0.1865944   0.3029078), wk =   0.0046296
        k(  182) = (   0.0000000   0.0000000  -0.5193774), wk =   0.0023148
        k(  183) = (  -0.1534292   0.0262261  -0.4762199), wk =   0.0046296
        k(  184) = (  -0.3068585   0.0524523  -0.4330624), wk =   0.0046296
        k(  185) = (  -0.4602877   0.0786784  -0.3899049), wk =   0.0046296
        k(  186) = (  -0.6137169   0.1049046  -0.3467474), wk =   0.0046296
        k(  187) = (   0.0000000   0.1603683  -0.5191911), wk =   0.0046296
        k(  188) = (  -0.1534292   0.1865944  -0.4760336), wk =   0.0046296
        k(  189) = (  -0.3068585   0.2128206  -0.4328761), wk =   0.0046296
        k(  190) = (  -0.4602877   0.2390467  -0.3897187), wk =   0.0046296
        k(  191) = (  -0.6137169   0.2652729  -0.3465612), wk =   0.0046296
        k(  192) = (   0.6137169   0.0554638  -0.6918211), wk =   0.0046296
        k(  193) = (   0.4602877   0.0816899  -0.6486636), wk =   0.0046296
        k(  194) = (   0.3068585   0.1079160  -0.6055061), wk =   0.0046296
        k(  195) = (   0.1534292   0.1341422  -0.5623486), wk =   0.0046296
        k(  196) = (   0.0000000   0.3207366  -0.5190049), wk =   0.0046296
        k(  197) = (  -0.1534292   0.3469628  -0.4758474), wk =   0.0046296
        k(  198) = (  -0.3068585   0.3731889  -0.4326899), wk =   0.0046296
        k(  199) = (  -0.4602877   0.3994150  -0.3895324), wk =   0.0046296
        k(  200) = (  -0.6137169   0.4256412  -0.3463749), wk =   0.0046296
        k(  201) = (   0.6137169   0.2158321  -0.6916349), wk =   0.0046296
        k(  202) = (   0.4602877   0.2420582  -0.6484774), wk =   0.0046296
        k(  203) = (   0.3068585   0.2682843  -0.6053199), wk =   0.0046296
        k(  204) = (   0.1534292   0.2945105  -0.5621624), wk =   0.0046296
        k(  205) = (   0.0000000   0.4811049  -0.5188186), wk =   0.0046296
        k(  206) = (  -0.1534292   0.5073311  -0.4756611), wk =   0.0046296
        k(  207) = (  -0.3068585   0.5335572  -0.4325036), wk =   0.0046296
        k(  208) = (  -0.4602877   0.5597833  -0.3893461), wk =   0.0046296
        k(  209) = (  -0.6137169   0.5860095  -0.3461886), wk =   0.0046296
        k(  210) = (   0.6137169   0.3762004  -0.6914486), wk =   0.0046296
        k(  211) = (   0.4602877   0.4024265  -0.6482911), wk =   0.0046296
        k(  212) = (   0.3068585   0.4286527  -0.6051336), wk =   0.0046296
        k(  213) = (   0.1534292   0.4548788  -0.5619761), wk =   0.0046296
        k(  214) = (  -0.0000000  -0.6414732  -0.5201224), wk =   0.0023148
        k(  215) = (  -0.1534292  -0.6152471  -0.4769649), wk =   0.0046296
        k(  216) = (  -0.3068585  -0.5890210  -0.4338074), wk =   0.0046296
        k(  217) = (  -0.4602877  -0.5627948  -0.3906499), wk =   0.0046296
        k(  218) = (  -0.6137169  -0.5365687  -0.3474924), wk =   0.0046296

                       cryst. coord.
        k(    1) = (   0.0000000   0.0000000   0.0000000), wk =   0.0023148
        k(    2) = (   0.0000000   0.0000000   0.1111111), wk =   0.0046296
        k(    3) = (   0.0000000   0.0000000   0.2222222), wk =   0.0046296
        k(    4) = (   0.0000000  -0.0000000   0.3333333), wk =   0.0046296
        k(    5) = (   0.0000000   0.0000000   0.4444444), wk =   0.0046296
        k(    6) = (   0.0000000   0.1250000   0.0000000), wk =   0.0046296
        k(    7) = (  -0.0000000   0.1250000   0.1111111), wk =   0.0046296
        k(    8) = (  -0.0000000   0.1250000   0.2222222), wk =   0.0046296
        k(    9) = (   0.0000000   0.1250000   0.3333333), wk =   0.0046296
        k(   10) = (   0.0000000   0.1250000   0.4444444), wk =   0.0046296
        k(   11) = (  -0.0000000   0.1250000  -0.4444444), wk =   0.0046296
        k(   12) = (  -0.0000000   0.1250000  -0.3333333), wk =   0.0046296
        k(   13) = (  -0.0000000   0.1250000  -0.2222222), wk =   0.0046296
        k(   14) = (  -0.0000000   0.1250000  -0.1111111), wk =   0.0046296
        k(   15) = (   0.0000000   0.2500000   0.0000000), wk =   0.0046296
        k(   16) = (  -0.0000000   0.2500000   0.1111111), wk =   0.0046296
        k(   17) = (  -0.0000000   0.2500000   0.2222222), wk =   0.0046296
        k(   18) = (  -0.0000000   0.2500000   0.3333333), wk =   0.0046296
        k(   19) = (  -0.0000000   0.2500000   0.4444444), wk =   0.0046296
        k(   20) = (  -0.0000000   0.2500000  -0.4444444), wk =   0.0046296
        k(   21) = (   0.0000000   0.2500000  -0.3333333), wk =   0.0046296
        k(   22) = (  -0.0000000   0.2500000  -0.2222222), wk =   0.0046296
        k(   23) = (   0.0000000   0.2500000  -0.1111111), wk =   0.0046296
        k(   24) = (   0.0000000   0.3750000   0.0000000), wk =   0.0046296
        k(   25) = (  -0.0000000   0.3750000   0.1111111), wk =   0.0046296
        k(   26) = (  -0.0000000   0.3750000   0.2222222), wk =   0.0046296
        k(   27) = (  -0.0000000   0.3750000   0.3333333), wk =   0.0046296
        k(   28) = (  -0.0000000   0.3750000   0.4444444), wk =   0.0046296
        k(   29) = (   0.0000000   0.3750000  -0.4444444), wk =   0.0046296
        k(   30) = (   0.0000000   0.3750000  -0.3333333), wk =   0.0046296
        k(   31) = (  -0.0000000   0.3750000  -0.2222222), wk =   0.0046296
        k(   32) = (  -0.0000000   0.3750000  -0.1111111), wk =   0.0046296
        k(   33) = (  -0.0000000  -0.5000000  -0.0000000), wk =   0.0023148
        k(   34) = (   0.0000000  -0.5000000   0.1111111), wk =   0.0046296
        k(   35) = (  -0.0000000  -0.5000000   0.2222222), wk =   0.0046296
        k(   36) = (  -0.0000000  -0.5000000   0.3333333), wk =   0.0046296
        k(   37) = (   0.0000000  -0.5000000   0.4444444), wk =   0.0046296
        k(   38) = (   0.1666667   0.0000000   0.0000000), wk =   0.0046296
        k(   39) = (   0.1666667   0.0000000   0.1111111), wk =   0.0046296
        k(   40) = (   0.1666667   0.0000000   0.2222222), wk =   0.0046296
        k(   41) = (   0.1666667  -0.0000000   0.3333333), wk =   0.0046296
        k(   42) = (   0.1666667   0.0000000   0.4444444), wk =   0.0046296
        k(   43) = (   0.1666667  -0.0000000  -0.4444444), wk =   0.0046296
        k(   44) = (   0.1666667   0.0000000  -0.3333333), wk =   0.0046296
        k(   45) = (   0.1666667  -0.0000000  -0.2222222), wk =   0.0046296
        k(   46) = (   0.1666667   0.0000000  -0.1111111), wk =   0.0046296
        k(   47) = (   0.1666667   0.1250000   0.0000000), wk =   0.0046296
        k(   48) = (   0.1666667   0.1250000   0.1111111), wk =   0.0046296
        k(   49) = (   0.1666667   0.1250000   0.2222222), wk =   0.0046296
        k(   50) = (   0.1666667   0.1250000   0.3333333), wk =   0.0046296
        k(   51) = (   0.1666667   0.1250000   0.4444444), wk =   0.0046296
        k(   52) = (   0.1666667   0.1250000  -0.4444444), wk =   0.0046296
        k(   53) = (   0.1666667   0.1250000  -0.3333333), wk =   0.0046296
        k(   54) = (   0.1666667   0.1250000  -0.2222222), wk =   0.0046296
        k(   55) = (   0.1666667   0.1250000  -0.1111111), wk =   0.0046296
        k(   56) = (   0.1666667   0.2500000   0.0000000), wk =   0.0046296
        k(   57) = (   0.1666667   0.2500000   0.1111111), wk =   0.0046296
        k(   58) = (   0.1666667   0.2500000   0.2222222), wk =   0.0046296
        k(   59) = (   0.1666667   0.2500000   0.3333333), wk =   0.0046296
        k(   60) = (   0.1666667   0.2500000   0.4444444), wk =   0.0046296
        k(   61) = (   0.1666667   0.2500000  -0.4444444), wk =   0.0046296
        k(   62) = (   0.1666667   0.2500000  -0.3333333), wk =   0.0046296
        k(   63) = (   0.1666667   0.2500000  -0.2222222), wk =   0.0046296
        k(   64) = (   0.1666667   0.2500000  -0.1111111), wk =   0.0046296
        k(   65) = (   0.1666667   0.3750000   0.0000000), wk =   0.0046296
        k(   66) = (   0.1666667   0.3750000   0.1111111), wk =   0.0046296
        k(   67) = (   0.1666667   0.3750000   0.2222222), wk =   0.0046296
        k(   68) = (   0.1666667   0.3750000   0.3333333), wk =   0.0046296
        k(   69) = (   0.1666667   0.3750000   0.4444444), wk =   0.0046296
        k(   70) = (   0.1666667   0.3750000  -0.4444444), wk =   0.0046296
        k(   71) = (   0.1666667   0.3750000  -0.3333333), wk =   0.0046296
        k(   72) = (   0.1666667   0.3750000  -0.2222222), wk =   0.0046296
        k(   73) = (   0.1666667   0.3750000  -0.1111111), wk =   0.0046296
        k(   74) = (   0.1666667  -0.5000000   0.0000000), wk =   0.0046296
        k(   75) = (   0.1666667  -0.5000000   0.1111111), wk =   0.0046296
        k(   76) = (   0.1666667  -0.5000000   0.2222222), wk =   0.0046296
        k(   77) = (   0.1666667  -0.5000000   0.3333333), wk =   0.0046296
        k(   78) = (   0.1666667  -0.5000000   0.4444444), wk =   0.0046296
        k(   79) = (   0.1666667  -0.5000000  -0.4444444), wk =   0.0046296
        k(   80) = (   0.1666667  -0.5000000  -0.3333333), wk =   0.0046296
        k(   81) = (   0.1666667  -0.5000000  -0.2222222), wk =   0.0046296
        k(   82) = (   0.1666667  -0.5000000  -0.1111111), wk =   0.0046296
        k(   83) = (   0.1666667  -0.3750000   0.0000000), wk =   0.0046296
        k(   84) = (   0.1666667  -0.3750000   0.1111111), wk =   0.0046296
        k(   85) = (   0.1666667  -0.3750000   0.2222222), wk =   0.0046296
        k(   86) = (   0.1666667  -0.3750000   0.3333333), wk =   0.0046296
        k(   87) = (   0.1666667  -0.3750000   0.4444444), wk =   0.0046296
        k(   88) = (   0.1666667  -0.3750000  -0.4444444), wk =   0.0046296
        k(   89) = (   0.1666667  -0.3750000  -0.3333333), wk =   0.0046296
        k(   90) = (   0.1666667  -0.3750000  -0.2222222), wk =   0.0046296
        k(   91) = (   0.1666667  -0.3750000  -0.1111111), wk =   0.0046296
        k(   92) = (   0.1666667  -0.2500000   0.0000000), wk =   0.0046296
        k(   93) = (   0.1666667  -0.2500000   0.1111111), wk =   0.0046296
        k(   94) = (   0.1666667  -0.2500000   0.2222222), wk =   0.0046296
        k(   95) = (   0.1666667  -0.2500000   0.3333333), wk =   0.0046296
        k(   96) = (   0.1666667  -0.2500000   0.4444444), wk =   0.0046296
        k(   97) = (   0.1666667  -0.2500000  -0.4444444), wk =   0.0046296
        k(   98) = (   0.1666667  -0.2500000  -0.3333333), wk =   0.0046296
        k(   99) = (   0.1666667  -0.2500000  -0.2222222), wk =   0.0046296
        k(  100) = (   0.1666667  -0.2500000  -0.1111111), wk =   0.0046296
        k(  101) = (   0.1666667  -0.1250000   0.0000000), wk =   0.0046296
        k(  102) = (   0.1666667  -0.1250000   0.1111111), wk =   0.0046296
        k(  103) = (   0.1666667  -0.1250000   0.2222222), wk =   0.0046296
        k(  104) = (   0.1666667  -0.1250000   0.3333333), wk =   0.0046296
        k(  105) = (   0.1666667  -0.1250000   0.4444444), wk =   0.0046296
        k(  106) = (   0.1666667  -0.1250000  -0.4444444), wk =   0.0046296
        k(  107) = (   0.1666667  -0.1250000  -0.3333333), wk =   0.0046296
        k(  108) = (   0.1666667  -0.1250000  -0.2222222), wk =   0.0046296
        k(  109) = (   0.1666667  -0.1250000  -0.1111111), wk =   0.0046296
        k(  110) = (   0.3333333   0.0000000   0.0000000), wk =   0.0046296
        k(  111) = (   0.3333333   0.0000000   0.1111111), wk =   0.0046296
        k(  112) = (   0.3333333   0.0000000   0.2222222), wk =   0.0046296
        k(  113) = (   0.3333333  -0.0000000   0.3333333), wk =   0.0046296
        k(  114) = (   0.3333333   0.0000000   0.4444444), wk =   0.0046296
        k(  115) = (   0.3333333  -0.0000000  -0.4444444), wk =   0.0046296
        k(  116) = (   0.3333333   0.0000000  -0.3333333), wk =   0.0046296
        k(  117) = (   0.3333333  -0.0000000  -0.2222222), wk =   0.0046296
        k(  118) = (   0.3333333   0.0000000  -0.1111111), wk =   0.0046296
        k(  119) = (   0.3333333   0.1250000   0.0000000), wk =   0.0046296
        k(  120) = (   0.3333333   0.1250000   0.1111111), wk =   0.0046296
        k(  121) = (   0.3333333   0.1250000   0.2222222), wk =   0.0046296
        k(  122) = (   0.3333333   0.1250000   0.3333333), wk =   0.0046296
        k(  123) = (   0.3333333   0.1250000   0.4444444), wk =   0.0046296
        k(  124) = (   0.3333333   0.1250000  -0.4444444), wk =   0.0046296
        k(  125) = (   0.3333333   0.1250000  -0.3333333), wk =   0.0046296
        k(  126) = (   0.3333333   0.1250000  -0.2222222), wk =   0.0046296
        k(  127) = (   0.3333333   0.1250000  -0.1111111), wk =   0.0046296
        k(  128) = (   0.3333333   0.2500000   0.0000000), wk =   0.0046296
        k(  129) = (   0.3333333   0.2500000   0.1111111), wk =   0.0046296
        k(  130) = (   0.3333333   0.2500000   0.2222222), wk =   0.0046296
        k(  131) = (   0.3333333   0.2500000   0.3333333), wk =   0.0046296
        k(  132) = (   0.3333333   0.2500000   0.4444444), wk =   0.0046296
        k(  133) = (   0.3333333   0.2500000  -0.4444444), wk =   0.0046296
        k(  134) = (   0.3333333   0.2500000  -0.3333333), wk =   0.0046296
        k(  135) = (   0.3333333   0.2500000  -0.2222222), wk =   0.0046296
        k(  136) = (   0.3333333   0.2500000  -0.1111111), wk =   0.0046296
        k(  137) = (   0.3333333   0.3750000   0.0000000), wk =   0.0046296
        k(  138) = (   0.3333333   0.3750000   0.1111111), wk =   0.0046296
        k(  139) = (   0.3333333   0.3750000   0.2222222), wk =   0.0046296
        k(  140) = (   0.3333333   0.3750000   0.3333333), wk =   0.0046296
        k(  141) = (   0.3333333   0.3750000   0.4444444), wk =   0.0046296
        k(  142) = (   0.3333333   0.3750000  -0.4444444), wk =   0.0046296
        k(  143) = (   0.3333333   0.3750000  -0.3333333), wk =   0.0046296
        k(  144) = (   0.3333333   0.3750000  -0.2222222), wk =   0.0046296
        k(  145) = (   0.3333333   0.3750000  -0.1111111), wk =   0.0046296
        k(  146) = (   0.3333333  -0.5000000   0.0000000), wk =   0.0046296
        k(  147) = (   0.3333333  -0.5000000   0.1111111), wk =   0.0046296
        k(  148) = (   0.3333333  -0.5000000   0.2222222), wk =   0.0046296
        k(  149) = (   0.3333333  -0.5000000   0.3333333), wk =   0.0046296
        k(  150) = (   0.3333333  -0.5000000   0.4444444), wk =   0.0046296
        k(  151) = (   0.3333333  -0.5000000  -0.4444444), wk =   0.0046296
        k(  152) = (   0.3333333  -0.5000000  -0.3333333), wk =   0.0046296
        k(  153) = (   0.3333333  -0.5000000  -0.2222222), wk =   0.0046296
        k(  154) = (   0.3333333  -0.5000000  -0.1111111), wk =   0.0046296
        k(  155) = (   0.3333333  -0.3750000   0.0000000), wk =   0.0046296
        k(  156) = (   0.3333333  -0.3750000   0.1111111), wk =   0.0046296
        k(  157) = (   0.3333333  -0.3750000   0.2222222), wk =   0.0046296
        k(  158) = (   0.3333333  -0.3750000   0.3333333), wk =   0.0046296
        k(  159) = (   0.3333333  -0.3750000   0.4444444), wk =   0.0046296
        k(  160) = (   0.3333333  -0.3750000  -0.4444444), wk =   0.0046296
        k(  161) = (   0.3333333  -0.3750000  -0.3333333), wk =   0.0046296
        k(  162) = (   0.3333333  -0.3750000  -0.2222222), wk =   0.0046296
        k(  163) = (   0.3333333  -0.3750000  -0.1111111), wk =   0.0046296
        k(  164) = (   0.3333333  -0.2500000   0.0000000), wk =   0.0046296
        k(  165) = (   0.3333333  -0.2500000   0.1111111), wk =   0.0046296
        k(  166) = (   0.3333333  -0.2500000   0.2222222), wk =   0.0046296
        k(  167) = (   0.3333333  -0.2500000   0.3333333), wk =   0.0046296
        k(  168) = (   0.3333333  -0.2500000   0.4444444), wk =   0.0046296
        k(  169) = (   0.3333333  -0.2500000  -0.4444444), wk =   0.0046296
        k(  170) = (   0.3333333  -0.2500000  -0.3333333), wk =   0.0046296
        k(  171) = (   0.3333333  -0.2500000  -0.2222222), wk =   0.0046296
        k(  172) = (   0.3333333  -0.2500000  -0.1111111), wk =   0.0046296
        k(  173) = (   0.3333333  -0.1250000   0.0000000), wk =   0.0046296
        k(  174) = (   0.3333333  -0.1250000   0.1111111), wk =   0.0046296
        k(  175) = (   0.3333333  -0.1250000   0.2222222), wk =   0.0046296
        k(  176) = (   0.3333333  -0.1250000   0.3333333), wk =   0.0046296
        k(  177) = (   0.3333333  -0.1250000   0.4444444), wk =   0.0046296
        k(  178) = (   0.3333333  -0.1250000  -0.4444444), wk =   0.0046296
        k(  179) = (   0.3333333  -0.1250000  -0.3333333), wk =   0.0046296
        k(  180) = (   0.3333333  -0.1250000  -0.2222222), wk =   0.0046296
        k(  181) = (   0.3333333  -0.1250000  -0.1111111), wk =   0.0046296
        k(  182) = (  -0.5000000   0.0000000   0.0000000), wk =   0.0023148
        k(  183) = (  -0.5000000   0.0000000   0.1111111), wk =   0.0046296
        k(  184) = (  -0.5000000   0.0000000   0.2222222), wk =   0.0046296
        k(  185) = (  -0.5000000  -0.0000000   0.3333333), wk =   0.0046296
        k(  186) = (  -0.5000000   0.0000000   0.4444444), wk =   0.0046296
        k(  187) = (  -0.5000000   0.1250000   0.0000000), wk =   0.0046296
        k(  188) = (  -0.5000000   0.1250000   0.1111111), wk =   0.0046296
        k(  189) = (  -0.5000000   0.1250000   0.2222222), wk =   0.0046296
        k(  190) = (  -0.5000000   0.1250000   0.3333333), wk =   0.0046296
        k(  191) = (  -0.5000000   0.1250000   0.4444444), wk =   0.0046296
        k(  192) = (  -0.5000000   0.1250000  -0.4444444), wk =   0.0046296
        k(  193) = (  -0.5000000   0.1250000  -0.3333333), wk =   0.0046296
        k(  194) = (  -0.5000000   0.1250000  -0.2222222), wk =   0.0046296
        k(  195) = (  -0.5000000   0.1250000  -0.1111111), wk =   0.0046296
        k(  196) = (  -0.5000000   0.2500000   0.0000000), wk =   0.0046296
        k(  197) = (  -0.5000000   0.2500000   0.1111111), wk =   0.0046296
        k(  198) = (  -0.5000000   0.2500000   0.2222222), wk =   0.0046296
        k(  199) = (  -0.5000000   0.2500000   0.3333333), wk =   0.0046296
        k(  200) = (  -0.5000000   0.2500000   0.4444444), wk =   0.0046296
        k(  201) = (  -0.5000000   0.2500000  -0.4444444), wk =   0.0046296
        k(  202) = (  -0.5000000   0.2500000  -0.3333333), wk =   0.0046296
        k(  203) = (  -0.5000000   0.2500000  -0.2222222), wk =   0.0046296
        k(  204) = (  -0.5000000   0.2500000  -0.1111111), wk =   0.0046296
        k(  205) = (  -0.5000000   0.3750000   0.0000000), wk =   0.0046296
        k(  206) = (  -0.5000000   0.3750000   0.1111111), wk =   0.0046296
        k(  207) = (  -0.5000000   0.3750000   0.2222222), wk =   0.0046296
        k(  208) = (  -0.5000000   0.3750000   0.3333333), wk =   0.0046296
        k(  209) = (  -0.5000000   0.3750000   0.4444444), wk =   0.0046296
        k(  210) = (  -0.5000000   0.3750000  -0.4444444), wk =   0.0046296
        k(  211) = (  -0.5000000   0.3750000  -0.3333333), wk =   0.0046296
        k(  212) = (  -0.5000000   0.3750000  -0.2222222), wk =   0.0046296
        k(  213) = (  -0.5000000   0.3750000  -0.1111111), wk =   0.0046296
        k(  214) = (  -0.5000000  -0.5000000   0.0000000), wk =   0.0023148
        k(  215) = (  -0.5000000  -0.5000000   0.1111111), wk =   0.0046296
        k(  216) = (  -0.5000000  -0.5000000   0.2222222), wk =   0.0046296
        k(  217) = (  -0.5000000  -0.5000000   0.3333333), wk =   0.0046296
        k(  218) = (  -0.5000000  -0.5000000   0.4444444), wk =   0.0046296

     Dense  grid:   259655 G-vectors     FFT dimensions: ( 100,  80,  72)

     Smooth grid:    91809 G-vectors     FFT dimensions: (  72,  60,  50)

     Dynamical RAM for                 wfc:      10.50 MB

     Dynamical RAM for     wfc (w. buffer):    4590.58 MB

     Dynamical RAM for           str. fact:      15.85 MB

     Dynamical RAM for           local pot:       0.00 MB

     Dynamical RAM for          nlocal pot:      26.26 MB

     Dynamical RAM for                qrad:       7.03 MB

     Dynamical RAM for          rho,v,vnew:      50.14 MB

     Dynamical RAM for               rhoin:      16.71 MB

     Dynamical RAM for            rho*nmix:     126.78 MB

     Dynamical RAM for           G-vectors:      15.56 MB

     Dynamical RAM for          h,s,v(r/c):       0.66 MB

     Dynamical RAM for          <psi|beta>:       0.14 MB

     Dynamical RAM for                 psi:      21.01 MB

     Dynamical RAM for                hpsi:      21.01 MB

     Dynamical RAM for                spsi:      21.01 MB

     Dynamical RAM for      wfcinit/wfcrot:      24.27 MB

     Dynamical RAM for           addusdens:     772.59 MB

     Dynamical RAM for          addusforce:     828.12 MB

     Dynamical RAM for         addusstress:     802.31 MB

     Estimated static dynamical RAM per process >       4.66 GB

     Estimated max dynamical RAM per process >       5.59 GB
     Generating pointlists ...
     new r_m :   0.0872 (alat units)  1.2127 (a.u.) for type    1
     new r_m :   0.0777 (alat units)  1.0804 (a.u.) for type    2
     new r_m :   0.0777 (alat units)  1.0804 (a.u.) for type    3
     new r_m :   0.1163 (alat units)  1.6182 (a.u.) for type    4

     Initial potential from superposition of free atoms

     starting charge      99.9998, renormalised to     100.0000
     Starting wfcs are   69 randomized atomic wfcs
     Checking if some PAW data can be deallocated... 

     total cpu time spent up to now is       25.8 secs

     per-process dynamical memory:  1339.8 Mb

     Self-consistent Calculation
[tb_dev] Currently allocated     6.40E+00 Mbytes, locked:    0 /  11
[tb_pin] Currently allocated     0.00E+00 Mbytes, locked:    0 /   0

     iteration #  1     ecut=    60.00 Ry     beta= 0.40
     Davidson diagonalization with overlap

---- Real-time Memory Report at c_bands before calling an iterative solver
          5814 MiB given to the printing process from OS
          1326 MiB allocation reported by mallinfo(arena+hblkhd)
         53525 MiB available memory on the node where the printing process lives
     GPU memory used/free/total (MiB): 2124 / 14156 / 16280
------------------
     ethr =  1.00E-02,  avg # of iterations =  2.0

     total cpu time spent up to now is       56.0 secs

     total energy              =    -915.56602520 Ry
     estimated scf accuracy    <       5.11028660 Ry

     total magnetization       =     2.00 Bohr mag/cell
     absolute magnetization    =     2.42 Bohr mag/cell
[tb_dev] Currently allocated     6.40E+00 Mbytes, locked:    0 /   9
[tb_pin] Currently allocated     0.00E+00 Mbytes, locked:    0 /   0

     iteration #  2     ecut=    60.00 Ry     beta= 0.40
     Davidson diagonalization with overlap

---- Real-time Memory Report at c_bands before calling an iterative solver
          6060 MiB given to the printing process from OS
          1397 MiB allocation reported by mallinfo(arena+hblkhd)
         53451 MiB available memory on the node where the printing process lives
     GPU memory used/free/total (MiB): 3242 / 13038 / 16280
------------------
     ethr =  5.11E-03,  avg # of iterations =  2.3

     total cpu time spent up to now is       88.4 secs

     total energy              =    -915.38592699 Ry
     estimated scf accuracy    <      15.69936636 Ry

     total magnetization       =     2.15 Bohr mag/cell
     absolute magnetization    =     2.37 Bohr mag/cell
[tb_dev] Currently allocated     6.40E+00 Mbytes, locked:    0 /   9
[tb_pin] Currently allocated     0.00E+00 Mbytes, locked:    0 /   0

     iteration #  3     ecut=    60.00 Ry     beta= 0.40
     Davidson diagonalization with overlap

---- Real-time Memory Report at c_bands before calling an iterative solver
          6236 MiB given to the printing process from OS
          1423 MiB allocation reported by mallinfo(arena+hblkhd)
         53426 MiB available memory on the node where the printing process lives
     GPU memory used/free/total (MiB): 3324 / 12956 / 16280
------------------
     ethr =  5.11E-03,  avg # of iterations =  1.9

     total cpu time spent up to now is      114.8 secs

     total energy              =    -917.68830853 Ry
     estimated scf accuracy    <       1.86319112 Ry

     total magnetization       =     2.00 Bohr mag/cell
     absolute magnetization    =     2.24 Bohr mag/cell
[tb_dev] Currently allocated     6.40E+00 Mbytes, locked:    0 /   9
[tb_pin] Currently allocated     0.00E+00 Mbytes, locked:    0 /   0

     iteration #  4     ecut=    60.00 Ry     beta= 0.40
     Davidson diagonalization with overlap

---- Real-time Memory Report at c_bands before calling an iterative solver
          6332 MiB given to the printing process from OS
          1446 MiB allocation reported by mallinfo(arena+hblkhd)
         53404 MiB available memory on the node where the printing process lives
     GPU memory used/free/total (MiB): 3350 / 12930 / 16280
------------------
     ethr =  1.86E-03,  avg # of iterations =  1.9

     total cpu time spent up to now is      141.4 secs

     total energy              =    -917.73842089 Ry
     estimated scf accuracy    <       0.52805038 Ry

     total magnetization       =     2.11 Bohr mag/cell
     absolute magnetization    =     2.32 Bohr mag/cell
[tb_dev] Currently allocated     6.40E+00 Mbytes, locked:    0 /   9
[tb_pin] Currently allocated     0.00E+00 Mbytes, locked:    0 /   0

     iteration #  5     ecut=    60.00 Ry     beta= 0.40
     Davidson diagonalization with overlap

---- Real-time Memory Report at c_bands before calling an iterative solver
          6411 MiB given to the printing process from OS
          1470 MiB allocation reported by mallinfo(arena+hblkhd)
         53381 MiB available memory on the node where the printing process lives
     GPU memory used/free/total (MiB): 3350 / 12930 / 16280
------------------
     ethr =  5.28E-04,  avg # of iterations =  1.2

     total cpu time spent up to now is      166.0 secs

     total energy              =    -917.77420253 Ry
     estimated scf accuracy    <       0.33674657 Ry

     total magnetization       =     1.99 Bohr mag/cell
     absolute magnetization    =     2.23 Bohr mag/cell
[tb_dev] Currently allocated     6.40E+00 Mbytes, locked:    0 /   9
[tb_pin] Currently allocated     0.00E+00 Mbytes, locked:    0 /   0

     iteration #  6     ecut=    60.00 Ry     beta= 0.40
     Davidson diagonalization with overlap

---- Real-time Memory Report at c_bands before calling an iterative solver
          6487 MiB given to the printing process from OS
          1493 MiB allocation reported by mallinfo(arena+hblkhd)
         53359 MiB available memory on the node where the printing process lives
     GPU memory used/free/total (MiB): 3350 / 12930 / 16280
------------------
     ethr =  3.37E-04,  avg # of iterations =  1.2

     total cpu time spent up to now is      190.7 secs

     total energy              =    -917.78191458 Ry
     estimated scf accuracy    <       0.11058075 Ry

     total magnetization       =     2.06 Bohr mag/cell
     absolute magnetization    =     2.29 Bohr mag/cell
[tb_dev] Currently allocated     6.40E+00 Mbytes, locked:    0 /   9
[tb_pin] Currently allocated     0.00E+00 Mbytes, locked:    0 /   0

     iteration #  7     ecut=    60.00 Ry     beta= 0.40
     Davidson diagonalization with overlap

---- Real-time Memory Report at c_bands before calling an iterative solver
          6523 MiB given to the printing process from OS
          1516 MiB allocation reported by mallinfo(arena+hblkhd)
         53335 MiB available memory on the node where the printing process lives
     GPU memory used/free/total (MiB): 3350 / 12930 / 16280
------------------
     ethr =  1.11E-04,  avg # of iterations =  2.9

     total cpu time spent up to now is      220.1 secs

     total energy              =    -917.78171545 Ry
     estimated scf accuracy    <       0.18303879 Ry

     total magnetization       =     2.01 Bohr mag/cell
     absolute magnetization    =     2.23 Bohr mag/cell
[tb_dev] Currently allocated     6.40E+00 Mbytes, locked:    0 /   9
[tb_pin] Currently allocated     0.00E+00 Mbytes, locked:    0 /   0

     iteration #  8     ecut=    60.00 Ry     beta= 0.40
     Davidson diagonalization with overlap

---- Real-time Memory Report at c_bands before calling an iterative solver
          6558 MiB given to the printing process from OS
          1539 MiB allocation reported by mallinfo(arena+hblkhd)
         53311 MiB available memory on the node where the printing process lives
     GPU memory used/free/total (MiB): 3370 / 12910 / 16280
------------------
     ethr =  1.11E-04,  avg # of iterations =  1.7

     total cpu time spent up to now is      246.0 secs

     total energy              =    -917.79645310 Ry
     estimated scf accuracy    <       0.02273588 Ry

     total magnetization       =     2.02 Bohr mag/cell
     absolute magnetization    =     2.25 Bohr mag/cell
[tb_dev] Currently allocated     6.40E+00 Mbytes, locked:    0 /   9
[tb_pin] Currently allocated     0.00E+00 Mbytes, locked:    0 /   0

     iteration #  9     ecut=    60.00 Ry     beta= 0.40
     Davidson diagonalization with overlap

---- Real-time Memory Report at c_bands before calling an iterative solver
          6591 MiB given to the printing process from OS
          1566 MiB allocation reported by mallinfo(arena+hblkhd)
         53285 MiB available memory on the node where the printing process lives
     GPU memory used/free/total (MiB): 3370 / 12910 / 16280
------------------
     c_bands:  1 eigenvalues not converged
     c_bands:  1 eigenvalues not converged
     c_bands:  1 eigenvalues not converged
     c_bands:  1 eigenvalues not converged
     c_bands:  1 eigenvalues not converged
     c_bands:  1 eigenvalues not converged
     c_bands:  2 eigenvalues not converged
     c_bands:  1 eigenvalues not converged
     c_bands:  1 eigenvalues not converged
     c_bands:  1 eigenvalues not converged
     c_bands:  2 eigenvalues not converged
     c_bands:  1 eigenvalues not converged
     c_bands:  1 eigenvalues not converged
     c_bands:  1 eigenvalues not converged
     c_bands:  1 eigenvalues not converged
     c_bands:  1 eigenvalues not converged
     c_bands:  1 eigenvalues not converged
     c_bands:  1 eigenvalues not converged
     c_bands:  1 eigenvalues not converged
     c_bands:  1 eigenvalues not converged
     c_bands:  1 eigenvalues not converged
     c_bands:  2 eigenvalues not converged
     c_bands:  1 eigenvalues not converged
     c_bands:  2 eigenvalues not converged
     c_bands:  1 eigenvalues not converged
     c_bands:  1 eigenvalues not converged
     c_bands:  1 eigenvalues not converged
     c_bands:  2 eigenvalues not converged
     c_bands:  2 eigenvalues not converged
     c_bands:  1 eigenvalues not converged
     c_bands:  1 eigenvalues not converged
     c_bands:  2 eigenvalues not converged
     c_bands:  1 eigenvalues not converged
     c_bands:  1 eigenvalues not converged
     c_bands:  1 eigenvalues not converged
     c_bands:  2 eigenvalues not converged
     c_bands:  1 eigenvalues not converged
     c_bands:  1 eigenvalues not converged
     c_bands:  1 eigenvalues not converged
     c_bands:  1 eigenvalues not converged
     c_bands:  1 eigenvalues not converged
     c_bands:  1 eigenvalues not converged
     c_bands:  2 eigenvalues not converged
     c_bands:  1 eigenvalues not converged
     c_bands:  1 eigenvalues not converged
     ethr =  2.27E-05,  avg # of iterations = 12.6

     total cpu time spent up to now is      301.7 secs

     total energy              =    -917.79781838 Ry
     estimated scf accuracy    <       0.01877406 Ry

     total magnetization       =     2.01 Bohr mag/cell
     absolute magnetization    =     2.25 Bohr mag/cell
[tb_dev] Currently allocated     6.40E+00 Mbytes, locked:    0 /   9
[tb_pin] Currently allocated     0.00E+00 Mbytes, locked:    0 /   0

     iteration # 10     ecut=    60.00 Ry     beta= 0.40
     Davidson diagonalization with overlap

---- Real-time Memory Report at c_bands before calling an iterative solver
          6609 MiB given to the printing process from OS
          1583 MiB allocation reported by mallinfo(arena+hblkhd)
         53271 MiB available memory on the node where the printing process lives
     GPU memory used/free/total (MiB): 3370 / 12910 / 16280
------------------
     c_bands:  1 eigenvalues not converged
     ethr =  1.88E-05,  avg # of iterations =  1.7

     total cpu time spent up to now is      327.3 secs

     total energy              =    -917.79965992 Ry
     estimated scf accuracy    <       0.00527242 Ry

     total magnetization       =     2.00 Bohr mag/cell
     absolute magnetization    =     2.24 Bohr mag/cell
[tb_dev] Currently allocated     6.40E+00 Mbytes, locked:    0 /   9
[tb_pin] Currently allocated     0.00E+00 Mbytes, locked:    0 /   0

     iteration # 11     ecut=    60.00 Ry     beta= 0.40
     Davidson diagonalization with overlap

---- Real-time Memory Report at c_bands before calling an iterative solver
          6626 MiB given to the printing process from OS
          1598 MiB allocation reported by mallinfo(arena+hblkhd)
         53251 MiB available memory on the node where the printing process lives
     GPU memory used/free/total (MiB): 3370 / 12910 / 16280
------------------
     c_bands:  2 eigenvalues not converged
     c_bands:  2 eigenvalues not converged
     c_bands:  2 eigenvalues not converged
     c_bands:  1 eigenvalues not converged
     c_bands:  1 eigenvalues not converged
     c_bands:  1 eigenvalues not converged
     c_bands:  1 eigenvalues not converged
     c_bands:  1 eigenvalues not converged
     c_bands:  1 eigenvalues not converged
     c_bands:  1 eigenvalues not converged
     c_bands:  1 eigenvalues not converged
     c_bands:  1 eigenvalues not converged
     c_bands:  1 eigenvalues not converged
     c_bands:  1 eigenvalues not converged
     c_bands:  1 eigenvalues not converged
     c_bands:  1 eigenvalues not converged
     c_bands:  1 eigenvalues not converged
     c_bands:  1 eigenvalues not converged
     c_bands:  1 eigenvalues not converged
     c_bands:  1 eigenvalues not converged
     c_bands:  1 eigenvalues not converged
     c_bands:  1 eigenvalues not converged
     c_bands:  1 eigenvalues not converged
     ethr =  5.27E-06,  avg # of iterations =  4.9

     total cpu time spent up to now is      361.1 secs

     total energy              =    -917.79986601 Ry
     estimated scf accuracy    <       0.00109991 Ry

     total magnetization       =     2.01 Bohr mag/cell
     absolute magnetization    =     2.25 Bohr mag/cell
[tb_dev] Currently allocated     6.40E+00 Mbytes, locked:    0 /   9
[tb_pin] Currently allocated     0.00E+00 Mbytes, locked:    0 /   0

     iteration # 12     ecut=    60.00 Ry     beta= 0.40
     Davidson diagonalization with overlap

---- Real-time Memory Report at c_bands before calling an iterative solver
          6641 MiB given to the printing process from OS
          1613 MiB allocation reported by mallinfo(arena+hblkhd)
         53239 MiB available memory on the node where the printing process lives
     GPU memory used/free/total (MiB): 3370 / 12910 / 16280
------------------
     c_bands:  1 eigenvalues not converged
     c_bands:  1 eigenvalues not converged
     c_bands:  1 eigenvalues not converged
     c_bands:  1 eigenvalues not converged
     c_bands:  1 eigenvalues not converged
     c_bands:  1 eigenvalues not converged
     c_bands:  1 eigenvalues not converged
     c_bands:  1 eigenvalues not converged
     c_bands:  1 eigenvalues not converged
     c_bands:  1 eigenvalues not converged
     c_bands:  1 eigenvalues not converged
     c_bands:  1 eigenvalues not converged
     c_bands:  1 eigenvalues not converged
     c_bands:  1 eigenvalues not converged
     c_bands:  1 eigenvalues not converged
     c_bands:  1 eigenvalues not converged
     ethr =  1.10E-06,  avg # of iterations =  6.8

     total cpu time spent up to now is      403.2 secs

     total energy              =    -917.80007409 Ry
     estimated scf accuracy    <       0.00013642 Ry

     total magnetization       =     2.01 Bohr mag/cell
     absolute magnetization    =     2.26 Bohr mag/cell
[tb_dev] Currently allocated     6.40E+00 Mbytes, locked:    0 /   9
[tb_pin] Currently allocated     0.00E+00 Mbytes, locked:    0 /   0

     iteration # 13     ecut=    60.00 Ry     beta= 0.40
     Davidson diagonalization with overlap

---- Real-time Memory Report at c_bands before calling an iterative solver
          6656 MiB given to the printing process from OS
          1627 MiB allocation reported by mallinfo(arena+hblkhd)
         53225 MiB available memory on the node where the printing process lives
     GPU memory used/free/total (MiB): 3370 / 12910 / 16280
------------------
     c_bands:  1 eigenvalues not converged
     ethr =  1.36E-07,  avg # of iterations =  3.8

     total cpu time spent up to now is      440.3 secs

     total energy              =    -917.80014721 Ry
     estimated scf accuracy    <       0.00004529 Ry

     total magnetization       =     2.01 Bohr mag/cell
     absolute magnetization    =     2.27 Bohr mag/cell
[tb_dev] Currently allocated     6.40E+00 Mbytes, locked:    0 /   9
[tb_pin] Currently allocated     0.00E+00 Mbytes, locked:    0 /   0

     iteration # 14     ecut=    60.00 Ry     beta= 0.40
     Davidson diagonalization with overlap

---- Real-time Memory Report at c_bands before calling an iterative solver
          6671 MiB given to the printing process from OS
          1642 MiB allocation reported by mallinfo(arena+hblkhd)
         53207 MiB available memory on the node where the printing process lives
     GPU memory used/free/total (MiB): 3370 / 12910 / 16280
------------------
     ethr =  4.53E-08,  avg # of iterations =  2.5

     total cpu time spent up to now is      469.9 secs

     total energy              =    -917.80015914 Ry
     estimated scf accuracy    <       0.00001096 Ry

     total magnetization       =     2.02 Bohr mag/cell
     absolute magnetization    =     2.28 Bohr mag/cell
[tb_dev] Currently allocated     6.40E+00 Mbytes, locked:    0 /   9
[tb_pin] Currently allocated     0.00E+00 Mbytes, locked:    0 /   0

     iteration # 15     ecut=    60.00 Ry     beta= 0.40
     Davidson diagonalization with overlap

---- Real-time Memory Report at c_bands before calling an iterative solver
          6685 MiB given to the printing process from OS
          1657 MiB allocation reported by mallinfo(arena+hblkhd)
         53194 MiB available memory on the node where the printing process lives
     GPU memory used/free/total (MiB): 3370 / 12910 / 16280
------------------
     ethr =  1.10E-08,  avg # of iterations =  4.0

     total cpu time spent up to now is      508.1 secs

     total energy              =    -917.80016823 Ry
     estimated scf accuracy    <       0.00000300 Ry

     total magnetization       =     2.02 Bohr mag/cell
     absolute magnetization    =     2.28 Bohr mag/cell
[tb_dev] Currently allocated     6.40E+00 Mbytes, locked:    0 /   9
[tb_pin] Currently allocated     0.00E+00 Mbytes, locked:    0 /   0

     iteration # 16     ecut=    60.00 Ry     beta= 0.40
     Davidson diagonalization with overlap

---- Real-time Memory Report at c_bands before calling an iterative solver
          6703 MiB given to the printing process from OS
          1672 MiB allocation reported by mallinfo(arena+hblkhd)
         53181 MiB available memory on the node where the printing process lives
     GPU memory used/free/total (MiB): 3370 / 12910 / 16280
------------------
     ethr =  3.00E-09,  avg # of iterations =  2.7

     total cpu time spent up to now is      539.8 secs

     total energy              =    -917.80017166 Ry
     estimated scf accuracy    <       0.00000161 Ry

     total magnetization       =     2.02 Bohr mag/cell
     absolute magnetization    =     2.29 Bohr mag/cell
[tb_dev] Currently allocated     6.40E+00 Mbytes, locked:    0 /   9
[tb_pin] Currently allocated     0.00E+00 Mbytes, locked:    0 /   0

     iteration # 17     ecut=    60.00 Ry     beta= 0.40
     Davidson diagonalization with overlap

---- Real-time Memory Report at c_bands before calling an iterative solver
          6715 MiB given to the printing process from OS
          1686 MiB allocation reported by mallinfo(arena+hblkhd)
         53162 MiB available memory on the node where the printing process lives
     GPU memory used/free/total (MiB): 3370 / 12910 / 16280
------------------
     ethr =  1.61E-09,  avg # of iterations =  2.0

     total cpu time spent up to now is      567.3 secs

     total energy              =    -917.80017339 Ry
     estimated scf accuracy    <       0.00000210 Ry

     total magnetization       =     2.02 Bohr mag/cell
     absolute magnetization    =     2.29 Bohr mag/cell
[tb_dev] Currently allocated     6.40E+00 Mbytes, locked:    0 /   9
[tb_pin] Currently allocated     0.00E+00 Mbytes, locked:    0 /   0

     iteration # 18     ecut=    60.00 Ry     beta= 0.40
     Davidson diagonalization with overlap

---- Real-time Memory Report at c_bands before calling an iterative solver
          6732 MiB given to the printing process from OS
          1701 MiB allocation reported by mallinfo(arena+hblkhd)
         53149 MiB available memory on the node where the printing process lives
     GPU memory used/free/total (MiB): 3370 / 12910 / 16280
------------------
     ethr =  1.61E-09,  avg # of iterations =  1.4

     total cpu time spent up to now is      592.4 secs

     total energy              =    -917.80017564 Ry
     estimated scf accuracy    <       0.00000129 Ry

     total magnetization       =     2.02 Bohr mag/cell
     absolute magnetization    =     2.30 Bohr mag/cell
[tb_dev] Currently allocated     6.40E+00 Mbytes, locked:    0 /   9
[tb_pin] Currently allocated     0.00E+00 Mbytes, locked:    0 /   0

     iteration # 19     ecut=    60.00 Ry     beta= 0.40
     Davidson diagonalization with overlap

---- Real-time Memory Report at c_bands before calling an iterative solver
          6748 MiB given to the printing process from OS
          1716 MiB allocation reported by mallinfo(arena+hblkhd)
         53136 MiB available memory on the node where the printing process lives
     GPU memory used/free/total (MiB): 3370 / 12910 / 16280
------------------
     ethr =  1.29E-09,  avg # of iterations =  2.0

     total cpu time spent up to now is      620.8 secs

     total energy              =    -917.80017820 Ry
     estimated scf accuracy    <       0.00000115 Ry

     total magnetization       =     2.02 Bohr mag/cell
     absolute magnetization    =     2.30 Bohr mag/cell
[tb_dev] Currently allocated     6.40E+00 Mbytes, locked:    0 /   9
[tb_pin] Currently allocated     0.00E+00 Mbytes, locked:    0 /   0

     iteration # 20     ecut=    60.00 Ry     beta= 0.40
     Davidson diagonalization with overlap

---- Real-time Memory Report at c_bands before calling an iterative solver
          6765 MiB given to the printing process from OS
          1731 MiB allocation reported by mallinfo(arena+hblkhd)
         53118 MiB available memory on the node where the printing process lives
     GPU memory used/free/total (MiB): 3370 / 12910 / 16280
------------------
     ethr =  1.15E-09,  avg # of iterations =  2.0

     total cpu time spent up to now is      647.7 secs

     total energy              =    -917.80018005 Ry
     estimated scf accuracy    <       0.00000113 Ry

     total magnetization       =     2.02 Bohr mag/cell
     absolute magnetization    =     2.31 Bohr mag/cell
[tb_dev] Currently allocated     6.40E+00 Mbytes, locked:    0 /   9
[tb_pin] Currently allocated     0.00E+00 Mbytes, locked:    0 /   0

     iteration # 21     ecut=    60.00 Ry     beta= 0.40
     Davidson diagonalization with overlap

---- Real-time Memory Report at c_bands before calling an iterative solver
          6779 MiB given to the printing process from OS
          1745 MiB allocation reported by mallinfo(arena+hblkhd)
         53102 MiB available memory on the node where the printing process lives
     GPU memory used/free/total (MiB): 3370 / 12910 / 16280
------------------
     ethr =  1.13E-09,  avg # of iterations =  1.9

     total cpu time spent up to now is      674.0 secs

     total energy              =    -917.80017965 Ry
     estimated scf accuracy    <       0.00000112 Ry

     total magnetization       =     2.02 Bohr mag/cell
     absolute magnetization    =     2.31 Bohr mag/cell
[tb_dev] Currently allocated     6.40E+00 Mbytes, locked:    0 /   9
[tb_pin] Currently allocated     0.00E+00 Mbytes, locked:    0 /   0

     iteration # 22     ecut=    60.00 Ry     beta= 0.40
     Davidson diagonalization with overlap

---- Real-time Memory Report at c_bands before calling an iterative solver
          6797 MiB given to the printing process from OS
          1760 MiB allocation reported by mallinfo(arena+hblkhd)
         53090 MiB available memory on the node where the printing process lives
     GPU memory used/free/total (MiB): 3370 / 12910 / 16280
------------------
     ethr =  1.12E-09,  avg # of iterations =  1.0

     total cpu time spent up to now is      697.9 secs

     total energy              =    -917.80017117 Ry
     estimated scf accuracy    <       0.00000114 Ry

     total magnetization       =     2.02 Bohr mag/cell
     absolute magnetization    =     2.31 Bohr mag/cell
[tb_dev] Currently allocated     6.40E+00 Mbytes, locked:    0 /   9
[tb_pin] Currently allocated     0.00E+00 Mbytes, locked:    0 /   0

     iteration # 23     ecut=    60.00 Ry     beta= 0.40
     Davidson diagonalization with overlap

---- Real-time Memory Report at c_bands before calling an iterative solver
          6812 MiB given to the printing process from OS
          1775 MiB allocation reported by mallinfo(arena+hblkhd)
         53075 MiB available memory on the node where the printing process lives
     GPU memory used/free/total (MiB): 3370 / 12910 / 16280
------------------
     ethr =  1.12E-09,  avg # of iterations =  4.0

     total cpu time spent up to now is      737.1 secs

     total energy              =    -917.80018629 Ry
     estimated scf accuracy    <       0.00000143 Ry

     total magnetization       =     2.02 Bohr mag/cell
     absolute magnetization    =     2.35 Bohr mag/cell
[tb_dev] Currently allocated     6.40E+00 Mbytes, locked:    0 /   9
[tb_pin] Currently allocated     0.00E+00 Mbytes, locked:    0 /   0

     iteration # 24     ecut=    60.00 Ry     beta= 0.40
     Davidson diagonalization with overlap

---- Real-time Memory Report at c_bands before calling an iterative solver
          6830 MiB given to the printing process from OS
          1790 MiB allocation reported by mallinfo(arena+hblkhd)
         53060 MiB available memory on the node where the printing process lives
     GPU memory used/free/total (MiB): 3370 / 12910 / 16280
------------------
     ethr =  1.12E-09,  avg # of iterations =  4.1

     total cpu time spent up to now is      776.6 secs

     total energy              =    -917.80016592 Ry
     estimated scf accuracy    <       0.00000151 Ry

     total magnetization       =     2.02 Bohr mag/cell
     absolute magnetization    =     2.40 Bohr mag/cell
[tb_dev] Currently allocated     6.40E+00 Mbytes, locked:    0 /   9
[tb_pin] Currently allocated     0.00E+00 Mbytes, locked:    0 /   0

     iteration # 25     ecut=    60.00 Ry     beta= 0.40
     Davidson diagonalization with overlap

---- Real-time Memory Report at c_bands before calling an iterative solver
          6841 MiB given to the printing process from OS
          1804 MiB allocation reported by mallinfo(arena+hblkhd)
         53046 MiB available memory on the node where the printing process lives
     GPU memory used/free/total (MiB): 3370 / 12910 / 16280
------------------
     ethr =  1.12E-09,  avg # of iterations =  4.0

     total cpu time spent up to now is      815.8 secs

     total energy              =    -917.80015193 Ry
     estimated scf accuracy    <       0.00000144 Ry

     total magnetization       =     2.02 Bohr mag/cell
     absolute magnetization    =     2.35 Bohr mag/cell
[tb_dev] Currently allocated     6.40E+00 Mbytes, locked:    0 /   9
[tb_pin] Currently allocated     0.00E+00 Mbytes, locked:    0 /   0

     iteration # 26     ecut=    60.00 Ry     beta= 0.40
     Davidson diagonalization with overlap

---- Real-time Memory Report at c_bands before calling an iterative solver
          6859 MiB given to the printing process from OS
          1819 MiB allocation reported by mallinfo(arena+hblkhd)
         53029 MiB available memory on the node where the printing process lives
     GPU memory used/free/total (MiB): 3370 / 12910 / 16280
------------------
     ethr =  1.12E-09,  avg # of iterations =  4.2

     total cpu time spent up to now is      855.7 secs

     total energy              =    -917.80017648 Ry
     estimated scf accuracy    <       0.00000125 Ry

     total magnetization       =     2.02 Bohr mag/cell
     absolute magnetization    =     2.31 Bohr mag/cell
[tb_dev] Currently allocated     6.40E+00 Mbytes, locked:    0 /   9
[tb_pin] Currently allocated     0.00E+00 Mbytes, locked:    0 /   0

     iteration # 27     ecut=    60.00 Ry     beta= 0.40
     Davidson diagonalization with overlap

---- Real-time Memory Report at c_bands before calling an iterative solver
          6874 MiB given to the printing process from OS
          1860 MiB allocation reported by mallinfo(arena+hblkhd)
         53002 MiB available memory on the node where the printing process lives
     GPU memory used/free/total (MiB): 3370 / 12910 / 16280
------------------
     ethr =  1.12E-09,  avg # of iterations =  4.0

     total cpu time spent up to now is      892.7 secs

     total energy              =    -917.80017974 Ry
     estimated scf accuracy    <       0.00000132 Ry

     total magnetization       =     2.02 Bohr mag/cell
     absolute magnetization    =     2.33 Bohr mag/cell
[tb_dev] Currently allocated     6.40E+00 Mbytes, locked:    0 /   9
[tb_pin] Currently allocated     0.00E+00 Mbytes, locked:    0 /   0

     iteration # 28     ecut=    60.00 Ry     beta= 0.40
     Davidson diagonalization with overlap

---- Real-time Memory Report at c_bands before calling an iterative solver
          6891 MiB given to the printing process from OS
          1875 MiB allocation reported by mallinfo(arena+hblkhd)
         52987 MiB available memory on the node where the printing process lives
     GPU memory used/free/total (MiB): 3370 / 12910 / 16280
------------------
     ethr =  1.12E-09,  avg # of iterations =  2.5

     total cpu time spent up to now is      922.3 secs

     total energy              =    -917.80018372 Ry
     estimated scf accuracy    <       0.00000135 Ry

     total magnetization       =     2.02 Bohr mag/cell
     absolute magnetization    =     2.32 Bohr mag/cell
[tb_dev] Currently allocated     6.40E+00 Mbytes, locked:    0 /   9
[tb_pin] Currently allocated     0.00E+00 Mbytes, locked:    0 /   0

     iteration # 29     ecut=    60.00 Ry     beta= 0.40
     Davidson diagonalization with overlap

---- Real-time Memory Report at c_bands before calling an iterative solver
          6906 MiB given to the printing process from OS
          1890 MiB allocation reported by mallinfo(arena+hblkhd)
         52960 MiB available memory on the node where the printing process lives
     GPU memory used/free/total (MiB): 3370 / 12910 / 16280
------------------
     ethr =  1.12E-09,  avg # of iterations =  1.0

     total cpu time spent up to now is      946.3 secs

     total energy              =    -917.80017688 Ry
     estimated scf accuracy    <       0.00000130 Ry

     total magnetization       =     2.02 Bohr mag/cell
     absolute magnetization    =     2.32 Bohr mag/cell
[tb_dev] Currently allocated     6.40E+00 Mbytes, locked:    0 /   9
[tb_pin] Currently allocated     0.00E+00 Mbytes, locked:    0 /   0

     iteration # 30     ecut=    60.00 Ry     beta= 0.40
     Davidson diagonalization with overlap

---- Real-time Memory Report at c_bands before calling an iterative solver
          6926 MiB given to the printing process from OS
          1904 MiB allocation reported by mallinfo(arena+hblkhd)
         52943 MiB available memory on the node where the printing process lives
     GPU memory used/free/total (MiB): 3370 / 12910 / 16280
------------------
     ethr =  1.12E-09,  avg # of iterations =  2.5

     total cpu time spent up to now is      976.4 secs

     total energy              =    -917.80016311 Ry
     estimated scf accuracy    <       0.00000159 Ry

     total magnetization       =     2.02 Bohr mag/cell
     absolute magnetization    =     2.31 Bohr mag/cell
[tb_dev] Currently allocated     6.40E+00 Mbytes, locked:    0 /   9
[tb_pin] Currently allocated     0.00E+00 Mbytes, locked:    0 /   0

     iteration # 31     ecut=    60.00 Ry     beta= 0.40
     Davidson diagonalization with overlap

---- Real-time Memory Report at c_bands before calling an iterative solver
          6941 MiB given to the printing process from OS
          1919 MiB allocation reported by mallinfo(arena+hblkhd)
         52932 MiB available memory on the node where the printing process lives
     GPU memory used/free/total (MiB): 3370 / 12910 / 16280
------------------
     ethr =  1.12E-09,  avg # of iterations =  4.0

     total cpu time spent up to now is     1014.1 secs

     total energy              =    -917.80016458 Ry
     estimated scf accuracy    <       0.00000159 Ry

     total magnetization       =     2.02 Bohr mag/cell
     absolute magnetization    =     2.29 Bohr mag/cell
[tb_dev] Currently allocated     6.40E+00 Mbytes, locked:    0 /   9
[tb_pin] Currently allocated     0.00E+00 Mbytes, locked:    0 /   0

     iteration # 32     ecut=    60.00 Ry     beta= 0.40
     Davidson diagonalization with overlap

---- Real-time Memory Report at c_bands before calling an iterative solver
          6956 MiB given to the printing process from OS
          1934 MiB allocation reported by mallinfo(arena+hblkhd)
         52917 MiB available memory on the node where the printing process lives
     GPU memory used/free/total (MiB): 3370 / 12910 / 16280
------------------
     ethr =  1.12E-09,  avg # of iterations =  4.0

     total cpu time spent up to now is     1053.5 secs

     total energy              =    -917.79984038 Ry
     estimated scf accuracy    <       0.00000166 Ry

     total magnetization       =     2.02 Bohr mag/cell
     absolute magnetization    =     2.32 Bohr mag/cell
[tb_dev] Currently allocated     6.40E+00 Mbytes, locked:    0 /   9
[tb_pin] Currently allocated     0.00E+00 Mbytes, locked:    0 /   0

     iteration # 33     ecut=    60.00 Ry     beta= 0.40
     Davidson diagonalization with overlap

---- Real-time Memory Report at c_bands before calling an iterative solver
          6974 MiB given to the printing process from OS
          1949 MiB allocation reported by mallinfo(arena+hblkhd)
         52900 MiB available memory on the node where the printing process lives
     GPU memory used/free/total (MiB): 3370 / 12910 / 16280
------------------
     ethr =  1.12E-09,  avg # of iterations =  6.0

     total cpu time spent up to now is     1105.5 secs

     total energy              =    -917.80013625 Ry
     estimated scf accuracy    <       0.00000156 Ry

     total magnetization       =     2.02 Bohr mag/cell
     absolute magnetization    =     2.30 Bohr mag/cell
[tb_dev] Currently allocated     6.40E+00 Mbytes, locked:    0 /   9
[tb_pin] Currently allocated     0.00E+00 Mbytes, locked:    0 /   0

     iteration # 34     ecut=    60.00 Ry     beta= 0.40
     Davidson diagonalization with overlap

---- Real-time Memory Report at c_bands before calling an iterative solver
          6991 MiB given to the printing process from OS
          1963 MiB allocation reported by mallinfo(arena+hblkhd)
         52887 MiB available memory on the node where the printing process lives
     GPU memory used/free/total (MiB): 3370 / 12910 / 16280
------------------
     ethr =  1.12E-09,  avg # of iterations =  2.3

     total cpu time spent up to now is     1136.1 secs

     total energy              =    -917.80012566 Ry
     estimated scf accuracy    <       0.00000140 Ry

     total magnetization       =     2.02 Bohr mag/cell
     absolute magnetization    =     2.29 Bohr mag/cell
[tb_dev] Currently allocated     6.40E+00 Mbytes, locked:    0 /   9
[tb_pin] Currently allocated     0.00E+00 Mbytes, locked:    0 /   0

[...]
[tb_dev] Currently allocated     6.40E+00 Mbytes, locked:    0 /   9
[tb_pin] Currently allocated     0.00E+00 Mbytes, locked:    0 /   0

     iteration # 65     ecut=    60.00 Ry     beta= 0.40
     Davidson diagonalization with overlap

---- Real-time Memory Report at c_bands before calling an iterative solver
          7486 MiB given to the printing process from OS
         -1647 MiB allocation reported by mallinfo(arena+hblkhd)
         52402 MiB available memory on the node where the printing process lives
     GPU memory used/free/total (MiB): 3370 / 12910 / 16280
------------------
     ethr =  3.88E-10,  avg # of iterations = 12.0

     total cpu time spent up to now is     2651.6 secs

     total energy              =    -917.79962990 Ry
     estimated scf accuracy    <       0.00042213 Ry

     total magnetization       =     2.01 Bohr mag/cell
     absolute magnetization    =     3.67 Bohr mag/cell
[tb_dev] Currently allocated     6.40E+00 Mbytes, locked:    0 /   9
[tb_pin] Currently allocated     0.00E+00 Mbytes, locked:    0 /   0

     iteration # 66     ecut=    60.00 Ry     beta= 0.40
     Davidson diagonalization with overlap

---- Real-time Memory Report at c_bands before calling an iterative solver
          7503 MiB given to the printing process from OS
         -1633 MiB allocation reported by mallinfo(arena+hblkhd)
         52383 MiB available memory on the node where the printing process lives
     GPU memory used/free/total (MiB): 3370 / 12910 / 16280
------------------
     ethr =  3.88E-10,  avg # of iterations =  8.1

     total cpu time spent up to now is     2717.4 secs

     total energy              =    -917.80052743 Ry
     estimated scf accuracy    <       0.00022518 Ry

     total magnetization       =     2.01 Bohr mag/cell
     absolute magnetization    =     3.36 Bohr mag/cell
[tb_dev] Currently allocated     6.40E+00 Mbytes, locked:    0 /   9
[tb_pin] Currently allocated     0.00E+00 Mbytes, locked:    0 /   0

     iteration # 67     ecut=    60.00 Ry     beta= 0.40
     Davidson diagonalization with overlap

---- Real-time Memory Report at c_bands before calling an iterative solver
          7519 MiB given to the printing process from OS
         -1618 MiB allocation reported by mallinfo(arena+hblkhd)
         52361 MiB available memory on the node where the printing process lives
     GPU memory used/free/total (MiB): 3370 / 12910 / 16280
------------------
     ethr =  3.88E-10,  avg # of iterations =  5.1

     total cpu time spent up to now is     2763.2 secs

     total energy              =    -917.80028070 Ry
     estimated scf accuracy    <       0.00019529 Ry

     total magnetization       =     2.01 Bohr mag/cell
     absolute magnetization    =     3.30 Bohr mag/cell
[tb_dev] Currently allocated     6.40E+00 Mbytes, locked:    0 /   9
[tb_pin] Currently allocated     0.00E+00 Mbytes, locked:    0 /   0

     iteration # 68     ecut=    60.00 Ry     beta= 0.40
     Davidson diagonalization with overlap

---- Real-time Memory Report at c_bands before calling an iterative solver
          7535 MiB given to the printing process from OS
         -1599 MiB allocation reported by mallinfo(arena+hblkhd)
         52348 MiB available memory on the node where the printing process lives
     GPU memory used/free/total (MiB): 3370 / 12910 / 16280
------------------
     ethr =  3.88E-10,  avg # of iterations =  7.2

     total cpu time spent up to now is     2822.9 secs

     total energy              =    -917.78359905 Ry
     estimated scf accuracy    <       0.00029155 Ry

     total magnetization       =     2.01 Bohr mag/cell
     absolute magnetization    =     3.49 Bohr mag/cell
[tb_dev] Currently allocated     6.40E+00 Mbytes, locked:    0 /   9
[tb_pin] Currently allocated     0.00E+00 Mbytes, locked:    0 /   0

     iteration # 69     ecut=    60.00 Ry     beta= 0.40
     Davidson diagonalization with overlap

---- Real-time Memory Report at c_bands before calling an iterative solver
          7552 MiB given to the printing process from OS
         -1584 MiB allocation reported by mallinfo(arena+hblkhd)
         52333 MiB available memory on the node where the printing process lives
     GPU memory used/free/total (MiB): 3370 / 12910 / 16280
------------------
     ethr =  3.88E-10,  avg # of iterations = 11.2

     total cpu time spent up to now is     2912.4 secs

     total energy              =    -917.79868364 Ry
     estimated scf accuracy    <       0.00192311 Ry

     total magnetization       =     2.01 Bohr mag/cell
     absolute magnetization    =     4.77 Bohr mag/cell
[tb_dev] Currently allocated     6.40E+00 Mbytes, locked:    0 /   9
[tb_pin] Currently allocated     0.00E+00 Mbytes, locked:    0 /   0

     iteration # 70     ecut=    60.00 Ry     beta= 0.40
     Davidson diagonalization with overlap

---- Real-time Memory Report at c_bands before calling an iterative solver
          7569 MiB given to the printing process from OS
         -1567 MiB allocation reported by mallinfo(arena+hblkhd)
         52317 MiB available memory on the node where the printing process lives
     GPU memory used/free/total (MiB): 3370 / 12910 / 16280
------------------
     ethr =  3.88E-10,  avg # of iterations =  9.0

     total cpu time spent up to now is     2984.3 secs

     total energy              =    -917.79815356 Ry
     estimated scf accuracy    <       0.00108250 Ry

     total magnetization       =     2.01 Bohr mag/cell
     absolute magnetization    =     4.33 Bohr mag/cell
[tb_dev] Currently allocated     6.40E+00 Mbytes, locked:    0 /   9
[tb_pin] Currently allocated     0.00E+00 Mbytes, locked:    0 /   0

     iteration # 71     ecut=    60.00 Ry     beta= 0.40
     Davidson diagonalization with overlap

---- Real-time Memory Report at c_bands before calling an iterative solver
          7584 MiB given to the printing process from OS
         -1552 MiB allocation reported by mallinfo(arena+hblkhd)
         52303 MiB available memory on the node where the printing process lives
     GPU memory used/free/total (MiB): 3370 / 12910 / 16280
------------------
     ethr =  3.88E-10,  avg # of iterations =  9.3

     total cpu time spent up to now is     3058.7 secs

     total energy              =    -917.78380196 Ry
     estimated scf accuracy    <       0.00046761 Ry

     total magnetization       =     2.01 Bohr mag/cell
     absolute magnetization    =     3.82 Bohr mag/cell
[tb_dev] Currently allocated     6.40E+00 Mbytes, locked:    0 /   9
[tb_pin] Currently allocated     0.00E+00 Mbytes, locked:    0 /   0

     iteration # 72     ecut=    60.00 Ry     beta= 0.40
     Davidson diagonalization with overlap

---- Real-time Memory Report at c_bands before calling an iterative solver
          7600 MiB given to the printing process from OS
         -1537 MiB allocation reported by mallinfo(arena+hblkhd)
         52288 MiB available memory on the node where the printing process lives
     GPU memory used/free/total (MiB): 3370 / 12910 / 16280
------------------
     ethr =  3.88E-10,  avg # of iterations = 11.2

     total cpu time spent up to now is     3147.5 secs

     total energy              =    -917.79541766 Ry
     estimated scf accuracy    <       0.00003262 Ry

     total magnetization       =     2.02 Bohr mag/cell
     absolute magnetization    =     2.50 Bohr mag/cell
[tb_dev] Currently allocated     6.40E+00 Mbytes, locked:    0 /   9
[tb_pin] Currently allocated     0.00E+00 Mbytes, locked:    0 /   0

     iteration # 73     ecut=    60.00 Ry     beta= 0.40
     Davidson diagonalization with overlap

---- Real-time Memory Report at c_bands before calling an iterative solver
          7614 MiB given to the printing process from OS
         -1522 MiB allocation reported by mallinfo(arena+hblkhd)
         52266 MiB available memory on the node where the printing process lives
     GPU memory used/free/total (MiB): 3370 / 12910 / 16280
------------------
     ethr =  3.88E-10,  avg # of iterations =  9.9

     total cpu time spent up to now is     3225.9 secs

     total energy              =    -917.79976407 Ry
     estimated scf accuracy    <       0.00000978 Ry

     total magnetization       =     2.02 Bohr mag/cell
     absolute magnetization    =     2.57 Bohr mag/cell
[tb_dev] Currently allocated     6.40E+00 Mbytes, locked:    0 /   9
[tb_pin] Currently allocated     0.00E+00 Mbytes, locked:    0 /   0

     iteration # 74     ecut=    60.00 Ry     beta= 0.40
     Davidson diagonalization with overlap

---- Real-time Memory Report at c_bands before calling an iterative solver
          7631 MiB given to the printing process from OS
         -1503 MiB allocation reported by mallinfo(arena+hblkhd)
         52253 MiB available memory on the node where the printing process lives
     GPU memory used/free/total (MiB): 3370 / 12910 / 16280
------------------
     ethr =  3.88E-10,  avg # of iterations =  6.8

     total cpu time spent up to now is     3283.4 secs

     total energy              =    -917.79947623 Ry
     estimated scf accuracy    <       0.00000924 Ry

     total magnetization       =     2.02 Bohr mag/cell
     absolute magnetization    =     2.73 Bohr mag/cell
[tb_dev] Currently allocated     6.40E+00 Mbytes, locked:    0 /   9
[tb_pin] Currently allocated     0.00E+00 Mbytes, locked:    0 /   0

     iteration # 75     ecut=    60.00 Ry     beta= 0.40
     Davidson diagonalization with overlap

---- Real-time Memory Report at c_bands before calling an iterative solver
          7648 MiB given to the printing process from OS
         -1488 MiB allocation reported by mallinfo(arena+hblkhd)
         52236 MiB available memory on the node where the printing process lives
     GPU memory used/free/total (MiB): 3370 / 12910 / 16280
------------------
     ethr =  3.88E-10,  avg # of iterations =  7.5

     total cpu time spent up to now is     3345.1 secs

     total energy              =    -917.79914688 Ry
     estimated scf accuracy    <       0.00001110 Ry

     total magnetization       =     2.02 Bohr mag/cell
     absolute magnetization    =     2.95 Bohr mag/cell
[tb_dev] Currently allocated     6.40E+00 Mbytes, locked:    0 /   9
[tb_pin] Currently allocated     0.00E+00 Mbytes, locked:    0 /   0

     iteration # 76     ecut=    60.00 Ry     beta= 0.40
     Davidson diagonalization with overlap

---- Real-time Memory Report at c_bands before calling an iterative solver
          7662 MiB given to the printing process from OS
         -1473 MiB allocation reported by mallinfo(arena+hblkhd)
         52224 MiB available memory on the node where the printing process lives
     GPU memory used/free/total (MiB): 3370 / 12910 / 16280
------------------
     ethr =  3.88E-10,  avg # of iterations =  7.9

     total cpu time spent up to now is     3409.1 secs

     total energy              =    -917.79842826 Ry
     estimated scf accuracy    <       0.00001950 Ry

     total magnetization       =     2.02 Bohr mag/cell
     absolute magnetization    =     3.23 Bohr mag/cell
[tb_dev] Currently allocated     6.40E+00 Mbytes, locked:    0 /   9
[tb_pin] Currently allocated     0.00E+00 Mbytes, locked:    0 /   0

     iteration # 77     ecut=    60.00 Ry     beta= 0.40
     Davidson diagonalization with overlap

---- Real-time Memory Report at c_bands before calling an iterative solver
          7678 MiB given to the printing process from OS
         -1458 MiB allocation reported by mallinfo(arena+hblkhd)
         52200 MiB available memory on the node where the printing process lives
     GPU memory used/free/total (MiB): 3370 / 12910 / 16280
------------------
     ethr =  3.88E-10,  avg # of iterations =  8.7

     total cpu time spent up to now is     3478.8 secs

     total energy              =    -917.79990734 Ry
     estimated scf accuracy    <       0.00001041 Ry

     total magnetization       =     2.02 Bohr mag/cell
     absolute magnetization    =     2.84 Bohr mag/cell
[tb_dev] Currently allocated     6.40E+00 Mbytes, locked:    0 /   9
[tb_pin] Currently allocated     0.00E+00 Mbytes, locked:    0 /   0

     iteration # 78     ecut=    60.00 Ry     beta= 0.40
     Davidson diagonalization with overlap

---- Real-time Memory Report at c_bands before calling an iterative solver
          7695 MiB given to the printing process from OS
         -1438 MiB allocation reported by mallinfo(arena+hblkhd)
         52187 MiB available memory on the node where the printing process lives
     GPU memory used/free/total (MiB): 3370 / 12910 / 16280
------------------
     ethr =  3.88E-10,  avg # of iterations =  6.1

     total cpu time spent up to now is     3532.3 secs

     total energy              =    -917.79977780 Ry
     estimated scf accuracy    <       0.00001002 Ry

     total magnetization       =     2.02 Bohr mag/cell
     absolute magnetization    =     2.73 Bohr mag/cell
[tb_dev] Currently allocated     6.40E+00 Mbytes, locked:    0 /   9
[tb_pin] Currently allocated     0.00E+00 Mbytes, locked:    0 /   0

     iteration # 79     ecut=    60.00 Ry     beta= 0.40
     Davidson diagonalization with overlap

---- Real-time Memory Report at c_bands before calling an iterative solver
          7712 MiB given to the printing process from OS
         -1424 MiB allocation reported by mallinfo(arena+hblkhd)
         52173 MiB available memory on the node where the printing process lives
     GPU memory used/free/total (MiB): 3370 / 12910 / 16280
------------------
     ethr =  3.88E-10,  avg # of iterations =  6.9

     total cpu time spent up to now is     3590.2 secs

     total energy              =    -917.80001094 Ry
     estimated scf accuracy    <       0.00001625 Ry

     total magnetization       =     2.02 Bohr mag/cell
     absolute magnetization    =     2.57 Bohr mag/cell
[tb_dev] Currently allocated     6.40E+00 Mbytes, locked:    0 /   9
[tb_pin] Currently allocated     0.00E+00 Mbytes, locked:    0 /   0

     iteration # 80     ecut=    60.00 Ry     beta= 0.40
     Davidson diagonalization with overlap

---- Real-time Memory Report at c_bands before calling an iterative solver
          7727 MiB given to the printing process from OS
         -1409 MiB allocation reported by mallinfo(arena+hblkhd)
         52160 MiB available memory on the node where the printing process lives
     GPU memory used/free/total (MiB): 3370 / 12910 / 16280
------------------
     ethr =  3.88E-10,  avg # of iterations =  5.1

     total cpu time spent up to now is     3636.2 secs

     total energy              =    -917.79991770 Ry
     estimated scf accuracy    <       0.00001443 Ry

     total magnetization       =     2.02 Bohr mag/cell
     absolute magnetization    =     2.63 Bohr mag/cell

     End of self-consistent calculation

     convergence NOT achieved after  80 iterations: stopping

     Writing config to output data dir ./out/aiida.save/
 
     init_run     :     48.47s CPU     24.86s WALL (       1 calls)
     electrons    :   4057.94s CPU   3610.46s WALL (       1 calls)

     Called by init_run:
     wfcinit      :     15.44s CPU     18.52s WALL (       1 calls)
                                       18.52s GPU  (       1 calls)
     wfcinit:atom :      0.22s CPU      0.40s WALL (     436 calls)
                                        0.40s GPU  (     436 calls)
     wfcinit:wfcr :      8.24s CPU      9.32s WALL (     436 calls)
                                        9.31s GPU  (     436 calls)
     potinit      :     16.84s CPU      1.53s WALL (       1 calls)
     hinit0       :      9.69s CPU      3.64s WALL (       1 calls)

     Called by electrons:
     c_bands      :   3015.13s CPU   3181.65s WALL (      80 calls)
     sum_band     :    331.30s CPU    361.80s WALL (      80 calls)
     v_of_rho     :     38.02s CPU      3.43s WALL (      81 calls)
     v_h          :      5.66s CPU      0.50s WALL (      81 calls)
     v_xc         :     32.35s CPU      2.93s WALL (      81 calls)
     newd         :     84.91s CPU      8.07s WALL (      81 calls)
                                        8.07s GPU  (      81 calls)
     PAW_pot      :    536.02s CPU     49.86s WALL (      81 calls)
     mix_rho      :     49.10s CPU      5.49s WALL (      80 calls)

     Called by c_bands:
     init_us_2    :    109.28s CPU    125.42s WALL (   70196 calls)
     init_us_2:gp :    108.11s CPU    124.25s WALL (   70196 calls)
     cegterg      :   2711.03s CPU   2869.74s WALL (   34880 calls)

     Called by sum_band:
     sum_band:wei :      2.16s CPU      2.17s WALL (      80 calls)
                                        2.16s GPU  (      80 calls)
     sum_band:loo :    318.41s CPU    348.59s WALL (      80 calls)
                                      348.59s GPU  (      80 calls)
     sum_band:buf :    104.57s CPU    108.88s WALL (   34880 calls)
                                      108.67s GPU  (   34880 calls)
     sum_band:ini :     51.89s CPU     61.83s WALL (   34880 calls)
                                       61.63s GPU  (   34880 calls)
     sum_band:cal :      0.99s CPU     13.87s WALL (   34880 calls)
                                       10.52s GPU  (   34880 calls)
     sum_band:bec :     12.40s CPU     13.53s WALL (   34880 calls)
                                       13.30s GPU  (   34880 calls)
     addusdens    :      7.34s CPU      7.58s WALL (      80 calls)
                                        7.58s GPU  (      80 calls)
     addusd:skk   :      0.06s CPU      0.06s WALL (     320 calls)
                                        0.06s GPU  (     320 calls)

     Called by *egterg:
     cdiaghg      :    954.06s CPU   1092.13s WALL (  208789 calls)
                                     1090.75s GPU  (  208789 calls)
     cegterg:over :     71.90s CPU     73.94s WALL (  173909 calls)
     cegterg:upda :    127.33s CPU    132.55s WALL (  173909 calls)
     cegterg:last :     71.04s CPU     72.15s WALL (  125651 calls)
     h_psi        :   1313.50s CPU   1327.90s WALL (  209225 calls)
                                     1325.32s GPU  (  209225 calls)
     s_psi        :     37.43s CPU     89.34s WALL (  209225 calls)
                                       82.59s GPU  (  209225 calls)
     g_psi        :      1.23s CPU      9.91s WALL (  173909 calls)
                                        8.78s GPU  (  173909 calls)

     Called by h_psi:
     h_psi:calbec :      6.63s CPU     56.75s WALL (  209225 calls)
                                       55.38s GPU  (  209225 calls)
     vloc_psi     :   1126.02s CPU   1139.22s WALL (  209225 calls)
                                     1137.90s GPU  (  209225 calls)
     add_vuspsi   :     69.67s CPU    112.39s WALL (  209225 calls)
                                      111.02s GPU  (  209225 calls)

     General routines
     calbec       :      5.46s CPU      5.60s WALL (  244105 calls)
     fft          :      2.63s CPU      0.54s WALL (    2023 calls)
                                        0.44s GPU  (    1861 calls)
     ffts         :      0.21s CPU      0.05s WALL (     322 calls)
                                        0.01s GPU  (     160 calls)
     fftw         :     25.09s CPU    869.68s WALL ( 1290288 calls)
                                      861.84s GPU  ( 1290288 calls)
     interpolate  :      5.07s CPU      0.45s WALL (     162 calls)
     davcio       :      0.71s CPU      2.93s WALL (     454 calls)
 
     Parallel routines

     PAW routines
     PAW_pot      :    536.02s CPU     49.86s WALL (      81 calls)
     PAW_symme    :      0.04s CPU      0.01s WALL (     161 calls)
 
     PWSCF        :      1h 8m CPU      1h 0m WALL

 
   This run was terminated on:   0:51:23  23Oct2023            

=------------------------------------------------------------------------------=
   JOB DONE.
=------------------------------------------------------------------------------=
