
     Program PWSCF v.7.2 starts on 23Oct2023 at  0:25:46 

     This program is part of the open-source Quantum ESPRESSO suite
     for quantum simulation of materials; please cite
         "P. Giannozzi et al., J. Phys.:Condens. Matter 21 395502 (2009);
         "P. Giannozzi et al., J. Phys.:Condens. Matter 29 465901 (2017);
         "P. Giannozzi et al., J. Chem. Phys. 152 154105 (2020);
          URL http://www.quantum-espresso.org", 
     in publications or presentations arising from this work. More details at
     http://www.quantum-espresso.org/quote

     Parallel version (MPI & OpenMP), running on      12 processor cores
     Number of MPI processes:                 1
     Threads/MPI process:                    12

     MPI processes distributed on     1 nodes
     60404 MiB available memory on the printing compute node when the environment starts
 
     Reading input from aiida.in

     Current dimensions of program PWSCF are:
     Max number of different atomic species (ntypx) = 10
     Max number of k-points (npk) =  40000
     Max angular momentum in pseudopotentials (lmaxx) =  4
     file Ba.pbesol-spn-kjpaw_psl.1.0.0.UPF: wavefunction(s)  5S 6S renormalized
     Message from routine setup:
     using ibrav=0 with symmetry is DISCOURAGED, use correct ibrav instead
 
     Subspace diagonalization in iterative solution of the eigenvalue problem:
     a serial algorithm will be used

 
     G-vector sticks info
     --------------------
     sticks:   dense  smooth     PW     G-vecs:    dense   smooth      PW
     Sum        5227    2619    799               176509    62413   10465
 
     Using Slab Decomposition
 


     bravais-lattice index     =            0
     lattice parameter (alat)  =      18.1840  a.u.
     unit-cell volume          =    2809.9397 (a.u.)^3
     number of atoms/cell      =           14
     number of atomic types    =            2
     number of electrons       =       100.00
     number of Kohn-Sham states=           60
     kinetic-energy cutoff     =      30.0000  Ry
     charge density cutoff     =     240.0000  Ry
     scf convergence threshold =      2.8E-09
     mixing beta               =       0.4000
     number of iterations used =            8  plain     mixing
     Exchange-correlation= PBESOL
                           (   1   4  10   8   0   0   0)

     GPU acceleration is ACTIVE.


     GPU used by master process:

        Device Number: 0
        Device name: Tesla P100-PCIE-16GB
        Compute capability : 60
        Ratio of single to double precision performance  : 2
        Memory Clock Rate (KHz): 715000
        Memory Bus Width (bits): 4096
        Peak Memory Bandwidth (GB/s): 732.16

     celldm(1)=  18.183992  celldm(2)=   0.000000  celldm(3)=   0.000000
     celldm(4)=   0.000000  celldm(5)=   0.000000  celldm(6)=   0.000000

     crystal axes: (cart. coord. in units of alat)
               a(1) = (   0.000000   0.947565   0.319562 )  
               a(2) = (   0.771677   0.000000   0.319562 )  
               a(3) = (   0.771677   0.947565   0.000000 )  

     reciprocal axes: (cart. coord. in units 2 pi/alat)
               b(1) = ( -0.647940  0.527668  1.564643 )  
               b(2) = (  0.647940 -0.527668  1.564643 )  
               b(3) = (  0.647940  0.527668 -1.564643 )  


     PseudoPot. # 1 for Ba read from file:
     ./pseudo/Ba.pbesol-spn-kjpaw_psl.1.0.0.UPF
     MD5 check sum: f28c4a63d325c1a0d00fd3a4f19b8d73
     Pseudo is Projector augmented-wave + core cor, Zval = 10.0
     Generated using "atomic" code by A. Dal Corso  v.6.0 svn rev. 13079
     Shape of augmentation charge: PSQ
     Using radial grid of 1251 points,  7 beta functions with: 
                l(1) =   0
                l(2) =   0
                l(3) =   0
                l(4) =   1
                l(5) =   1
                l(6) =   2
                l(7) =   2
     Q(r) pseudized with 0 coefficients 


     PseudoPot. # 2 for P  read from file:
     ./pseudo/P.pbesol-n-rrkjus_psl.1.0.0.UPF
     MD5 check sum: bbb94b1b16383820d6a769669b5d42db
     Pseudo is Ultrasoft + core correction, Zval =  5.0
     Generated using "atomic" code by A. Dal Corso  v.6.0 svn rev. 13079
     Using radial grid of 1147 points,  6 beta functions with: 
                l(1) =   0
                l(2) =   0
                l(3) =   1
                l(4) =   1
                l(5) =   2
                l(6) =   2
     Q(r) pseudized with 0 coefficients 


     atomic species   valence    mass     pseudopotential
        Ba            10.00   137.32700     Ba( 1.00)
        P              5.00    30.97376     P ( 1.00)

     Starting magnetic structure 
     atomic species   magnetization
        Ba           0.100
        P            0.100

      4 Sym. Ops. (no inversion) found ( 2 have fractional translation)


                                    s                        frac. trans.

      isym =  1     identity                                     

 cryst.   s( 1) = (     1          0          0      )
                  (     0          1          0      )
                  (     0          0          1      )

 cart.    s( 1) = (  1.0000000 -0.0000000  0.0000000 )
                  (  0.0000000  1.0000000 -0.0000000 )
                  (  0.0000000 -0.0000000  1.0000000 )


      isym =  2     180 deg rotation - cart. axis [0,0,1]        

 cryst.   s( 2) = (     0          1         -1      )
                  (     1          0         -1      )
                  (     0          0         -1      )

 cart.    s( 2) = ( -1.0000000  0.0000000  0.0000000 )
                  ( -0.0000000 -1.0000000 -0.0000000 )
                  ( -0.0000000  0.0000000  1.0000000 )


      isym =  3     inv. 180 deg rotation - cart. axis [0,1,0]   

 cryst.   s( 3) = (     0          1         -1      )    f =( -0.2500000 )
                  (     0          1          0      )       ( -0.2500000 )
                  (    -1          1          0      )       ( -0.2500000 )

 cart.    s( 3) = (  1.0000000  0.0000000  0.0000000 )    f =( -0.3858383 )
                  (  0.0000000 -1.0000000 -0.0000000 )       ( -0.4737827 )
                  (  0.0000000  0.0000000  1.0000000 )       ( -0.1597809 )


      isym =  4     inv. 180 deg rotation - cart. axis [1,0,0]   

 cryst.   s( 4) = (     1          0          0      )    f =( -0.2500000 )
                  (     1          0         -1      )       ( -0.2500000 )
                  (     1         -1          0      )       ( -0.2500000 )

 cart.    s( 4) = ( -1.0000000 -0.0000000  0.0000000 )    f =( -0.3858383 )
                  ( -0.0000000  1.0000000 -0.0000000 )       ( -0.4737827 )
                  ( -0.0000000 -0.0000000  1.0000000 )       ( -0.1597809 )


   Cartesian axes

     site n.     atom                  positions (alat units)
         1           Ba  tau(   1) = (   0.0072538   0.3197086   0.3158548  )
         2           Ba  tau(   2) = (   0.3930921   0.1540741   0.4756357  )
         3           Ba  tau(   3) = (   0.7644229   0.6278569   0.3158548  )
         4           Ba  tau(   4) = (   0.3785845   0.7934913   0.4756357  )
         5           Ba  tau(   5) = (  -0.0000000   0.9475655   0.3195617  )
         6           Ba  tau(   6) = (   0.3858383   0.4737827   0.1597809  )
         7           P   tau(   7) = (   0.6509864   0.0045483   0.0022369  )
         8           P   tau(   8) = (   0.2651481   0.4692344   0.4815795  )
         9           P   tau(   9) = (   0.1206902   0.9430171   0.0022369  )
        10           P   tau(  10) = (   0.5065285   0.4783310   0.4815795  )
        11           P   tau(  11) = (   0.6224344   0.6180022   0.6254462  )
        12           P   tau(  12) = (   0.2365960   0.8033460   0.1461036  )
        13           P   tau(  13) = (   0.1492423   0.3295633   0.6254462  )
        14           P   tau(  14) = (   0.5350806   0.1442195   0.1461036  )

   Crystallographic axes

     site n.     atom                  positions (cryst. coord.)
         1           Ba  tau(   1) = (  0.6582000  0.3302000 -0.3208000  )
         2           Ba  tau(   2) = (  0.5708000  0.9176000 -0.4082000  )
         3           Ba  tau(   3) = (  0.3302000  0.6582000  0.3324000  )
         4           Ba  tau(   4) = (  0.9176000  0.5708000 -0.0802000  )
         5           Ba  tau(   5) = (  1.0000000  0.0000000 -0.0000000  )
         6           Ba  tau(   6) = (  0.2500000  0.2500000  0.2500000  )
         7           P   tau(   7) = ( -0.4159000  0.4229000  0.4207000  )
         8           P   tau(   8) = (  0.8293000  0.6777000 -0.3341000  )
         9           P   tau(   9) = (  0.4229000 -0.4159000  0.5723000  )
        10           P   tau(  10) = (  0.6777000  0.8293000 -0.1729000  )
        11           P   tau(  11) = (  0.9014000  1.0558000 -0.2492000  )
        12           P   tau(  12) = (  0.4992000 -0.0420000  0.3486000  )
        13           P   tau(  13) = (  1.0558000  0.9014000 -0.7080000  )
        14           P   tau(  14) = ( -0.0420000  0.4992000  0.1942000  )

     number of k points=    95  Marzari-Vanderbilt smearing, width (Ry)=  0.0100
                       cart. coord. in units 2pi/alat
        k(    1) = (   0.0000000   0.0000000   0.0000000), wk =   0.0019531
        k(    2) = (   0.0809925   0.0659585  -0.1955804), wk =   0.0156250
        k(    3) = (   0.1619850   0.1319170  -0.3911607), wk =   0.0156250
        k(    4) = (   0.2429774   0.1978755  -0.5867411), wk =   0.0156250
        k(    5) = (  -0.3239699  -0.2638340   0.7823215), wk =   0.0078125
        k(    6) = (   0.1619850   0.0000000   0.0000000), wk =   0.0039063
        k(    7) = (   0.2429774   0.0659585  -0.1955804), wk =   0.0156250
        k(    8) = (   0.3239699   0.1319170  -0.3911607), wk =   0.0156250
        k(    9) = (  -0.2429774  -0.3297925   0.9779018), wk =   0.0156250
        k(   10) = (  -0.1619850  -0.2638340   0.7823215), wk =   0.0156250
        k(   11) = (  -0.0809925  -0.1978755   0.5867411), wk =   0.0156250
        k(   12) = (   0.0000000  -0.1319170   0.3911607), wk =   0.0078125
        k(   13) = (   0.3239699   0.0000000   0.0000000), wk =   0.0039063
        k(   14) = (   0.4049624   0.0659585  -0.1955804), wk =   0.0156250
        k(   15) = (  -0.1619850  -0.3957510   1.1734822), wk =   0.0156250
        k(   16) = (  -0.0809925  -0.3297925   0.9779018), wk =   0.0156250
        k(   17) = (   0.0000000  -0.2638340   0.7823215), wk =   0.0078125
        k(   18) = (   0.4859549   0.0000000   0.0000000), wk =   0.0039063
        k(   19) = (  -0.0809925  -0.4617095   1.3690626), wk =   0.0156250
        k(   20) = (   0.0000000  -0.3957510   1.1734822), wk =   0.0078125
        k(   21) = (  -0.6479398   0.0000000   0.0000000), wk =   0.0019531
        k(   22) = (   0.0000000   0.1319170   0.0000000), wk =   0.0039063
        k(   23) = (   0.0809925   0.1978755  -0.1955804), wk =   0.0156250
        k(   24) = (   0.1619850   0.2638340  -0.3911607), wk =   0.0156250
        k(   25) = (  -0.4049624  -0.1978755   0.9779018), wk =   0.0156250
        k(   26) = (  -0.3239699  -0.1319170   0.7823215), wk =   0.0156250
        k(   27) = (  -0.2429774  -0.0659585   0.5867411), wk =   0.0156250
        k(   28) = (  -0.1619850   0.0000000   0.3911607), wk =   0.0078125
        k(   29) = (   0.0000000   0.0000000   0.3911607), wk =   0.0039063
        k(   30) = (   0.1619850   0.1319170   0.0000000), wk =   0.0078125
        k(   31) = (   0.2429774   0.1978755  -0.1955804), wk =   0.0156250
        k(   32) = (  -0.3239699  -0.2638340   1.1734822), wk =   0.0156250
        k(   33) = (  -0.2429774  -0.1978755   0.9779018), wk =   0.0156250
        k(   34) = (  -0.1619850  -0.1319170   0.7823215), wk =   0.0156250
        k(   35) = (  -0.0809925  -0.0659585   0.5867411), wk =   0.0156250
        k(   36) = (   0.3239699   0.1319170   0.0000000), wk =   0.0078125
        k(   37) = (  -0.2429774  -0.3297925   1.3690626), wk =   0.0156250
        k(   38) = (  -0.1619850  -0.2638340   1.1734822), wk =   0.0156250
        k(   39) = (  -0.0809925  -0.1978755   0.9779018), wk =   0.0156250
        k(   40) = (   0.0000000  -0.1319170   0.7823215), wk =   0.0078125
        k(   41) = (   0.3239699   0.0000000   0.3911607), wk =   0.0078125
        k(   42) = (  -0.1619850  -0.3957510   1.5646430), wk =   0.0078125
        k(   43) = (  -0.0809925  -0.3297925   1.3690626), wk =   0.0156250
        k(   44) = (   0.0000000  -0.2638340   1.1734822), wk =   0.0078125
        k(   45) = (  -0.2429774   0.4617095  -0.9779018), wk =   0.0156250
        k(   46) = (  -0.1619850   0.5276680  -1.1734822), wk =   0.0078125
        k(   47) = (  -0.6479398   0.1319170  -0.0000000), wk =   0.0039063
        k(   48) = (  -0.1619850   0.3957510  -0.7823215), wk =   0.0156250
        k(   49) = (  -0.0809925   0.4617095  -0.9779018), wk =   0.0156250
        k(   50) = (  -0.6479398   0.0000000   0.3911607), wk =   0.0039063
        k(   51) = (  -0.0809925   0.3297925  -0.5867411), wk =   0.0156250
        k(   52) = (   0.0000000   0.3957510  -0.7823215), wk =   0.0078125
        k(   53) = (   0.0000000   0.2638340  -0.3911607), wk =   0.0078125
        k(   54) = (   0.0000000   0.2638340   0.0000000), wk =   0.0039063
        k(   55) = (   0.0809925   0.3297925  -0.1955804), wk =   0.0156250
        k(   56) = (  -0.4859549  -0.1319170   1.1734822), wk =   0.0156250
        k(   57) = (  -0.4049624  -0.0659585   0.9779018), wk =   0.0156250
        k(   58) = (  -0.3239699   0.0000000   0.7823215), wk =   0.0078125
        k(   59) = (   0.1619850   0.2638340   0.0000000), wk =   0.0078125
        k(   60) = (  -0.4049624  -0.1978755   1.3690626), wk =   0.0156250
        k(   61) = (  -0.3239699  -0.1319170   1.1734822), wk =   0.0156250
        k(   62) = (  -0.2429774  -0.0659585   0.9779018), wk =   0.0156250
        k(   63) = (  -0.1619850   0.0000000   0.7823215), wk =   0.0078125
        k(   64) = (   0.0000000   0.0000000   0.7823215), wk =   0.0039063
        k(   65) = (  -0.3239699  -0.2638340   1.5646430), wk =   0.0078125
        k(   66) = (  -0.2429774  -0.1978755   1.3690626), wk =   0.0156250
        k(   67) = (  -0.1619850  -0.1319170   1.1734822), wk =   0.0156250
        k(   68) = (  -0.0809925  -0.0659585   0.9779018), wk =   0.0156250
        k(   69) = (  -0.1619850  -0.2638340   1.5646430), wk =   0.0078125
        k(   70) = (  -0.0809925  -0.1978755   1.3690626), wk =   0.0156250
        k(   71) = (   0.0000000  -0.1319170   1.1734822), wk =   0.0078125
        k(   72) = (  -0.6479398   0.2638340   0.0000000), wk =   0.0039063
        k(   73) = (  -0.1619850   0.5276680  -0.7823215), wk =   0.0078125
        k(   74) = (  -0.0809925   0.4617095  -0.5867411), wk =   0.0156250
        k(   75) = (  -0.6479398   0.0000000   0.7823215), wk =   0.0039063
        k(   76) = (   0.0000000   0.3957510  -0.3911607), wk =   0.0078125
        k(   77) = (   0.0000000   0.3957510   0.0000000), wk =   0.0039063
        k(   78) = (  -0.5669473  -0.0659585   1.3690626), wk =   0.0156250
        k(   79) = (  -0.4859549  -0.0000000   1.1734822), wk =   0.0078125
        k(   80) = (  -0.4859549  -0.1319170   1.5646430), wk =   0.0078125
        k(   81) = (  -0.4049624  -0.0659585   1.3690626), wk =   0.0156250
        k(   82) = (  -0.3239699  -0.0000000   1.1734822), wk =   0.0078125
        k(   83) = (  -0.3239699  -0.1319170   1.5646430), wk =   0.0078125
        k(   84) = (  -0.2429774  -0.0659585   1.3690626), wk =   0.0156250
        k(   85) = (  -0.1619850  -0.0000000   1.1734822), wk =   0.0078125
        k(   86) = (   0.0000000  -0.0000000   1.1734822), wk =   0.0039063
        k(   87) = (  -0.1619850  -0.1319170   1.5646430), wk =   0.0078125
        k(   88) = (  -0.0809925  -0.0659585   1.3690626), wk =   0.0156250
        k(   89) = (  -0.6479398   0.3957510   0.0000000), wk =   0.0039063
        k(   90) = (  -0.6479398   0.0000000   1.1734822), wk =   0.0039063
        k(   91) = (   0.0000000  -0.5276680   0.0000000), wk =   0.0019531
        k(   92) = (   0.1619850  -0.5276680  -0.0000000), wk =   0.0039063
        k(   93) = (   0.3239699  -0.5276680   0.0000000), wk =   0.0039063
        k(   94) = (   0.4859549  -0.5276680   0.0000000), wk =   0.0039063
        k(   95) = (   0.0000000   0.0000000  -1.5646430), wk =   0.0019531

                       cryst. coord.
        k(    1) = (   0.0000000   0.0000000   0.0000000), wk =   0.0019531
        k(    2) = (  -0.0000000  -0.0000000   0.1250000), wk =   0.0156250
        k(    3) = (  -0.0000000  -0.0000000   0.2500000), wk =   0.0156250
        k(    4) = (  -0.0000000  -0.0000000   0.3750000), wk =   0.0156250
        k(    5) = (   0.0000000   0.0000000  -0.5000000), wk =   0.0078125
        k(    6) = (   0.0000000   0.1250000   0.1250000), wk =   0.0039063
        k(    7) = (  -0.0000000   0.1250000   0.2500000), wk =   0.0156250
        k(    8) = (  -0.0000000   0.1250000   0.3750000), wk =   0.0156250
        k(    9) = (   0.0000000   0.1250000  -0.5000000), wk =   0.0156250
        k(   10) = (   0.0000000   0.1250000  -0.3750000), wk =   0.0156250
        k(   11) = (   0.0000000   0.1250000  -0.2500000), wk =   0.0156250
        k(   12) = (   0.0000000   0.1250000  -0.1250000), wk =   0.0078125
        k(   13) = (   0.0000000   0.2500000   0.2500000), wk =   0.0039063
        k(   14) = (  -0.0000000   0.2500000   0.3750000), wk =   0.0156250
        k(   15) = (   0.0000000   0.2500000  -0.5000000), wk =   0.0156250
        k(   16) = (   0.0000000   0.2500000  -0.3750000), wk =   0.0156250
        k(   17) = (   0.0000000   0.2500000  -0.2500000), wk =   0.0078125
        k(   18) = (   0.0000000   0.3750000   0.3750000), wk =   0.0039063
        k(   19) = (   0.0000000   0.3750000  -0.5000000), wk =   0.0156250
        k(   20) = (   0.0000000   0.3750000  -0.3750000), wk =   0.0078125
        k(   21) = (   0.0000000  -0.5000000  -0.5000000), wk =   0.0019531
        k(   22) = (   0.1250000   0.0000000   0.1250000), wk =   0.0039063
        k(   23) = (   0.1250000  -0.0000000   0.2500000), wk =   0.0156250
        k(   24) = (   0.1250000  -0.0000000   0.3750000), wk =   0.0156250
        k(   25) = (   0.1250000   0.0000000  -0.5000000), wk =   0.0156250
        k(   26) = (   0.1250000   0.0000000  -0.3750000), wk =   0.0156250
        k(   27) = (   0.1250000   0.0000000  -0.2500000), wk =   0.0156250
        k(   28) = (   0.1250000   0.0000000  -0.1250000), wk =   0.0078125
        k(   29) = (   0.1250000   0.1250000   0.0000000), wk =   0.0039063
        k(   30) = (   0.1250000   0.1250000   0.2500000), wk =   0.0078125
        k(   31) = (   0.1250000   0.1250000   0.3750000), wk =   0.0156250
        k(   32) = (   0.1250000   0.1250000  -0.5000000), wk =   0.0156250
        k(   33) = (   0.1250000   0.1250000  -0.3750000), wk =   0.0156250
        k(   34) = (   0.1250000   0.1250000  -0.2500000), wk =   0.0156250
        k(   35) = (   0.1250000   0.1250000  -0.1250000), wk =   0.0156250
        k(   36) = (   0.1250000   0.2500000   0.3750000), wk =   0.0078125
        k(   37) = (   0.1250000   0.2500000  -0.5000000), wk =   0.0156250
        k(   38) = (   0.1250000   0.2500000  -0.3750000), wk =   0.0156250
        k(   39) = (   0.1250000   0.2500000  -0.2500000), wk =   0.0156250
        k(   40) = (   0.1250000   0.2500000  -0.1250000), wk =   0.0078125
        k(   41) = (   0.1250000   0.3750000   0.2500000), wk =   0.0078125
        k(   42) = (   0.1250000   0.3750000  -0.5000000), wk =   0.0078125
        k(   43) = (   0.1250000   0.3750000  -0.3750000), wk =   0.0156250
        k(   44) = (   0.1250000   0.3750000  -0.2500000), wk =   0.0078125
        k(   45) = (   0.1250000  -0.5000000   0.2500000), wk =   0.0156250
        k(   46) = (   0.1250000  -0.5000000   0.3750000), wk =   0.0078125
        k(   47) = (   0.1250000  -0.5000000  -0.3750000), wk =   0.0039063
        k(   48) = (   0.1250000  -0.3750000   0.2500000), wk =   0.0156250
        k(   49) = (   0.1250000  -0.3750000   0.3750000), wk =   0.0156250
        k(   50) = (   0.1250000  -0.3750000  -0.5000000), wk =   0.0039063
        k(   51) = (   0.1250000  -0.2500000   0.2500000), wk =   0.0156250
        k(   52) = (   0.1250000  -0.2500000   0.3750000), wk =   0.0078125
        k(   53) = (   0.1250000  -0.1250000   0.2500000), wk =   0.0078125
        k(   54) = (   0.2500000   0.0000000   0.2500000), wk =   0.0039063
        k(   55) = (   0.2500000  -0.0000000   0.3750000), wk =   0.0156250
        k(   56) = (   0.2500000   0.0000000  -0.5000000), wk =   0.0156250
        k(   57) = (   0.2500000   0.0000000  -0.3750000), wk =   0.0156250
        k(   58) = (   0.2500000   0.0000000  -0.2500000), wk =   0.0078125
        k(   59) = (   0.2500000   0.1250000   0.3750000), wk =   0.0078125
        k(   60) = (   0.2500000   0.1250000  -0.5000000), wk =   0.0156250
        k(   61) = (   0.2500000   0.1250000  -0.3750000), wk =   0.0156250
        k(   62) = (   0.2500000   0.1250000  -0.2500000), wk =   0.0156250
        k(   63) = (   0.2500000   0.1250000  -0.1250000), wk =   0.0078125
        k(   64) = (   0.2500000   0.2500000   0.0000000), wk =   0.0039063
        k(   65) = (   0.2500000   0.2500000  -0.5000000), wk =   0.0078125
        k(   66) = (   0.2500000   0.2500000  -0.3750000), wk =   0.0156250
        k(   67) = (   0.2500000   0.2500000  -0.2500000), wk =   0.0156250
        k(   68) = (   0.2500000   0.2500000  -0.1250000), wk =   0.0156250
        k(   69) = (   0.2500000   0.3750000  -0.3750000), wk =   0.0078125
        k(   70) = (   0.2500000   0.3750000  -0.2500000), wk =   0.0156250
        k(   71) = (   0.2500000   0.3750000  -0.1250000), wk =   0.0078125
        k(   72) = (   0.2500000  -0.5000000  -0.2500000), wk =   0.0039063
        k(   73) = (   0.2500000  -0.3750000   0.3750000), wk =   0.0078125
        k(   74) = (   0.2500000  -0.2500000   0.3750000), wk =   0.0156250
        k(   75) = (   0.2500000  -0.2500000  -0.5000000), wk =   0.0039063
        k(   76) = (   0.2500000  -0.1250000   0.3750000), wk =   0.0078125
        k(   77) = (   0.3750000   0.0000000   0.3750000), wk =   0.0039063
        k(   78) = (   0.3750000   0.0000000  -0.5000000), wk =   0.0156250
        k(   79) = (   0.3750000   0.0000000  -0.3750000), wk =   0.0078125
        k(   80) = (   0.3750000   0.1250000  -0.5000000), wk =   0.0078125
        k(   81) = (   0.3750000   0.1250000  -0.3750000), wk =   0.0156250
        k(   82) = (   0.3750000   0.1250000  -0.2500000), wk =   0.0078125
        k(   83) = (   0.3750000   0.2500000  -0.3750000), wk =   0.0078125
        k(   84) = (   0.3750000   0.2500000  -0.2500000), wk =   0.0156250
        k(   85) = (   0.3750000   0.2500000  -0.1250000), wk =   0.0078125
        k(   86) = (   0.3750000   0.3750000  -0.0000000), wk =   0.0039063
        k(   87) = (   0.3750000   0.3750000  -0.2500000), wk =   0.0078125
        k(   88) = (   0.3750000   0.3750000  -0.1250000), wk =   0.0156250
        k(   89) = (   0.3750000  -0.5000000  -0.1250000), wk =   0.0039063
        k(   90) = (   0.3750000  -0.1250000  -0.5000000), wk =   0.0039063
        k(   91) = (  -0.5000000   0.0000000  -0.5000000), wk =   0.0019531
        k(   92) = (  -0.5000000   0.1250000  -0.3750000), wk =   0.0039063
        k(   93) = (  -0.5000000   0.2500000  -0.2500000), wk =   0.0039063
        k(   94) = (  -0.5000000   0.3750000  -0.1250000), wk =   0.0039063
        k(   95) = (  -0.5000000  -0.5000000   0.0000000), wk =   0.0019531

     Dense  grid:   176509 G-vectors     FFT dimensions: (  96,  80, 120)

     Smooth grid:    62413 G-vectors     FFT dimensions: (  64,  60,  80)

     Dynamical RAM for                 wfc:       7.14 MB

     Dynamical RAM for     wfc (w. buffer):    1363.43 MB

     Dynamical RAM for           str. fact:       5.39 MB

     Dynamical RAM for           local pot:       0.00 MB

     Dynamical RAM for          nlocal pot:      30.69 MB

     Dynamical RAM for                qrad:       3.32 MB

     Dynamical RAM for          rho,v,vnew:      58.35 MB

     Dynamical RAM for               rhoin:      19.45 MB

     Dynamical RAM for            rho*nmix:      86.19 MB

     Dynamical RAM for           G-vectors:      10.58 MB

     Dynamical RAM for          h,s,v(r/c):       0.66 MB

     Dynamical RAM for          <psi|beta>:       0.24 MB

     Dynamical RAM for                 psi:      14.28 MB

     Dynamical RAM for                hpsi:      14.28 MB

     Dynamical RAM for                spsi:      14.28 MB

     Dynamical RAM for      wfcinit/wfcrot:      14.84 MB

     Dynamical RAM for           addusdens:     576.37 MB

     Dynamical RAM for          addusforce:     614.15 MB

     Dynamical RAM for         addusstress:     596.57 MB

     Estimated static dynamical RAM per process >       1.51 GB

     Estimated max dynamical RAM per process >       2.19 GB
     Generating pointlists ...
     new r_m :   0.1348 (alat units)  2.4521 (a.u.) for type    1
     new r_m :   0.0955 (alat units)  1.7372 (a.u.) for type    2

     Initial potential from superposition of free atoms

     starting charge      99.9047, renormalised to     100.0000
     Starting wfcs are   62 randomized atomic wfcs
     Checking if some PAW data can be deallocated... 

     total cpu time spent up to now is       13.2 secs

     Self-consistent Calculation
[tb_dev] Currently allocated     7.92E+00 Mbytes, locked:    0 /  14
[tb_pin] Currently allocated     0.00E+00 Mbytes, locked:    0 /   0

     iteration #  1     ecut=    30.00 Ry     beta= 0.40
     Davidson diagonalization with overlap

---- Real-time Memory Report at c_bands before calling an iterative solver
          2781 MiB given to the printing process from OS
         -1912 MiB allocation reported by mallinfo(arena+hblkhd)
         56817 MiB available memory on the node where the printing process lives
     GPU memory used/free/total (MiB): 1604 / 14676 / 16280
------------------
     ethr =  1.00E-02,  avg # of iterations =  7.1

     negative rho (up, down):  2.166E+00 7.261E-01

     total cpu time spent up to now is       38.2 secs

     WARNING: integrated charge=   100.00178560, expected=   100.00000000

     total energy              =   -2691.26743388 Ry
     estimated scf accuracy    <      25.31411662 Ry

     total magnetization       =     0.00 Bohr mag/cell
     absolute magnetization    =    18.58 Bohr mag/cell
[tb_dev] Currently allocated     7.92E+00 Mbytes, locked:    0 /  12
[tb_pin] Currently allocated     0.00E+00 Mbytes, locked:    0 /   0

     iteration #  2     ecut=    30.00 Ry     beta= 0.40
     Davidson diagonalization with overlap

---- Real-time Memory Report at c_bands before calling an iterative solver
          3041 MiB given to the printing process from OS
         -1843 MiB allocation reported by mallinfo(arena+hblkhd)
         56759 MiB available memory on the node where the printing process lives
     GPU memory used/free/total (MiB): 2670 / 13610 / 16280
------------------
     ethr =  1.00E-02,  avg # of iterations =  1.5
     Minimization algorithm failed to find Fermi energy: reverting to bisection
     Possible cause: smearing is larger than the electronic band-gap.

     negative rho (up, down):  3.368E+00 9.579E-01

     total cpu time spent up to now is       52.6 secs

     WARNING: integrated charge=   100.00088467, expected=   100.00000000

     total energy              =   -2691.48190281 Ry
     estimated scf accuracy    <       3.09108237 Ry

     total magnetization       =     0.01 Bohr mag/cell
     absolute magnetization    =    14.47 Bohr mag/cell
[tb_dev] Currently allocated     7.92E+00 Mbytes, locked:    0 /  12
[tb_pin] Currently allocated     0.00E+00 Mbytes, locked:    0 /   0

     iteration #  3     ecut=    30.00 Ry     beta= 0.40
     Davidson diagonalization with overlap

---- Real-time Memory Report at c_bands before calling an iterative solver
          3157 MiB given to the printing process from OS
         -1827 MiB allocation reported by mallinfo(arena+hblkhd)
         56744 MiB available memory on the node where the printing process lives
     GPU memory used/free/total (MiB): 2670 / 13610 / 16280
------------------
     ethr =  3.09E-03,  avg # of iterations =  2.2

     negative rho (up, down):  2.855E+00 7.834E-01

     total cpu time spent up to now is       67.8 secs

     WARNING: integrated charge=   100.00253066, expected=   100.00000000

     total energy              =   -2691.64835950 Ry
     estimated scf accuracy    <       1.66377042 Ry

     total magnetization       =    -0.00 Bohr mag/cell
     absolute magnetization    =     6.57 Bohr mag/cell
[tb_dev] Currently allocated     7.92E+00 Mbytes, locked:    0 /  12
[tb_pin] Currently allocated     0.00E+00 Mbytes, locked:    0 /   0

     iteration #  4     ecut=    30.00 Ry     beta= 0.40
     Davidson diagonalization with overlap

---- Real-time Memory Report at c_bands before calling an iterative solver
          3195 MiB given to the printing process from OS
         -1814 MiB allocation reported by mallinfo(arena+hblkhd)
         56729 MiB available memory on the node where the printing process lives
     GPU memory used/free/total (MiB): 2670 / 13610 / 16280
------------------
     ethr =  1.66E-03,  avg # of iterations =  2.1

     negative rho (up, down):  2.405E+00 7.018E-01

     total cpu time spent up to now is       83.0 secs

     WARNING: integrated charge=   100.00288684, expected=   100.00000000

     total energy              =   -2691.63444796 Ry
     estimated scf accuracy    <       2.08472255 Ry

     total magnetization       =    -0.00 Bohr mag/cell
     absolute magnetization    =     4.84 Bohr mag/cell
[tb_dev] Currently allocated     7.92E+00 Mbytes, locked:    0 /  12
[tb_pin] Currently allocated     0.00E+00 Mbytes, locked:    0 /   0

     iteration #  5     ecut=    30.00 Ry     beta= 0.40
     Davidson diagonalization with overlap

---- Real-time Memory Report at c_bands before calling an iterative solver
          3214 MiB given to the printing process from OS
         -1795 MiB allocation reported by mallinfo(arena+hblkhd)
         56710 MiB available memory on the node where the printing process lives
     GPU memory used/free/total (MiB): 2670 / 13610 / 16280
------------------
     ethr =  1.66E-03,  avg # of iterations =  2.5

     negative rho (up, down):  2.162E+00 6.086E-01

     total cpu time spent up to now is       98.8 secs

     WARNING: integrated charge=   100.00343289, expected=   100.00000000

     total energy              =   -2691.68748974 Ry
     estimated scf accuracy    <       1.36711935 Ry

     total magnetization       =    -0.00 Bohr mag/cell
     absolute magnetization    =     8.24 Bohr mag/cell
[tb_dev] Currently allocated     7.92E+00 Mbytes, locked:    0 /  12
[tb_pin] Currently allocated     0.00E+00 Mbytes, locked:    0 /   0

     iteration #  6     ecut=    30.00 Ry     beta= 0.40
     Davidson diagonalization with overlap

---- Real-time Memory Report at c_bands before calling an iterative solver
          3232 MiB given to the printing process from OS
         -1777 MiB allocation reported by mallinfo(arena+hblkhd)
         56696 MiB available memory on the node where the printing process lives
     GPU memory used/free/total (MiB): 2670 / 13610 / 16280
------------------
     ethr =  1.37E-03,  avg # of iterations =  1.5

     negative rho (up, down):  2.160E+00 5.441E-01

     total cpu time spent up to now is      113.2 secs

     WARNING: integrated charge=   100.00350746, expected=   100.00000000

     total energy              =   -2691.72459374 Ry
     estimated scf accuracy    <       0.63523494 Ry

     total magnetization       =    -0.00 Bohr mag/cell
     absolute magnetization    =     7.76 Bohr mag/cell
[tb_dev] Currently allocated     7.92E+00 Mbytes, locked:    0 /  12
[tb_pin] Currently allocated     0.00E+00 Mbytes, locked:    0 /   0

     iteration #  7     ecut=    30.00 Ry     beta= 0.40
     Davidson diagonalization with overlap

---- Real-time Memory Report at c_bands before calling an iterative solver
          3250 MiB given to the printing process from OS
         -1758 MiB allocation reported by mallinfo(arena+hblkhd)
         56675 MiB available memory on the node where the printing process lives
     GPU memory used/free/total (MiB): 2670 / 13610 / 16280
------------------
     ethr =  6.35E-04,  avg # of iterations =  1.7

     negative rho (up, down):  2.152E+00 5.823E-01

     total cpu time spent up to now is      127.7 secs

     WARNING: integrated charge=   100.00358012, expected=   100.00000000

     total energy              =   -2691.72258908 Ry
     estimated scf accuracy    <       0.48292344 Ry

     total magnetization       =    -0.00 Bohr mag/cell
     absolute magnetization    =     7.48 Bohr mag/cell
[tb_dev] Currently allocated     7.92E+00 Mbytes, locked:    0 /  12
[tb_pin] Currently allocated     0.00E+00 Mbytes, locked:    0 /   0

     iteration #  8     ecut=    30.00 Ry     beta= 0.40
     Davidson diagonalization with overlap

---- Real-time Memory Report at c_bands before calling an iterative solver
          3270 MiB given to the printing process from OS
         -1739 MiB allocation reported by mallinfo(arena+hblkhd)
         56661 MiB available memory on the node where the printing process lives
     GPU memory used/free/total (MiB): 2670 / 13610 / 16280
------------------
     ethr =  4.83E-04,  avg # of iterations =  1.8

     negative rho (up, down):  2.086E+00 5.582E-01

     total cpu time spent up to now is      142.2 secs

     WARNING: integrated charge=   100.00365297, expected=   100.00000000

     total energy              =   -2691.72993350 Ry
     estimated scf accuracy    <       0.75237014 Ry

     total magnetization       =    -0.00 Bohr mag/cell
     absolute magnetization    =     7.56 Bohr mag/cell
[tb_dev] Currently allocated     7.92E+00 Mbytes, locked:    0 /  12
[tb_pin] Currently allocated     0.00E+00 Mbytes, locked:    0 /   0

     iteration #  9     ecut=    30.00 Ry     beta= 0.40
     Davidson diagonalization with overlap

---- Real-time Memory Report at c_bands before calling an iterative solver
          3287 MiB given to the printing process from OS
         -1722 MiB allocation reported by mallinfo(arena+hblkhd)
         56641 MiB available memory on the node where the printing process lives
     GPU memory used/free/total (MiB): 2670 / 13610 / 16280
------------------
     ethr =  4.83E-04,  avg # of iterations =  1.6

     negative rho (up, down):  1.849E+00 3.662E-01

     total cpu time spent up to now is      156.9 secs

     WARNING: integrated charge=   100.00294638, expected=   100.00000000

     total energy              =   -2691.72149956 Ry
     estimated scf accuracy    <       0.67066205 Ry

     total magnetization       =    -0.00 Bohr mag/cell
     absolute magnetization    =     7.99 Bohr mag/cell
[tb_dev] Currently allocated     7.92E+00 Mbytes, locked:    0 /  12
[tb_pin] Currently allocated     0.00E+00 Mbytes, locked:    0 /   0

     iteration # 10     ecut=    30.00 Ry     beta= 0.40
     Davidson diagonalization with overlap

---- Real-time Memory Report at c_bands before calling an iterative solver
          3307 MiB given to the printing process from OS
         -1701 MiB allocation reported by mallinfo(arena+hblkhd)
         56622 MiB available memory on the node where the printing process lives
     GPU memory used/free/total (MiB): 2670 / 13610 / 16280
------------------
     ethr =  4.83E-04,  avg # of iterations =  2.5

     negative rho (up, down):  1.777E+00 3.072E-01

     total cpu time spent up to now is      173.6 secs

     WARNING: integrated charge=   100.00170660, expected=   100.00000000

     total energy              =   -2691.73012133 Ry
     estimated scf accuracy    <       0.31612013 Ry

     total magnetization       =     0.00 Bohr mag/cell
     absolute magnetization    =     5.74 Bohr mag/cell
[tb_dev] Currently allocated     7.92E+00 Mbytes, locked:    0 /  12
[tb_pin] Currently allocated     0.00E+00 Mbytes, locked:    0 /   0

     iteration # 11     ecut=    30.00 Ry     beta= 0.40
     Davidson diagonalization with overlap

---- Real-time Memory Report at c_bands before calling an iterative solver
          3320 MiB given to the printing process from OS
         -1689 MiB allocation reported by mallinfo(arena+hblkhd)
         56609 MiB available memory on the node where the printing process lives
     GPU memory used/free/total (MiB): 2670 / 13610 / 16280
------------------
     ethr =  3.16E-04,  avg # of iterations =  2.9

     negative rho (up, down):  1.899E+00 2.885E-01

     total cpu time spent up to now is      190.1 secs

     WARNING: integrated charge=   100.00216203, expected=   100.00000000

     total energy              =   -2691.72898217 Ry
     estimated scf accuracy    <       0.82263780 Ry

     total magnetization       =     0.00 Bohr mag/cell
     absolute magnetization    =     4.30 Bohr mag/cell
[tb_dev] Currently allocated     7.92E+00 Mbytes, locked:    0 /  12
[tb_pin] Currently allocated     0.00E+00 Mbytes, locked:    0 /   0

     iteration # 12     ecut=    30.00 Ry     beta= 0.40
     Davidson diagonalization with overlap

---- Real-time Memory Report at c_bands before calling an iterative solver
          3336 MiB given to the printing process from OS
         -1676 MiB allocation reported by mallinfo(arena+hblkhd)
         56593 MiB available memory on the node where the printing process lives
     GPU memory used/free/total (MiB): 2670 / 13610 / 16280
------------------
     ethr =  3.16E-04,  avg # of iterations =  2.6

     negative rho (up, down):  1.782E+00 1.872E-01

     total cpu time spent up to now is      206.4 secs

     WARNING: integrated charge=   100.00139092, expected=   100.00000000

     total energy              =   -2691.72682310 Ry
     estimated scf accuracy    <       0.75920443 Ry

     total magnetization       =     0.00 Bohr mag/cell
     absolute magnetization    =     5.72 Bohr mag/cell
[tb_dev] Currently allocated     7.92E+00 Mbytes, locked:    0 /  12
[tb_pin] Currently allocated     0.00E+00 Mbytes, locked:    0 /   0

     iteration # 13     ecut=    30.00 Ry     beta= 0.40
     Davidson diagonalization with overlap

---- Real-time Memory Report at c_bands before calling an iterative solver
          3348 MiB given to the printing process from OS
         -1663 MiB allocation reported by mallinfo(arena+hblkhd)
         56582 MiB available memory on the node where the printing process lives
     GPU memory used/free/total (MiB): 2670 / 13610 / 16280
------------------
     ethr =  3.16E-04,  avg # of iterations =  2.5

     negative rho (up, down):  1.848E+00 2.582E-01

     total cpu time spent up to now is      222.5 secs

     WARNING: integrated charge=   100.00223571, expected=   100.00000000

     total energy              =   -2691.74569713 Ry
     estimated scf accuracy    <       0.93001581 Ry

     total magnetization       =     0.00 Bohr mag/cell
     absolute magnetization    =     3.30 Bohr mag/cell
[tb_dev] Currently allocated     7.92E+00 Mbytes, locked:    0 /  12
[tb_pin] Currently allocated     0.00E+00 Mbytes, locked:    0 /   0

     iteration # 14     ecut=    30.00 Ry     beta= 0.40
     Davidson diagonalization with overlap

---- Real-time Memory Report at c_bands before calling an iterative solver
          3361 MiB given to the printing process from OS
         -1651 MiB allocation reported by mallinfo(arena+hblkhd)
         56570 MiB available memory on the node where the printing process lives
     GPU memory used/free/total (MiB): 2670 / 13610 / 16280
------------------
     ethr =  3.16E-04,  avg # of iterations =  1.1

     negative rho (up, down):  1.878E+00 2.059E-01

     total cpu time spent up to now is      236.3 secs

     WARNING: integrated charge=   100.00108781, expected=   100.00000000

     total energy              =   -2691.74406616 Ry
     estimated scf accuracy    <       1.11337044 Ry

     total magnetization       =     0.00 Bohr mag/cell
     absolute magnetization    =     4.03 Bohr mag/cell
[tb_dev] Currently allocated     7.92E+00 Mbytes, locked:    0 /  12
[tb_pin] Currently allocated     0.00E+00 Mbytes, locked:    0 /   0

     iteration # 15     ecut=    30.00 Ry     beta= 0.40
     Davidson diagonalization with overlap

---- Real-time Memory Report at c_bands before calling an iterative solver
          3374 MiB given to the printing process from OS
         -1638 MiB allocation reported by mallinfo(arena+hblkhd)
         56557 MiB available memory on the node where the printing process lives
     GPU memory used/free/total (MiB): 2670 / 13610 / 16280
------------------
     ethr =  3.16E-04,  avg # of iterations =  2.1

     negative rho (up, down):  1.854E+00 1.992E-01

     total cpu time spent up to now is      251.8 secs

     WARNING: integrated charge=   100.00116392, expected=   100.00000000

     total energy              =   -2691.74326503 Ry
     estimated scf accuracy    <       1.47572092 Ry

     total magnetization       =     0.00 Bohr mag/cell
     absolute magnetization    =     3.04 Bohr mag/cell
[tb_dev] Currently allocated     7.92E+00 Mbytes, locked:    0 /  12
[tb_pin] Currently allocated     0.00E+00 Mbytes, locked:    0 /   0

     iteration # 16     ecut=    30.00 Ry     beta= 0.40
     Davidson diagonalization with overlap

---- Real-time Memory Report at c_bands before calling an iterative solver
          3386 MiB given to the printing process from OS
         -1626 MiB allocation reported by mallinfo(arena+hblkhd)
         56543 MiB available memory on the node where the printing process lives
     GPU memory used/free/total (MiB): 2670 / 13610 / 16280
------------------
     ethr =  3.16E-04,  avg # of iterations =  1.1

     negative rho (up, down):  1.780E+00 1.003E-01

     total cpu time spent up to now is      265.8 secs

     WARNING: integrated charge=   100.00211265, expected=   100.00000000

     total energy              =   -2691.74221626 Ry
     estimated scf accuracy    <       1.36417344 Ry

     total magnetization       =     0.00 Bohr mag/cell
     absolute magnetization    =     3.25 Bohr mag/cell
[tb_dev] Currently allocated     7.92E+00 Mbytes, locked:    0 /  12
[tb_pin] Currently allocated     0.00E+00 Mbytes, locked:    0 /   0

     iteration # 17     ecut=    30.00 Ry     beta= 0.40
     Davidson diagonalization with overlap

---- Real-time Memory Report at c_bands before calling an iterative solver
          3401 MiB given to the printing process from OS
         -1613 MiB allocation reported by mallinfo(arena+hblkhd)
         56532 MiB available memory on the node where the printing process lives
     GPU memory used/free/total (MiB): 2670 / 13610 / 16280
------------------
     ethr =  3.16E-04,  avg # of iterations =  2.6

     negative rho (up, down):  1.765E+00 1.091E-01

     total cpu time spent up to now is      282.0 secs

     WARNING: integrated charge=   100.00227263, expected=   100.00000000

     total energy              =   -2691.77135521 Ry
     estimated scf accuracy    <       1.20378388 Ry

     total magnetization       =     0.00 Bohr mag/cell
     absolute magnetization    =     4.14 Bohr mag/cell
[tb_dev] Currently allocated     7.92E+00 Mbytes, locked:    0 /  12
[tb_pin] Currently allocated     0.00E+00 Mbytes, locked:    0 /   0

     iteration # 18     ecut=    30.00 Ry     beta= 0.40
     Davidson diagonalization with overlap

---- Real-time Memory Report at c_bands before calling an iterative solver
          3413 MiB given to the printing process from OS
         -1600 MiB allocation reported by mallinfo(arena+hblkhd)
         56517 MiB available memory on the node where the printing process lives
     GPU memory used/free/total (MiB): 2670 / 13610 / 16280
------------------
     ethr =  3.16E-04,  avg # of iterations =  1.8

     negative rho (up, down):  1.622E+00 1.517E-01

     total cpu time spent up to now is      297.2 secs

     WARNING: integrated charge=   100.00156363, expected=   100.00000000

     total energy              =   -2691.75519152 Ry
     estimated scf accuracy    <       1.79997247 Ry

     total magnetization       =     0.00 Bohr mag/cell
     absolute magnetization    =     4.02 Bohr mag/cell
[tb_dev] Currently allocated     7.92E+00 Mbytes, locked:    0 /  12
[tb_pin] Currently allocated     0.00E+00 Mbytes, locked:    0 /   0

     iteration # 19     ecut=    30.00 Ry     beta= 0.40
     Davidson diagonalization with overlap

---- Real-time Memory Report at c_bands before calling an iterative solver
          3426 MiB given to the printing process from OS
         -1588 MiB allocation reported by mallinfo(arena+hblkhd)
         56504 MiB available memory on the node where the printing process lives
     GPU memory used/free/total (MiB): 2670 / 13610 / 16280
------------------
     ethr =  3.16E-04,  avg # of iterations =  2.5

     negative rho (up, down):  1.545E+00 1.878E-01

     total cpu time spent up to now is      314.2 secs

     WARNING: integrated charge=   100.00093349, expected=   100.00000000

     total energy              =   -2691.76373729 Ry
     estimated scf accuracy    <       0.55464983 Ry

     total magnetization       =    -0.00 Bohr mag/cell
     absolute magnetization    =     2.34 Bohr mag/cell
[tb_dev] Currently allocated     7.92E+00 Mbytes, locked:    0 /  12
[tb_pin] Currently allocated     0.00E+00 Mbytes, locked:    0 /   0

     iteration # 20     ecut=    30.00 Ry     beta= 0.40
     Davidson diagonalization with overlap

---- Real-time Memory Report at c_bands before calling an iterative solver
          3438 MiB given to the printing process from OS
         -1575 MiB allocation reported by mallinfo(arena+hblkhd)
         56495 MiB available memory on the node where the printing process lives
     GPU memory used/free/total (MiB): 2670 / 13610 / 16280
------------------
     ethr =  3.16E-04,  avg # of iterations =  2.2

     negative rho (up, down):  1.554E+00 2.076E-01

     total cpu time spent up to now is      329.9 secs

     WARNING: integrated charge=   100.00088111, expected=   100.00000000

     total energy              =   -2691.75285325 Ry
     estimated scf accuracy    <       1.83989757 Ry

     total magnetization       =     0.00 Bohr mag/cell
     absolute magnetization    =     1.12 Bohr mag/cell
[tb_dev] Currently allocated     7.92E+00 Mbytes, locked:    0 /  12
[tb_pin] Currently allocated     0.00E+00 Mbytes, locked:    0 /   0

     iteration # 21     ecut=    30.00 Ry     beta= 0.40
     Davidson diagonalization with overlap

---- Real-time Memory Report at c_bands before calling an iterative solver
          3452 MiB given to the printing process from OS
         -1562 MiB allocation reported by mallinfo(arena+hblkhd)
         56480 MiB available memory on the node where the printing process lives
     GPU memory used/free/total (MiB): 2670 / 13610 / 16280
------------------
     ethr =  3.16E-04,  avg # of iterations =  1.0

     negative rho (up, down):  1.497E+00 1.430E-01

     total cpu time spent up to now is      343.6 secs

     WARNING: integrated charge=   100.00110025, expected=   100.00000000

     total energy              =   -2691.76244759 Ry
     estimated scf accuracy    <       1.83050859 Ry

     total magnetization       =     0.00 Bohr mag/cell
     absolute magnetization    =     1.14 Bohr mag/cell
[tb_dev] Currently allocated     7.92E+00 Mbytes, locked:    0 /  12
[tb_pin] Currently allocated     0.00E+00 Mbytes, locked:    0 /   0

     iteration # 22     ecut=    30.00 Ry     beta= 0.40
     Davidson diagonalization with overlap

---- Real-time Memory Report at c_bands before calling an iterative solver
          3465 MiB given to the printing process from OS
         -1550 MiB allocation reported by mallinfo(arena+hblkhd)
         56471 MiB available memory on the node where the printing process lives
     GPU memory used/free/total (MiB): 2670 / 13610 / 16280
------------------
     ethr =  3.16E-04,  avg # of iterations =  1.6

     negative rho (up, down):  1.569E+00 1.674E-01

     total cpu time spent up to now is      358.7 secs

     WARNING: integrated charge=   100.00128268, expected=   100.00000000

     total energy              =   -2691.73854967 Ry
     estimated scf accuracy    <       2.44908959 Ry

     total magnetization       =    -0.00 Bohr mag/cell
     absolute magnetization    =     1.49 Bohr mag/cell
[tb_dev] Currently allocated     7.92E+00 Mbytes, locked:    0 /  12
[tb_pin] Currently allocated     0.00E+00 Mbytes, locked:    0 /   0

     iteration # 23     ecut=    30.00 Ry     beta= 0.40
     Davidson diagonalization with overlap

---- Real-time Memory Report at c_bands before calling an iterative solver
          3479 MiB given to the printing process from OS
         -1537 MiB allocation reported by mallinfo(arena+hblkhd)
         56458 MiB available memory on the node where the printing process lives
     GPU memory used/free/total (MiB): 2670 / 13610 / 16280
------------------
     ethr =  3.16E-04,  avg # of iterations =  2.4

     negative rho (up, down):  1.627E+00 1.311E-01

     total cpu time spent up to now is      374.4 secs

     WARNING: integrated charge=   100.00166192, expected=   100.00000000

     total energy              =   -2691.75547360 Ry
     estimated scf accuracy    <       1.16728667 Ry

     total magnetization       =    -0.00 Bohr mag/cell
     absolute magnetization    =     0.97 Bohr mag/cell
[tb_dev] Currently allocated     7.92E+00 Mbytes, locked:    0 /  12
[tb_pin] Currently allocated     0.00E+00 Mbytes, locked:    0 /   0

     iteration # 24     ecut=    30.00 Ry     beta= 0.40
     Davidson diagonalization with overlap

---- Real-time Memory Report at c_bands before calling an iterative solver
          3493 MiB given to the printing process from OS
         -1524 MiB allocation reported by mallinfo(arena+hblkhd)
         56447 MiB available memory on the node where the printing process lives
     GPU memory used/free/total (MiB): 2670 / 13610 / 16280
------------------
     ethr =  3.16E-04,  avg # of iterations =  2.0

     negative rho (up, down):  1.732E+00 1.539E-01

     total cpu time spent up to now is      389.6 secs

     WARNING: integrated charge=   100.00154426, expected=   100.00000000

     total energy              =   -2691.75043308 Ry
     estimated scf accuracy    <       1.57641249 Ry

     total magnetization       =    -0.00 Bohr mag/cell
     absolute magnetization    =     0.65 Bohr mag/cell
[tb_dev] Currently allocated     7.92E+00 Mbytes, locked:    0 /  12
[tb_pin] Currently allocated     0.00E+00 Mbytes, locked:    0 /   0

     iteration # 25     ecut=    30.00 Ry     beta= 0.40
     Davidson diagonalization with overlap

---- Real-time Memory Report at c_bands before calling an iterative solver
          3508 MiB given to the printing process from OS
         -1512 MiB allocation reported by mallinfo(arena+hblkhd)
         56431 MiB available memory on the node where the printing process lives
     GPU memory used/free/total (MiB): 2670 / 13610 / 16280
------------------
     ethr =  3.16E-04,  avg # of iterations =  2.1

     negative rho (up, down):  1.654E+00 1.417E-01

     total cpu time spent up to now is      405.0 secs

     WARNING: integrated charge=   100.00156531, expected=   100.00000000

     total energy              =   -2691.75844451 Ry
     estimated scf accuracy    <       1.57024346 Ry

     total magnetization       =    -0.00 Bohr mag/cell
     absolute magnetization    =     2.02 Bohr mag/cell
[tb_dev] Currently allocated     7.92E+00 Mbytes, locked:    0 /  12
[tb_pin] Currently allocated     0.00E+00 Mbytes, locked:    0 /   0

     iteration # 26     ecut=    30.00 Ry     beta= 0.40
     Davidson diagonalization with overlap

---- Real-time Memory Report at c_bands before calling an iterative solver
          3522 MiB given to the printing process from OS
         -1499 MiB allocation reported by mallinfo(arena+hblkhd)
         56415 MiB available memory on the node where the printing process lives
     GPU memory used/free/total (MiB): 2670 / 13610 / 16280
------------------
     ethr =  3.16E-04,  avg # of iterations =  1.5

     negative rho (up, down):  1.671E+00 8.542E-02

     total cpu time spent up to now is      419.5 secs

     WARNING: integrated charge=   100.00193094, expected=   100.00000000

     total energy              =   -2691.74309349 Ry
     estimated scf accuracy    <       1.65397906 Ry

     total magnetization       =    -0.00 Bohr mag/cell
     absolute magnetization    =     2.07 Bohr mag/cell
[tb_dev] Currently allocated     7.92E+00 Mbytes, locked:    0 /  12
[tb_pin] Currently allocated     0.00E+00 Mbytes, locked:    0 /   0

     iteration # 27     ecut=    30.00 Ry     beta= 0.40
     Davidson diagonalization with overlap

---- Real-time Memory Report at c_bands before calling an iterative solver
          3534 MiB given to the printing process from OS
         -1487 MiB allocation reported by mallinfo(arena+hblkhd)
         56407 MiB available memory on the node where the printing process lives
     GPU memory used/free/total (MiB): 2670 / 13610 / 16280
------------------
     ethr =  3.16E-04,  avg # of iterations =  2.0

     negative rho (up, down):  1.675E+00 8.135E-02

     total cpu time spent up to now is      434.6 secs

     WARNING: integrated charge=   100.00194794, expected=   100.00000000

     total energy              =   -2691.74425171 Ry
     estimated scf accuracy    <       0.80428163 Ry

     total magnetization       =    -0.00 Bohr mag/cell
     absolute magnetization    =     1.61 Bohr mag/cell
[tb_dev] Currently allocated     7.92E+00 Mbytes, locked:    0 /  12
[tb_pin] Currently allocated     0.00E+00 Mbytes, locked:    0 /   0

     iteration # 28     ecut=    30.00 Ry     beta= 0.40
     Davidson diagonalization with overlap

---- Real-time Memory Report at c_bands before calling an iterative solver
          3547 MiB given to the printing process from OS
         -1467 MiB allocation reported by mallinfo(arena+hblkhd)
         56388 MiB available memory on the node where the printing process lives
     GPU memory used/free/total (MiB): 2670 / 13610 / 16280
------------------
     ethr =  3.16E-04,  avg # of iterations =  1.0

     negative rho (up, down):  1.726E+00 4.689E-02

     total cpu time spent up to now is      448.3 secs

     WARNING: integrated charge=   100.00196315, expected=   100.00000000

     total energy              =   -2691.73386944 Ry
     estimated scf accuracy    <       0.64755768 Ry

     total magnetization       =    -0.00 Bohr mag/cell
     absolute magnetization    =     1.71 Bohr mag/cell
[tb_dev] Currently allocated     7.92E+00 Mbytes, locked:    0 /  12
[tb_pin] Currently allocated     0.00E+00 Mbytes, locked:    0 /   0

     iteration # 29     ecut=    30.00 Ry     beta= 0.40
     Davidson diagonalization with overlap

---- Real-time Memory Report at c_bands before calling an iterative solver
          3561 MiB given to the printing process from OS
         -1454 MiB allocation reported by mallinfo(arena+hblkhd)
         56378 MiB available memory on the node where the printing process lives
     GPU memory used/free/total (MiB): 2670 / 13610 / 16280
------------------
     ethr =  3.16E-04,  avg # of iterations =  1.5

     negative rho (up, down):  1.814E+00 5.640E-02

     total cpu time spent up to now is      463.0 secs

     WARNING: integrated charge=   100.00180383, expected=   100.00000000

     total energy              =   -2691.72991271 Ry
     estimated scf accuracy    <       0.30869884 Ry

     total magnetization       =    -0.00 Bohr mag/cell
     absolute magnetization    =     2.14 Bohr mag/cell
[tb_dev] Currently allocated     7.92E+00 Mbytes, locked:    0 /  12
[tb_pin] Currently allocated     0.00E+00 Mbytes, locked:    0 /   0

     iteration # 30     ecut=    30.00 Ry     beta= 0.40
     Davidson diagonalization with overlap

---- Real-time Memory Report at c_bands before calling an iterative solver
          3577 MiB given to the printing process from OS
         -1442 MiB allocation reported by mallinfo(arena+hblkhd)
         56360 MiB available memory on the node where the printing process lives
     GPU memory used/free/total (MiB): 2670 / 13610 / 16280
------------------
     ethr =  3.09E-04,  avg # of iterations =  1.9

     negative rho (up, down):  1.889E+00 6.486E-03

     total cpu time spent up to now is      478.1 secs

     WARNING: integrated charge=   100.00181307, expected=   100.00000000

     total energy              =   -2691.72673898 Ry
     estimated scf accuracy    <       0.46647517 Ry

     total magnetization       =    -0.00 Bohr mag/cell
     absolute magnetization    =     2.84 Bohr mag/cell
[tb_dev] Currently allocated     7.92E+00 Mbytes, locked:    0 /  12
[tb_pin] Currently allocated     0.00E+00 Mbytes, locked:    0 /   0

     iteration # 31     ecut=    30.00 Ry     beta= 0.40
     Davidson diagonalization with overlap

---- Real-time Memory Report at c_bands before calling an iterative solver
          3588 MiB given to the printing process from OS
         -1429 MiB allocation reported by mallinfo(arena+hblkhd)
         56350 MiB available memory on the node where the printing process lives
     GPU memory used/free/total (MiB): 2670 / 13610 / 16280
------------------
     ethr =  3.09E-04,  avg # of iterations =  2.3

     negative rho (up, down):  1.825E+00 5.831E-02

     total cpu time spent up to now is      493.6 secs

     WARNING: integrated charge=   100.00176422, expected=   100.00000000

     total energy              =   -2691.73376683 Ry
     estimated scf accuracy    <       0.37032735 Ry

     total magnetization       =    -0.00 Bohr mag/cell
     absolute magnetization    =     3.36 Bohr mag/cell
[tb_dev] Currently allocated     7.92E+00 Mbytes, locked:    0 /  12
[tb_pin] Currently allocated     0.00E+00 Mbytes, locked:    0 /   0

     iteration # 32     ecut=    30.00 Ry     beta= 0.40
     Davidson diagonalization with overlap

---- Real-time Memory Report at c_bands before calling an iterative solver
          3602 MiB given to the printing process from OS
         -1416 MiB allocation reported by mallinfo(arena+hblkhd)
         56335 MiB available memory on the node where the printing process lives
     GPU memory used/free/total (MiB): 2670 / 13610 / 16280
------------------
     ethr =  3.09E-04,  avg # of iterations =  1.6

     negative rho (up, down):  1.879E+00 3.735E-02

     total cpu time spent up to now is      508.1 secs

     WARNING: integrated charge=   100.00179801, expected=   100.00000000

     total energy              =   -2691.73466147 Ry
     estimated scf accuracy    <       0.44225641 Ry

     total magnetization       =    -0.00 Bohr mag/cell
     absolute magnetization    =     3.35 Bohr mag/cell
[tb_dev] Currently allocated     7.92E+00 Mbytes, locked:    0 /  12
[tb_pin] Currently allocated     0.00E+00 Mbytes, locked:    0 /   0

     iteration # 33     ecut=    30.00 Ry     beta= 0.40
     Davidson diagonalization with overlap

---- Real-time Memory Report at c_bands before calling an iterative solver
          3615 MiB given to the printing process from OS
         -1404 MiB allocation reported by mallinfo(arena+hblkhd)
         56316 MiB available memory on the node where the printing process lives
     GPU memory used/free/total (MiB): 2670 / 13610 / 16280
------------------
     ethr =  3.09E-04,  avg # of iterations =  1.5

     negative rho (up, down):  1.897E+00 3.803E-03

     total cpu time spent up to now is      522.3 secs

     WARNING: integrated charge=   100.00178926, expected=   100.00000000

     total energy              =   -2691.74168278 Ry
     estimated scf accuracy    <       0.47976484 Ry

     total magnetization       =    -0.00 Bohr mag/cell
     absolute magnetization    =     3.85 Bohr mag/cell
[tb_dev] Currently allocated     7.92E+00 Mbytes, locked:    0 /  12
[tb_pin] Currently allocated     0.00E+00 Mbytes, locked:    0 /   0

     iteration # 34     ecut=    30.00 Ry     beta= 0.40
     Davidson diagonalization with overlap

---- Real-time Memory Report at c_bands before calling an iterative solver
          3631 MiB given to the printing process from OS
         -1384 MiB allocation reported by mallinfo(arena+hblkhd)
         56308 MiB available memory on the node where the printing process lives
     GPU memory used/free/total (MiB): 2670 / 13610 / 16280
------------------
     ethr =  3.09E-04,  avg # of iterations =  1.6

     negative rho (up, down):  1.814E+00 3.792E-02

     total cpu time spent up to now is      536.9 secs

     WARNING: integrated charge=   100.00174245, expected=   100.00000000

     total energy              =   -2691.74415376 Ry
     estimated scf accuracy    <       0.50479222 Ry

     total magnetization       =    -0.00 Bohr mag/cell
     absolute magnetization    =     2.85 Bohr mag/cell
[tb_dev] Currently allocated     7.92E+00 Mbytes, locked:    0 /  12
[tb_pin] Currently allocated     0.00E+00 Mbytes, locked:    0 /   0

     iteration # 35     ecut=    30.00 Ry     beta= 0.40
     Davidson diagonalization with overlap

---- Real-time Memory Report at c_bands before calling an iterative solver
          3643 MiB given to the printing process from OS
         -1371 MiB allocation reported by mallinfo(arena+hblkhd)
         56289 MiB available memory on the node where the printing process lives
     GPU memory used/free/total (MiB): 2670 / 13610 / 16280
------------------
     ethr =  3.09E-04,  avg # of iterations =  1.5

     negative rho (up, down):  1.789E+00 7.437E-02

     total cpu time spent up to now is      551.6 secs

     WARNING: integrated charge=   100.00181810, expected=   100.00000000

     total energy              =   -2691.74070063 Ry
     estimated scf accuracy    <       0.51071964 Ry

     total magnetization       =    -0.00 Bohr mag/cell
     absolute magnetization    =     2.87 Bohr mag/cell
[tb_dev] Currently allocated     7.92E+00 Mbytes, locked:    0 /  12
[tb_pin] Currently allocated     0.00E+00 Mbytes, locked:    0 /   0

     iteration # 36     ecut=    30.00 Ry     beta= 0.40
     Davidson diagonalization with overlap

---- Real-time Memory Report at c_bands before calling an iterative solver
          3658 MiB given to the printing process from OS
         -1359 MiB allocation reported by mallinfo(arena+hblkhd)
         56281 MiB available memory on the node where the printing process lives
     GPU memory used/free/total (MiB): 2670 / 13610 / 16280
------------------
     ethr =  3.09E-04,  avg # of iterations =  1.0

     negative rho (up, down):  1.796E+00 5.961E-02

     total cpu time spent up to now is      565.4 secs

     WARNING: integrated charge=   100.00173201, expected=   100.00000000

     total energy              =   -2691.73592990 Ry
     estimated scf accuracy    <       0.71724412 Ry

     total magnetization       =    -0.00 Bohr mag/cell
     absolute magnetization    =     3.03 Bohr mag/cell
[tb_dev] Currently allocated     7.92E+00 Mbytes, locked:    0 /  12
[tb_pin] Currently allocated     0.00E+00 Mbytes, locked:    0 /   0

     iteration # 37     ecut=    30.00 Ry     beta= 0.40
     Davidson diagonalization with overlap

---- Real-time Memory Report at c_bands before calling an iterative solver
          3670 MiB given to the printing process from OS
         -1346 MiB allocation reported by mallinfo(arena+hblkhd)
         56266 MiB available memory on the node where the printing process lives
     GPU memory used/free/total (MiB): 2670 / 13610 / 16280
------------------
     ethr =  3.09E-04,  avg # of iterations =  1.0

     negative rho (up, down):  1.827E+00 1.317E-01

     total cpu time spent up to now is      579.1 secs

     WARNING: integrated charge=   100.00208355, expected=   100.00000000

     total energy              =   -2691.73387678 Ry
     estimated scf accuracy    <       0.62107754 Ry

     total magnetization       =    -0.00 Bohr mag/cell
     absolute magnetization    =     3.13 Bohr mag/cell
[tb_dev] Currently allocated     7.92E+00 Mbytes, locked:    0 /  12
[tb_pin] Currently allocated     0.00E+00 Mbytes, locked:    0 /   0

     iteration # 38     ecut=    30.00 Ry     beta= 0.40
     Davidson diagonalization with overlap

---- Real-time Memory Report at c_bands before calling an iterative solver
          3684 MiB given to the printing process from OS
         -1333 MiB allocation reported by mallinfo(arena+hblkhd)
         56254 MiB available memory on the node where the printing process lives
     GPU memory used/free/total (MiB): 2670 / 13610 / 16280
------------------
     ethr =  3.09E-04,  avg # of iterations =  1.5

     negative rho (up, down):  1.696E+00 2.766E-01

     total cpu time spent up to now is      593.7 secs

     WARNING: integrated charge=   100.00196906, expected=   100.00000000

     total energy              =   -2691.73694933 Ry
     estimated scf accuracy    <       0.73295052 Ry

     total magnetization       =    -0.00 Bohr mag/cell
     absolute magnetization    =     3.47 Bohr mag/cell
[tb_dev] Currently allocated     7.92E+00 Mbytes, locked:    0 /  12
[tb_pin] Currently allocated     0.00E+00 Mbytes, locked:    0 /   0

     iteration # 39     ecut=    30.00 Ry     beta= 0.40
     Davidson diagonalization with overlap

---- Real-time Memory Report at c_bands before calling an iterative solver
          3698 MiB given to the printing process from OS
         -1321 MiB allocation reported by mallinfo(arena+hblkhd)
         56241 MiB available memory on the node where the printing process lives
     GPU memory used/free/total (MiB): 2670 / 13610 / 16280
------------------
     ethr =  3.09E-04,  avg # of iterations =  1.8

     negative rho (up, down):  2.008E+00 1.145E-02

     total cpu time spent up to now is      608.6 secs

     WARNING: integrated charge=   100.00178952, expected=   100.00000000

     total energy              =   -2691.69715147 Ry
     estimated scf accuracy    <       1.17981333 Ry

     total magnetization       =    -0.00 Bohr mag/cell
     absolute magnetization    =     3.32 Bohr mag/cell
[tb_dev] Currently allocated     7.92E+00 Mbytes, locked:    0 /  12
[tb_pin] Currently allocated     0.00E+00 Mbytes, locked:    0 /   0

     iteration # 40     ecut=    30.00 Ry     beta= 0.40
     Davidson diagonalization with overlap

---- Real-time Memory Report at c_bands before calling an iterative solver
          3710 MiB given to the printing process from OS
         -1308 MiB allocation reported by mallinfo(arena+hblkhd)
         56221 MiB available memory on the node where the printing process lives
     GPU memory used/free/total (MiB): 2670 / 13610 / 16280
------------------
     ethr =  3.09E-04,  avg # of iterations =  2.5

     negative rho (up, down):  2.424E+00 3.726E-05

     total cpu time spent up to now is      625.3 secs

     WARNING: integrated charge=   100.00186845, expected=   100.00000000

     total energy              =   -2691.71421459 Ry
     estimated scf accuracy    <       0.11071394 Ry

     total magnetization       =    -0.00 Bohr mag/cell
     absolute magnetization    =     5.66 Bohr mag/cell
[tb_dev] Currently allocated     7.92E+00 Mbytes, locked:    0 /  12
[tb_pin] Currently allocated     0.00E+00 Mbytes, locked:    0 /   0

     iteration # 41     ecut=    30.00 Ry     beta= 0.40
     Davidson diagonalization with overlap

---- Real-time Memory Report at c_bands before calling an iterative solver
          3727 MiB given to the printing process from OS
         -1289 MiB allocation reported by mallinfo(arena+hblkhd)
         56205 MiB available memory on the node where the printing process lives
     GPU memory used/free/total (MiB): 2670 / 13610 / 16280
------------------
     ethr =  1.11E-04,  avg # of iterations =  4.4

     negative rho (up, down):  2.371E+00 9.950E-05

     total cpu time spent up to now is      646.0 secs

     WARNING: integrated charge=   100.00189999, expected=   100.00000000

     total energy              =   -2691.77477091 Ry
     estimated scf accuracy    <       5.14645861 Ry

     total magnetization       =    -0.00 Bohr mag/cell
     absolute magnetization    =     4.73 Bohr mag/cell
[tb_dev] Currently allocated     7.92E+00 Mbytes, locked:    0 /  12
[tb_pin] Currently allocated     0.00E+00 Mbytes, locked:    0 /   0

     iteration # 42     ecut=    30.00 Ry     beta= 0.40
     Davidson diagonalization with overlap

---- Real-time Memory Report at c_bands before calling an iterative solver
          3739 MiB given to the printing process from OS
         -1276 MiB allocation reported by mallinfo(arena+hblkhd)
         56192 MiB available memory on the node where the printing process lives
     GPU memory used/free/total (MiB): 2670 / 13610 / 16280
------------------
     ethr =  1.11E-04,  avg # of iterations =  3.4

     negative rho (up, down):  2.162E+00 0.000E+00

     total cpu time spent up to now is      663.4 secs

     WARNING: integrated charge=   100.00173670, expected=   100.00000000

     total energy              =   -2691.77141600 Ry
     estimated scf accuracy    <       5.14472387 Ry

     total magnetization       =    -0.00 Bohr mag/cell
     absolute magnetization    =     4.66 Bohr mag/cell
[tb_dev] Currently allocated     7.92E+00 Mbytes, locked:    0 /  12
[tb_pin] Currently allocated     0.00E+00 Mbytes, locked:    0 /   0

     iteration # 43     ecut=    30.00 Ry     beta= 0.40
     Davidson diagonalization with overlap

---- Real-time Memory Report at c_bands before calling an iterative solver
          3739 MiB given to the printing process from OS
         -1263 MiB allocation reported by mallinfo(arena+hblkhd)
         56184 MiB available memory on the node where the printing process lives
     GPU memory used/free/total (MiB): 2670 / 13610 / 16280
------------------
     ethr =  1.11E-04,  avg # of iterations =  3.1

     negative rho (up, down):  2.076E+00 0.000E+00

     total cpu time spent up to now is      681.4 secs

     WARNING: integrated charge=   100.00162906, expected=   100.00000000

     total energy              =   -2691.72644707 Ry
     estimated scf accuracy    <       4.90922955 Ry

     total magnetization       =    -0.00 Bohr mag/cell
     absolute magnetization    =     4.47 Bohr mag/cell
[tb_dev] Currently allocated     7.92E+00 Mbytes, locked:    0 /  12
[tb_pin] Currently allocated     0.00E+00 Mbytes, locked:    0 /   0

     iteration # 44     ecut=    30.00 Ry     beta= 0.40
     Davidson diagonalization with overlap

---- Real-time Memory Report at c_bands before calling an iterative solver
          3739 MiB given to the printing process from OS
         -1251 MiB allocation reported by mallinfo(arena+hblkhd)
         56168 MiB available memory on the node where the printing process lives
     GPU memory used/free/total (MiB): 2670 / 13610 / 16280
------------------
     ethr =  1.11E-04,  avg # of iterations =  2.5

     negative rho (up, down):  2.068E+00 0.000E+00

     total cpu time spent up to now is      697.8 secs

     WARNING: integrated charge=   100.00171653, expected=   100.00000000

     total energy              =   -2691.74731878 Ry
     estimated scf accuracy    <       1.86815857 Ry

     total magnetization       =    -0.00 Bohr mag/cell
     absolute magnetization    =     2.89 Bohr mag/cell
[tb_dev] Currently allocated     7.92E+00 Mbytes, locked:    0 /  12
[tb_pin] Currently allocated     0.00E+00 Mbytes, locked:    0 /   0

     iteration # 45     ecut=    30.00 Ry     beta= 0.40
     Davidson diagonalization with overlap

---- Real-time Memory Report at c_bands before calling an iterative solver
          3749 MiB given to the printing process from OS
         -1238 MiB allocation reported by mallinfo(arena+hblkhd)
         56153 MiB available memory on the node where the printing process lives
     GPU memory used/free/total (MiB): 2670 / 13610 / 16280
------------------
     ethr =  1.11E-04,  avg # of iterations =  2.0

     negative rho (up, down):  2.026E+00 2.597E-03

     total cpu time spent up to now is      713.0 secs

     WARNING: integrated charge=   100.00169967, expected=   100.00000000

     total energy              =   -2691.73780885 Ry
     estimated scf accuracy    <       2.37348904 Ry

     total magnetization       =    -0.00 Bohr mag/cell
     absolute magnetization    =     2.71 Bohr mag/cell
[tb_dev] Currently allocated     7.92E+00 Mbytes, locked:    0 /  12
[tb_pin] Currently allocated     0.00E+00 Mbytes, locked:    0 /   0

     iteration # 46     ecut=    30.00 Ry     beta= 0.40
     Davidson diagonalization with overlap

---- Real-time Memory Report at c_bands before calling an iterative solver
          3763 MiB given to the printing process from OS
         -1225 MiB allocation reported by mallinfo(arena+hblkhd)
         56142 MiB available memory on the node where the printing process lives
     GPU memory used/free/total (MiB): 2670 / 13610 / 16280
------------------
     ethr =  1.11E-04,  avg # of iterations =  1.6

     negative rho (up, down):  2.161E+00 1.375E-06

     total cpu time spent up to now is      727.8 secs

     WARNING: integrated charge=   100.00180428, expected=   100.00000000

     total energy              =   -2691.76601006 Ry
     estimated scf accuracy    <       1.58157510 Ry

     total magnetization       =    -0.00 Bohr mag/cell
     absolute magnetization    =     2.58 Bohr mag/cell
[tb_dev] Currently allocated     7.92E+00 Mbytes, locked:    0 /  12
[tb_pin] Currently allocated     0.00E+00 Mbytes, locked:    0 /   0

     iteration # 47     ecut=    30.00 Ry     beta= 0.40
     Davidson diagonalization with overlap

---- Real-time Memory Report at c_bands before calling an iterative solver
          3777 MiB given to the printing process from OS
         -1210 MiB allocation reported by mallinfo(arena+hblkhd)
         56126 MiB available memory on the node where the printing process lives
     GPU memory used/free/total (MiB): 2670 / 13610 / 16280
------------------
     ethr =  1.11E-04,  avg # of iterations =  3.2

     negative rho (up, down):  2.147E+00 5.283E-03

     total cpu time spent up to now is      745.8 secs

     WARNING: integrated charge=   100.00175857, expected=   100.00000000

     total energy              =   -2691.74374769 Ry
     estimated scf accuracy    <       4.09116487 Ry

     total magnetization       =    -0.00 Bohr mag/cell
     absolute magnetization    =     4.77 Bohr mag/cell
[tb_dev] Currently allocated     7.92E+00 Mbytes, locked:    0 /  12
[tb_pin] Currently allocated     0.00E+00 Mbytes, locked:    0 /   0

     iteration # 48     ecut=    30.00 Ry     beta= 0.40
     Davidson diagonalization with overlap

---- Real-time Memory Report at c_bands before calling an iterative solver
          3790 MiB given to the printing process from OS
         -1197 MiB allocation reported by mallinfo(arena+hblkhd)
         56115 MiB available memory on the node where the printing process lives
     GPU memory used/free/total (MiB): 2670 / 13610 / 16280
------------------
     ethr =  1.11E-04,  avg # of iterations =  2.6

     negative rho (up, down):  2.016E+00 5.648E-02

     total cpu time spent up to now is      761.7 secs

     WARNING: integrated charge=   100.00174373, expected=   100.00000000

     total energy              =   -2691.69168864 Ry
     estimated scf accuracy    <       2.53840682 Ry

     total magnetization       =    -0.00 Bohr mag/cell
     absolute magnetization    =     4.11 Bohr mag/cell
[tb_dev] Currently allocated     7.92E+00 Mbytes, locked:    0 /  12
[tb_pin] Currently allocated     0.00E+00 Mbytes, locked:    0 /   0

     iteration # 49     ecut=    30.00 Ry     beta= 0.40
     Davidson diagonalization with overlap

---- Real-time Memory Report at c_bands before calling an iterative solver
          3803 MiB given to the printing process from OS
         -1185 MiB allocation reported by mallinfo(arena+hblkhd)
         56100 MiB available memory on the node where the printing process lives
     GPU memory used/free/total (MiB): 2670 / 13610 / 16280
------------------
     ethr =  1.11E-04,  avg # of iterations =  3.4

     negative rho (up, down):  1.958E+00 1.877E-01

     total cpu time spent up to now is      780.0 secs

     WARNING: integrated charge=   100.00173824, expected=   100.00000000

     total energy              =   -2691.71752286 Ry
     estimated scf accuracy    <       0.18535951 Ry

     total magnetization       =    -0.00 Bohr mag/cell
     absolute magnetization    =     3.68 Bohr mag/cell
[tb_dev] Currently allocated     7.92E+00 Mbytes, locked:    0 /  12
[tb_pin] Currently allocated     0.00E+00 Mbytes, locked:    0 /   0

     iteration # 50     ecut=    30.00 Ry     beta= 0.40
     Davidson diagonalization with overlap

---- Real-time Memory Report at c_bands before calling an iterative solver
          3848 MiB given to the printing process from OS
         -1171 MiB allocation reported by mallinfo(arena+hblkhd)
         56086 MiB available memory on the node where the printing process lives
     GPU memory used/free/total (MiB): 2670 / 13610 / 16280
------------------
     ethr =  1.11E-04,  avg # of iterations =  2.9

     negative rho (up, down):  1.909E+00 3.132E-01

     total cpu time spent up to now is      796.8 secs

     WARNING: integrated charge=   100.00186070, expected=   100.00000000

     total energy              =   -2691.71908953 Ry
     estimated scf accuracy    <       0.24952215 Ry

     total magnetization       =    -0.00 Bohr mag/cell
     absolute magnetization    =     3.38 Bohr mag/cell
[tb_dev] Currently allocated     7.92E+00 Mbytes, locked:    0 /  12
[tb_pin] Currently allocated     0.00E+00 Mbytes, locked:    0 /   0

     iteration # 51     ecut=    30.00 Ry     beta= 0.40
     Davidson diagonalization with overlap

---- Real-time Memory Report at c_bands before calling an iterative solver
          3864 MiB given to the printing process from OS
         -1154 MiB allocation reported by mallinfo(arena+hblkhd)
         56070 MiB available memory on the node where the printing process lives
     GPU memory used/free/total (MiB): 2670 / 13610 / 16280
------------------
     ethr =  1.11E-04,  avg # of iterations =  3.2

     negative rho (up, down):  1.965E+00 2.884E-01

     total cpu time spent up to now is      813.7 secs

     WARNING: integrated charge=   100.00183892, expected=   100.00000000

     total energy              =   -2691.71873728 Ry
     estimated scf accuracy    <       0.46247547 Ry

     total magnetization       =    -0.00 Bohr mag/cell
     absolute magnetization    =     2.57 Bohr mag/cell
[tb_dev] Currently allocated     7.92E+00 Mbytes, locked:    0 /  12
[tb_pin] Currently allocated     0.00E+00 Mbytes, locked:    0 /   0

     iteration # 52     ecut=    30.00 Ry     beta= 0.40
     Davidson diagonalization with overlap

---- Real-time Memory Report at c_bands before calling an iterative solver
          3877 MiB given to the printing process from OS
         -1141 MiB allocation reported by mallinfo(arena+hblkhd)
         56056 MiB available memory on the node where the printing process lives
     GPU memory used/free/total (MiB): 2670 / 13610 / 16280
------------------
     ethr =  1.11E-04,  avg # of iterations =  3.0

[...]

     total magnetization       =    -0.00 Bohr mag/cell
     absolute magnetization    =     6.63 Bohr mag/cell
[tb_dev] Currently allocated     7.92E+00 Mbytes, locked:    0 /  12
[tb_pin] Currently allocated     0.00E+00 Mbytes, locked:    0 /   0

     iteration # 67     ecut=    30.00 Ry     beta= 0.40
     Davidson diagonalization with overlap

---- Real-time Memory Report at c_bands before calling an iterative solver
          4084 MiB given to the printing process from OS
          -929 MiB allocation reported by mallinfo(arena+hblkhd)
         55844 MiB available memory on the node where the printing process lives
     GPU memory used/free/total (MiB): 2670 / 13610 / 16280
------------------
     ethr =  8.63E-05,  avg # of iterations =  3.0

     negative rho (up, down):  1.967E+00 1.584E-01

     total cpu time spent up to now is     1072.9 secs

     WARNING: integrated charge=   100.00170445, expected=   100.00000000

     total energy              =   -2691.73607878 Ry
     estimated scf accuracy    <       0.18864576 Ry

     total magnetization       =    -0.00 Bohr mag/cell
     absolute magnetization    =     3.63 Bohr mag/cell
[tb_dev] Currently allocated     7.92E+00 Mbytes, locked:    0 /  12
[tb_pin] Currently allocated     0.00E+00 Mbytes, locked:    0 /   0

     iteration # 68     ecut=    30.00 Ry     beta= 0.40
     Davidson diagonalization with overlap

---- Real-time Memory Report at c_bands before calling an iterative solver
          4099 MiB given to the printing process from OS
          -916 MiB allocation reported by mallinfo(arena+hblkhd)
         55828 MiB available memory on the node where the printing process lives
     GPU memory used/free/total (MiB): 2670 / 13610 / 16280
------------------
     ethr =  8.63E-05,  avg # of iterations =  1.0

     negative rho (up, down):  1.983E+00 1.495E-01

     total cpu time spent up to now is     1086.6 secs

     WARNING: integrated charge=   100.00170112, expected=   100.00000000

     total energy              =   -2691.72908198 Ry
     estimated scf accuracy    <       0.18839567 Ry

     total magnetization       =    -0.00 Bohr mag/cell
     absolute magnetization    =     3.83 Bohr mag/cell
[tb_dev] Currently allocated     7.92E+00 Mbytes, locked:    0 /  12
[tb_pin] Currently allocated     0.00E+00 Mbytes, locked:    0 /   0

     iteration # 69     ecut=    30.00 Ry     beta= 0.40
     Davidson diagonalization with overlap

---- Real-time Memory Report at c_bands before calling an iterative solver
          4111 MiB given to the printing process from OS
          -904 MiB allocation reported by mallinfo(arena+hblkhd)
         55821 MiB available memory on the node where the printing process lives
     GPU memory used/free/total (MiB): 2670 / 13610 / 16280
------------------
     ethr =  8.63E-05,  avg # of iterations =  1.4

     negative rho (up, down):  1.937E+00 2.012E-01

     total cpu time spent up to now is     1100.9 secs

     WARNING: integrated charge=   100.00169845, expected=   100.00000000

     total energy              =   -2691.73437023 Ry
     estimated scf accuracy    <       0.22396944 Ry

     total magnetization       =    -0.00 Bohr mag/cell
     absolute magnetization    =     3.98 Bohr mag/cell
[tb_dev] Currently allocated     7.92E+00 Mbytes, locked:    0 /  12
[tb_pin] Currently allocated     0.00E+00 Mbytes, locked:    0 /   0

     iteration # 70     ecut=    30.00 Ry     beta= 0.40
     Davidson diagonalization with overlap

---- Real-time Memory Report at c_bands before calling an iterative solver
          4111 MiB given to the printing process from OS
          -891 MiB allocation reported by mallinfo(arena+hblkhd)
         55801 MiB available memory on the node where the printing process lives
     GPU memory used/free/total (MiB): 2670 / 13610 / 16280
------------------
     ethr =  8.63E-05,  avg # of iterations =  2.7

     negative rho (up, down):  1.941E+00 1.956E-01

     total cpu time spent up to now is     1117.5 secs

     WARNING: integrated charge=   100.00169772, expected=   100.00000000

     total energy              =   -2691.72965322 Ry
     estimated scf accuracy    <       0.15315275 Ry

     total magnetization       =    -0.00 Bohr mag/cell
     absolute magnetization    =     4.47 Bohr mag/cell
[tb_dev] Currently allocated     7.92E+00 Mbytes, locked:    0 /  12
[tb_pin] Currently allocated     0.00E+00 Mbytes, locked:    0 /   0

     iteration # 71     ecut=    30.00 Ry     beta= 0.40
     Davidson diagonalization with overlap

---- Real-time Memory Report at c_bands before calling an iterative solver
          4111 MiB given to the printing process from OS
          -878 MiB allocation reported by mallinfo(arena+hblkhd)
         55794 MiB available memory on the node where the printing process lives
     GPU memory used/free/total (MiB): 2670 / 13610 / 16280
------------------
     ethr =  8.63E-05,  avg # of iterations =  1.0

     negative rho (up, down):  1.946E+00 1.985E-01

     total cpu time spent up to now is     1131.3 secs

     WARNING: integrated charge=   100.00169167, expected=   100.00000000

     total energy              =   -2691.72735419 Ry
     estimated scf accuracy    <       0.17931756 Ry

     total magnetization       =    -0.00 Bohr mag/cell
     absolute magnetization    =     4.48 Bohr mag/cell
[tb_dev] Currently allocated     7.92E+00 Mbytes, locked:    0 /  12
[tb_pin] Currently allocated     0.00E+00 Mbytes, locked:    0 /   0

     iteration # 72     ecut=    30.00 Ry     beta= 0.40
     Davidson diagonalization with overlap

---- Real-time Memory Report at c_bands before calling an iterative solver
          4124 MiB given to the printing process from OS
          -863 MiB allocation reported by mallinfo(arena+hblkhd)
         55776 MiB available memory on the node where the printing process lives
     GPU memory used/free/total (MiB): 2670 / 13610 / 16280
------------------
     ethr =  8.63E-05,  avg # of iterations =  1.0

     negative rho (up, down):  1.954E+00 1.957E-01

     total cpu time spent up to now is     1145.1 secs

     WARNING: integrated charge=   100.00168893, expected=   100.00000000

     total energy              =   -2691.72646926 Ry
     estimated scf accuracy    <       0.20143098 Ry

     total magnetization       =    -0.00 Bohr mag/cell
     absolute magnetization    =     4.56 Bohr mag/cell
[tb_dev] Currently allocated     7.92E+00 Mbytes, locked:    0 /  12
[tb_pin] Currently allocated     0.00E+00 Mbytes, locked:    0 /   0

     iteration # 73     ecut=    30.00 Ry     beta= 0.40
     Davidson diagonalization with overlap

---- Real-time Memory Report at c_bands before calling an iterative solver
          4138 MiB given to the printing process from OS
          -850 MiB allocation reported by mallinfo(arena+hblkhd)
         55762 MiB available memory on the node where the printing process lives
     GPU memory used/free/total (MiB): 2670 / 13610 / 16280
------------------
     ethr =  8.63E-05,  avg # of iterations =  1.7

     negative rho (up, down):  1.944E+00 1.950E-01

     total cpu time spent up to now is     1159.8 secs

     WARNING: integrated charge=   100.00169820, expected=   100.00000000

     total energy              =   -2691.73111777 Ry
     estimated scf accuracy    <       0.18375759 Ry

     total magnetization       =    -0.00 Bohr mag/cell
     absolute magnetization    =     4.95 Bohr mag/cell
[tb_dev] Currently allocated     7.92E+00 Mbytes, locked:    0 /  12
[tb_pin] Currently allocated     0.00E+00 Mbytes, locked:    0 /   0

     iteration # 74     ecut=    30.00 Ry     beta= 0.40
     Davidson diagonalization with overlap

---- Real-time Memory Report at c_bands before calling an iterative solver
          4150 MiB given to the printing process from OS
          -838 MiB allocation reported by mallinfo(arena+hblkhd)
         55751 MiB available memory on the node where the printing process lives
     GPU memory used/free/total (MiB): 2670 / 13610 / 16280
------------------
     ethr =  8.63E-05,  avg # of iterations =  1.2

     negative rho (up, down):  1.924E+00 1.726E-01

     total cpu time spent up to now is     1173.8 secs

     WARNING: integrated charge=   100.00170879, expected=   100.00000000

     total energy              =   -2691.72968401 Ry
     estimated scf accuracy    <       0.15085948 Ry

     total magnetization       =    -0.00 Bohr mag/cell
     absolute magnetization    =     4.99 Bohr mag/cell
[tb_dev] Currently allocated     7.92E+00 Mbytes, locked:    0 /  12
[tb_pin] Currently allocated     0.00E+00 Mbytes, locked:    0 /   0

     iteration # 75     ecut=    30.00 Ry     beta= 0.40
     Davidson diagonalization with overlap

---- Real-time Memory Report at c_bands before calling an iterative solver
          4163 MiB given to the printing process from OS
          -825 MiB allocation reported by mallinfo(arena+hblkhd)
         55738 MiB available memory on the node where the printing process lives
     GPU memory used/free/total (MiB): 2670 / 13610 / 16280
------------------
     ethr =  8.63E-05,  avg # of iterations =  2.0

     negative rho (up, down):  1.912E+00 1.733E-01

     total cpu time spent up to now is     1188.9 secs

     WARNING: integrated charge=   100.00168166, expected=   100.00000000

     total energy              =   -2691.73411289 Ry
     estimated scf accuracy    <       0.10443886 Ry

     total magnetization       =    -0.00 Bohr mag/cell
     absolute magnetization    =     4.75 Bohr mag/cell
[tb_dev] Currently allocated     7.92E+00 Mbytes, locked:    0 /  12
[tb_pin] Currently allocated     0.00E+00 Mbytes, locked:    0 /   0

     iteration # 76     ecut=    30.00 Ry     beta= 0.40
     Davidson diagonalization with overlap

---- Real-time Memory Report at c_bands before calling an iterative solver
          4208 MiB given to the printing process from OS
          -811 MiB allocation reported by mallinfo(arena+hblkhd)
         55723 MiB available memory on the node where the printing process lives
     GPU memory used/free/total (MiB): 2670 / 13610 / 16280
------------------
     ethr =  8.63E-05,  avg # of iterations =  2.0

     negative rho (up, down):  1.937E+00 1.864E-01

     total cpu time spent up to now is     1204.3 secs

     WARNING: integrated charge=   100.00168293, expected=   100.00000000

     total energy              =   -2691.73764277 Ry
     estimated scf accuracy    <       0.30094990 Ry

     total magnetization       =    -0.00 Bohr mag/cell
     absolute magnetization    =     5.68 Bohr mag/cell
[tb_dev] Currently allocated     7.92E+00 Mbytes, locked:    0 /  12
[tb_pin] Currently allocated     0.00E+00 Mbytes, locked:    0 /   0

     iteration # 77     ecut=    30.00 Ry     beta= 0.40
     Davidson diagonalization with overlap

---- Real-time Memory Report at c_bands before calling an iterative solver
          4222 MiB given to the printing process from OS
          -794 MiB allocation reported by mallinfo(arena+hblkhd)
         55711 MiB available memory on the node where the printing process lives
     GPU memory used/free/total (MiB): 2670 / 13610 / 16280
------------------
     ethr =  8.63E-05,  avg # of iterations =  1.8

     negative rho (up, down):  1.922E+00 1.939E-01

     total cpu time spent up to now is     1219.3 secs

     WARNING: integrated charge=   100.00167670, expected=   100.00000000

     total energy              =   -2691.73661743 Ry
     estimated scf accuracy    <       0.22437990 Ry

     total magnetization       =    -0.00 Bohr mag/cell
     absolute magnetization    =     5.60 Bohr mag/cell
[tb_dev] Currently allocated     7.92E+00 Mbytes, locked:    0 /  12
[tb_pin] Currently allocated     0.00E+00 Mbytes, locked:    0 /   0

     iteration # 78     ecut=    30.00 Ry     beta= 0.40
     Davidson diagonalization with overlap

---- Real-time Memory Report at c_bands before calling an iterative solver
          4235 MiB given to the printing process from OS
          -782 MiB allocation reported by mallinfo(arena+hblkhd)
         55697 MiB available memory on the node where the printing process lives
     GPU memory used/free/total (MiB): 2670 / 13610 / 16280
------------------
     ethr =  8.63E-05,  avg # of iterations =  1.4

     negative rho (up, down):  1.907E+00 1.940E-01

     total cpu time spent up to now is     1233.5 secs

     WARNING: integrated charge=   100.00167791, expected=   100.00000000

     total energy              =   -2691.74149204 Ry
     estimated scf accuracy    <       0.18129378 Ry

     total magnetization       =    -0.00 Bohr mag/cell
     absolute magnetization    =     5.43 Bohr mag/cell
[tb_dev] Currently allocated     7.92E+00 Mbytes, locked:    0 /  12
[tb_pin] Currently allocated     0.00E+00 Mbytes, locked:    0 /   0

     iteration # 79     ecut=    30.00 Ry     beta= 0.40
     Davidson diagonalization with overlap

---- Real-time Memory Report at c_bands before calling an iterative solver
          4249 MiB given to the printing process from OS
          -769 MiB allocation reported by mallinfo(arena+hblkhd)
         55683 MiB available memory on the node where the printing process lives
     GPU memory used/free/total (MiB): 2670 / 13610 / 16280
------------------
     ethr =  8.63E-05,  avg # of iterations =  1.5

     negative rho (up, down):  1.907E+00 1.708E-01

     total cpu time spent up to now is     1247.9 secs

     WARNING: integrated charge=   100.00168635, expected=   100.00000000

     total energy              =   -2691.73080113 Ry
     estimated scf accuracy    <       0.19575082 Ry

     total magnetization       =    -0.00 Bohr mag/cell
     absolute magnetization    =     5.60 Bohr mag/cell
[tb_dev] Currently allocated     7.92E+00 Mbytes, locked:    0 /  12
[tb_pin] Currently allocated     0.00E+00 Mbytes, locked:    0 /   0

     iteration # 80     ecut=    30.00 Ry     beta= 0.40
     Davidson diagonalization with overlap

---- Real-time Memory Report at c_bands before calling an iterative solver
          4264 MiB given to the printing process from OS
          -749 MiB allocation reported by mallinfo(arena+hblkhd)
         55664 MiB available memory on the node where the printing process lives
     GPU memory used/free/total (MiB): 2670 / 13610 / 16280
------------------
     ethr =  8.63E-05,  avg # of iterations =  3.0

     negative rho (up, down):  1.939E+00 1.190E-01

     total cpu time spent up to now is     1265.5 secs

     WARNING: integrated charge=   100.00166401, expected=   100.00000000

     total energy              =   -2691.72437037 Ry
     estimated scf accuracy    <       0.08965820 Ry

     total magnetization       =    -0.00 Bohr mag/cell
     absolute magnetization    =     4.31 Bohr mag/cell

     End of self-consistent calculation

     convergence NOT achieved after  80 iterations: stopping

     Writing config to output data dir ./out/aiida.save/
 
     init_run     :     48.87s CPU     12.39s WALL (       1 calls)
     electrons    :   3145.39s CPU   1252.38s WALL (       1 calls)

     Called by init_run:
     wfcinit      :      6.21s CPU      7.55s WALL (       1 calls)
                                        7.55s GPU  (       1 calls)
     wfcinit:atom :      0.11s CPU      0.12s WALL (     190 calls)
                                        0.12s GPU  (     190 calls)
     wfcinit:wfcr :      3.83s CPU      4.50s WALL (     190 calls)
                                        4.50s GPU  (     190 calls)
     potinit      :     29.73s CPU      2.74s WALL (       1 calls)
     hinit0       :      7.42s CPU      1.35s WALL (       1 calls)

     Called by electrons:
     c_bands      :    931.99s CPU    884.73s WALL (      80 calls)
     sum_band     :    164.30s CPU    181.38s WALL (      80 calls)
     v_of_rho     :     58.86s CPU      5.33s WALL (      81 calls)
     v_h          :     10.11s CPU      0.91s WALL (      81 calls)
     v_xc         :     48.75s CPU      4.42s WALL (      81 calls)
     newd         :     50.85s CPU      4.94s WALL (      81 calls)
                                        4.94s GPU  (      81 calls)
     PAW_pot      :   1907.81s CPU    172.44s WALL (      81 calls)
     mix_rho      :     36.94s CPU      4.09s WALL (      80 calls)

     Called by c_bands:
     init_us_2    :     69.17s CPU     80.49s WALL (   30590 calls)
     init_us_2:gp :     68.64s CPU     79.98s WALL (   30590 calls)
     cegterg      :    788.56s CPU    745.84s WALL (   15200 calls)

     Called by sum_band:
     sum_band:wei :      1.02s CPU      1.03s WALL (      80 calls)
                                        1.03s GPU  (      80 calls)
     sum_band:loo :    155.66s CPU    172.56s WALL (      80 calls)
                                      172.57s GPU  (      80 calls)
     sum_band:buf :     31.53s CPU     32.86s WALL (   15200 calls)
                                       32.77s GPU  (   15200 calls)
     sum_band:ini :     30.10s CPU     38.89s WALL (   15200 calls)
                                       38.81s GPU  (   15200 calls)
     sum_band:cal :      0.46s CPU      7.98s WALL (   15200 calls)
                                        5.10s GPU  (   15200 calls)
     sum_band:bec :      5.01s CPU      5.40s WALL (   15200 calls)
                                        5.30s GPU  (   15200 calls)
     addusdens    :      4.78s CPU      4.94s WALL (      80 calls)
                                        4.94s GPU  (      80 calls)
     addusd:skk   :      0.05s CPU      0.05s WALL (     160 calls)
                                        0.05s GPU  (     160 calls)

     Called by *egterg:
     cdiaghg      :    232.83s CPU    238.78s WALL (   48048 calls)
                                      238.45s GPU  (   48048 calls)
     cegterg:over :     11.19s CPU     10.49s WALL (   32848 calls)
     cegterg:upda :     19.68s CPU     18.84s WALL (   32848 calls)
     cegterg:last :      8.14s CPU      7.52s WALL (   25084 calls)
     h_psi        :    469.57s CPU    428.61s WALL (   48238 calls)
                                      427.97s GPU  (   48238 calls)
     s_psi        :     10.94s CPU     26.28s WALL (   48238 calls)
                                       25.11s GPU  (   48238 calls)
     g_psi        :      0.27s CPU      1.50s WALL (   32848 calls)
                                        1.29s GPU  (   32848 calls)

     Called by h_psi:
     h_psi:calbec :      1.73s CPU     14.47s WALL (   48238 calls)
                                       14.15s GPU  (   48238 calls)
     vloc_psi     :    416.18s CPU    380.55s WALL (   48238 calls)
                                      380.25s GPU  (   48238 calls)
     add_vuspsi   :     17.98s CPU     29.26s WALL (   48238 calls)
                                       28.95s GPU  (   48238 calls)

     General routines
     calbec       :      1.54s CPU      1.44s WALL (   63438 calls)
     fft          :      2.99s CPU      0.75s WALL (    2023 calls)
                                        0.59s GPU  (    1861 calls)
     ffts         :      0.11s CPU      0.06s WALL (     322 calls)
                                        0.01s GPU  (     160 calls)
     fftw         :      7.45s CPU    322.62s WALL (  349324 calls)
                                      320.33s GPU  (  349324 calls)
     interpolate  :      8.62s CPU      0.77s WALL (     162 calls)
     davcio       :      0.71s CPU      0.86s WALL (     208 calls)
 
     Parallel routines

     PAW routines
     PAW_pot      :   1907.81s CPU    172.44s WALL (      81 calls)
     PAW_symme    :      0.41s CPU      0.07s WALL (     161 calls)
 
     PWSCF        :  53m18.05s CPU  21m 6.64s WALL

 
   This run was terminated on:   0:46:53  23Oct2023            

=------------------------------------------------------------------------------=
   JOB DONE.
=------------------------------------------------------------------------------=
