
     Program PWSCF v.7.2 starts on 29Nov2023 at 20:28: 9 
        Git branch: develop
        Last git commit: 9055681be6fc8200e6fffe76ed5fda34c2696339
        Last git commit date: Wed Nov 8 16:29:39 2023 +0000
        Last git commit subject: Merge branch 'calbec_fix' into 'develop'

     This program is part of the open-source Quantum ESPRESSO suite
     for quantum simulation of materials; please cite
         "P. Giannozzi et al., J. Phys.:Condens. Matter 21 395502 (2009);
         "P. Giannozzi et al., J. Phys.:Condens. Matter 29 465901 (2017);
         "P. Giannozzi et al., J. Chem. Phys. 152 154105 (2020);
          URL http://www.quantum-espresso.org", 
     in publications or presentations arising from this work. More details at
     http://www.quantum-espresso.org/quote

     Parallel version (MPI), running on    56 processors

     MPI processes distributed on     1 nodes
     488181 MiB available memory on the printing compute node when the environment starts

     Reading input from aiida.in

     Current dimensions of program PWSCF are:
     Max number of different atomic species (ntypx) = 10
     Max number of k-points (npk) =  40000
     Max angular momentum in pseudopotentials (lmaxx) =  4
     file Ba.pbesol-spn-kjpaw_psl.1.0.0.UPF: wavefunction(s)  5S 6S renormalized
     file O.pbesol-n-kjpaw_psl.0.1.UPF: wavefunction(s)  2P renormalized
     Message from routine setup:
     using ibrav=0 with symmetry is DISCOURAGED, use correct ibrav instead

     K-points division:     npool     =       7
     R & G space division:  proc/nbgrp/npool/nimage =       8
     Subspace diagonalization in iterative solution of the eigenvalue problem:
     a serial algorithm will be used


     Parallelization info
     --------------------
     sticks:   dense  smooth     PW     G-vecs:    dense   smooth      PW
     Min         718     359    101                39953    14115    2145
     Max         720     360    102                39956    14118    2148
     Sum        5755    2877    809               319637   112935   17163

     Using Slab Decomposition



     bravais-lattice index     =            0
     lattice parameter (alat)  =      15.7641  a.u.
     unit-cell volume          =    2364.9442 (a.u.)^3
     number of atoms/cell      =            8
     number of atomic types    =            3
     number of electrons       =        70.00
     number of Kohn-Sham states=           42
     kinetic-energy cutoff     =      50.0000  Ry
     charge density cutoff     =     400.0000  Ry
     scf convergence threshold =      1.6E-09
     mixing beta               =       0.4000
     number of iterations used =            8  plain     mixing
     Exchange-correlation= SLA  PW   PSX  PSC
                           (   1   4  10   8   0   0   0)

     celldm(1)=  15.764050  celldm(2)=   0.000000  celldm(3)=   0.000000
     celldm(4)=   0.000000  celldm(5)=   0.000000  celldm(6)=   0.000000

     crystal axes: (cart. coord. in units of alat)
               a(1) = (   0.395032  -0.918667   0.000000 )  
               a(2) = (   0.395032   0.918667   0.000000 )  
               a(3) = (   0.000000   0.000000   0.831757 )  

     reciprocal axes: (cart. coord. in units 2 pi/alat)
               b(1) = (  1.265719 -0.544267  0.000000 )  
               b(2) = (  1.265719  0.544267 -0.000000 )  
               b(3) = ( -0.000000  0.000000  1.202274 )  


     PseudoPot. # 1 for Ba read from file:
     ./pseudo/Ba.pbesol-spn-kjpaw_psl.1.0.0.UPF
     MD5 check sum: f28c4a63d325c1a0d00fd3a4f19b8d73
     Pseudo is Projector augmented-wave + core cor, Zval = 10.0
     Generated using "atomic" code by A. Dal Corso  v.6.0 svn rev. 13079
     Shape of augmentation charge: PSQ
     Using radial grid of 1251 points,  7 beta functions with: 
                l(1) =   0
                l(2) =   0
                l(3) =   0
                l(4) =   1
                l(5) =   1
                l(6) =   2
                l(7) =   2
     Q(r) pseudized with 0 coefficients 


     PseudoPot. # 2 for Na read from file:
     ./pseudo/na_pbesol_v1.5.uspp.F.UPF
     MD5 check sum: 164b46c7694b4bc5b1217b5d1ae6f423
     Pseudo is Ultrasoft, Zval =  9.0
     Generated by new atomic code, or converted to UPF format
     Using radial grid of  819 points,  5 beta functions with: 
                l(1) =   0
                l(2) =   0
                l(3) =   1
                l(4) =   1
                l(5) =   2
     Q(r) pseudized with  8 coefficients,  rinner =    1.250   1.250   1.250
                                                       1.250   1.250

     PseudoPot. # 3 for O  read from file:
     ./pseudo/O.pbesol-n-kjpaw_psl.0.1.UPF
     MD5 check sum: 81d73d1479e654e5638b0319f0d6c2c7
     Pseudo is Projector augmented-wave + core cor, Zval =  6.0
     Generated using "atomic" code by A. Dal Corso  v.6.0 svn rev. 13079
     Shape of augmentation charge: BESSEL
     Using radial grid of 1095 points,  4 beta functions with: 
                l(1) =   0
                l(2) =   0
                l(3) =   1
                l(4) =   1
     Q(r) pseudized with 0 coefficients 


     atomic species   valence    mass     pseudopotential
     Ba               10.00   137.32700     Ba( 1.00)
     Na                9.00    22.98977     Na( 1.00)
     O                 6.00    15.99940     O ( 1.00)

     Starting magnetic structure 
     atomic species   magnetization
     Ba              0.100
     Na              0.100
     O               0.100

      8 Sym. Ops., with inversion, found ( 4 have fractional translation)


                                    s                        frac. trans.

      isym =  1     identity                                     

 cryst.   s( 1) = (     1          0          0      )
                  (     0          1          0      )
                  (     0          0          1      )

 cart.    s( 1) = (  1.0000000  0.0000000  0.0000000 )
                  (  0.0000000  1.0000000  0.0000000 )
                  (  0.0000000  0.0000000  1.0000000 )


      isym =  2     180 deg rotation - cart. axis [0,0,1]        

 cryst.   s( 2) = (    -1          0          0      )    f =( -0.5000000 )
                  (     0         -1          0      )       (  0.5000000 )
                  (     0          0          1      )       (  0.0000000 )

 cart.    s( 2) = ( -1.0000000 -0.0000000  0.0000000 )    f =(  0.0000000 )
                  ( -0.0000000 -1.0000000  0.0000000 )       (  0.9186672 )
                  (  0.0000000  0.0000000  1.0000000 )       (  0.0000000 )


      isym =  3     180 deg rotation - cart. axis [0,1,0]        

 cryst.   s( 3) = (     0         -1          0      )    f =( -0.5000000 )
                  (    -1          0          0      )       ( -0.5000000 )
                  (     0          0         -1      )       (  0.0000000 )

 cart.    s( 3) = ( -1.0000000  0.0000000  0.0000000 )    f =( -0.3950323 )
                  ( -0.0000000  1.0000000  0.0000000 )       ( -0.0000000 )
                  (  0.0000000  0.0000000 -1.0000000 )       (  0.0000000 )


      isym =  4     180 deg rotation - cart. axis [1,0,0]        

 cryst.   s( 4) = (     0          1          0      )
                  (     1          0          0      )
                  (     0          0         -1      )

 cart.    s( 4) = (  1.0000000 -0.0000000  0.0000000 )
                  (  0.0000000 -1.0000000  0.0000000 )
                  (  0.0000000  0.0000000 -1.0000000 )


      isym =  5     inversion                                    

 cryst.   s( 5) = (    -1          0          0      )
                  (     0         -1          0      )
                  (     0          0         -1      )

 cart.    s( 5) = ( -1.0000000 -0.0000000  0.0000000 )
                  ( -0.0000000 -1.0000000  0.0000000 )
                  (  0.0000000  0.0000000 -1.0000000 )


      isym =  6     inv. 180 deg rotation - cart. axis [0,0,1]   

 cryst.   s( 6) = (     1          0          0      )    f =(  0.5000000 )
                  (     0          1          0      )       (  0.5000000 )
                  (     0          0         -1      )       (  0.0000000 )

 cart.    s( 6) = (  1.0000000  0.0000000  0.0000000 )    f =(  0.3950323 )
                  (  0.0000000  1.0000000  0.0000000 )       ( -0.0000000 )
                  (  0.0000000  0.0000000 -1.0000000 )       (  0.0000000 )


      isym =  7     inv. 180 deg rotation - cart. axis [0,1,0]   

 cryst.   s( 7) = (     0          1          0      )    f =( -0.5000000 )
                  (     1          0          0      )       (  0.5000000 )
                  (     0          0          1      )       (  0.0000000 )

 cart.    s( 7) = (  1.0000000 -0.0000000  0.0000000 )    f =(  0.0000000 )
                  (  0.0000000 -1.0000000  0.0000000 )       (  0.9186672 )
                  (  0.0000000  0.0000000  1.0000000 )       (  0.0000000 )


      isym =  8     inv. 180 deg rotation - cart. axis [1,0,0]   

 cryst.   s( 8) = (     0         -1          0      )
                  (    -1          0          0      )
                  (     0          0          1      )

 cart.    s( 8) = ( -1.0000000  0.0000000  0.0000000 )
                  ( -0.0000000  1.0000000  0.0000000 )
                  (  0.0000000  0.0000000  1.0000000 )


   Cartesian axes

     site n.     atom                  positions (alat units)
         1        Ba     tau(   1) = (   0.0000000   0.7588191   0.6664872  )
         2        Ba     tau(   2) = (   0.3950323   0.7588191   0.1652702  )
         3        Ba     tau(   3) = (   0.3950323   0.1598481   0.1652702  )
         4        Ba     tau(   4) = (   0.0000000   0.1598481   0.6664872  )
         5        Na     tau(   5) = (   0.0000000   0.4593336   0.2587597  )
         6        Na     tau(   6) = (   0.3950323   0.4593336   0.5729976  )
         7        O      tau(   7) = (   0.5925485   0.9186672   0.0000000  )
         8        O      tau(   8) = (   0.1975162   0.9186672   0.0000000  )

   Crystallographic axes

     site n.     atom                  positions (cryst. coord.)
         1        Ba     tau(   1) = ( -0.4130000  0.4130000  0.8013000  )
         2        Ba     tau(   2) = (  0.0870000  0.9130000  0.1987000  )
         3        Ba     tau(   3) = (  0.4130000  0.5870000  0.1987000  )
         4        Ba     tau(   4) = ( -0.0870000  0.0870000  0.8013000  )
         5        Na     tau(   5) = ( -0.2500000  0.2500000  0.3111000  )
         6        Na     tau(   6) = (  0.2500000  0.7500000  0.6889000  )
         7        O      tau(   7) = (  0.2500000  1.2500000  0.0000000  )
         8        O      tau(   8) = ( -0.2500000  0.7500000  0.0000000  )

     number of k points=    64  Marzari-Vanderbilt smearing, width (Ry)=  0.0200
                       cart. coord. in units 2pi/alat
        k(    1) = (   0.0000000   0.0000000   0.0000000), wk =   0.0029155
        k(    2) = (   0.0000000   0.0000000   0.1717534), wk =   0.0058309
        k(    3) = (   0.0000000   0.0000000   0.3435068), wk =   0.0058309
        k(    4) = (   0.0000000   0.0000000   0.5152602), wk =   0.0058309
        k(    5) = (   0.1808170   0.0777524   0.0000000), wk =   0.0116618
        k(    6) = (   0.1808170   0.0777524   0.1717534), wk =   0.0233236
        k(    7) = (   0.1808170   0.0777524   0.3435068), wk =   0.0233236
        k(    8) = (   0.1808170   0.0777524   0.5152602), wk =   0.0233236
        k(    9) = (   0.3616341   0.1555048   0.0000000), wk =   0.0116618
        k(   10) = (   0.3616341   0.1555048   0.1717534), wk =   0.0233236
        k(   11) = (   0.3616341   0.1555048   0.3435068), wk =   0.0233236
        k(   12) = (   0.3616341   0.1555048   0.5152602), wk =   0.0233236
        k(   13) = (   0.5424511   0.2332572   0.0000000), wk =   0.0116618
        k(   14) = (   0.5424511   0.2332572   0.1717534), wk =   0.0233236
        k(   15) = (   0.5424511   0.2332572   0.3435068), wk =   0.0233236
        k(   16) = (   0.5424511   0.2332572   0.5152602), wk =   0.0233236
        k(   17) = (   0.3616341   0.0000000   0.0000000), wk =   0.0058309
        k(   18) = (   0.3616341   0.0000000   0.1717534), wk =   0.0116618
        k(   19) = (   0.3616341   0.0000000   0.3435068), wk =   0.0116618
        k(   20) = (   0.3616341   0.0000000   0.5152602), wk =   0.0116618
        k(   21) = (   0.5424511   0.0777524   0.0000000), wk =   0.0116618
        k(   22) = (   0.5424511   0.0777524   0.1717534), wk =   0.0233236
        k(   23) = (   0.5424511   0.0777524   0.3435068), wk =   0.0233236
        k(   24) = (   0.5424511   0.0777524   0.5152602), wk =   0.0233236
        k(   25) = (   0.7232682   0.1555048   0.0000000), wk =   0.0116618
        k(   26) = (   0.7232682   0.1555048   0.1717534), wk =   0.0233236
        k(   27) = (   0.7232682   0.1555048   0.3435068), wk =   0.0233236
        k(   28) = (   0.7232682   0.1555048   0.5152602), wk =   0.0233236
        k(   29) = (  -0.3616341  -0.3110096   0.0000000), wk =   0.0116618
        k(   30) = (  -0.3616341  -0.3110096   0.1717534), wk =   0.0233236
        k(   31) = (  -0.3616341  -0.3110096   0.3435068), wk =   0.0233236
        k(   32) = (  -0.3616341  -0.3110096   0.5152602), wk =   0.0233236
        k(   33) = (  -0.1808170  -0.2332572   0.0000000), wk =   0.0116618
        k(   34) = (  -0.1808170  -0.2332572   0.1717534), wk =   0.0233236
        k(   35) = (  -0.1808170  -0.2332572   0.3435068), wk =   0.0233236
        k(   36) = (  -0.1808170  -0.2332572   0.5152602), wk =   0.0233236
        k(   37) = (  -0.0000000  -0.1555048   0.0000000), wk =   0.0058309
        k(   38) = (  -0.0000000  -0.1555048   0.1717534), wk =   0.0116618
        k(   39) = (  -0.0000000  -0.1555048   0.3435068), wk =   0.0116618
        k(   40) = (  -0.0000000  -0.1555048   0.5152602), wk =   0.0116618
        k(   41) = (   0.7232682   0.0000000   0.0000000), wk =   0.0058309
        k(   42) = (   0.7232682   0.0000000   0.1717534), wk =   0.0116618
        k(   43) = (   0.7232682   0.0000000   0.3435068), wk =   0.0116618
        k(   44) = (   0.7232682   0.0000000   0.5152602), wk =   0.0116618
        k(   45) = (   0.9040852   0.0777524   0.0000000), wk =   0.0116618
        k(   46) = (   0.9040852   0.0777524   0.1717534), wk =   0.0233236
        k(   47) = (   0.9040852   0.0777524   0.3435068), wk =   0.0233236
        k(   48) = (   0.9040852   0.0777524   0.5152602), wk =   0.0233236
        k(   49) = (  -0.1808170  -0.3887619   0.0000000), wk =   0.0116618
        k(   50) = (  -0.1808170  -0.3887619   0.1717534), wk =   0.0233236
        k(   51) = (  -0.1808170  -0.3887619   0.3435068), wk =   0.0233236
        k(   52) = (  -0.1808170  -0.3887619   0.5152602), wk =   0.0233236
        k(   53) = (   0.0000000  -0.3110096   0.0000000), wk =   0.0058309
        k(   54) = (   0.0000000  -0.3110096   0.1717534), wk =   0.0116618
        k(   55) = (   0.0000000  -0.3110096   0.3435068), wk =   0.0116618
        k(   56) = (   0.0000000  -0.3110096   0.5152602), wk =   0.0116618
        k(   57) = (   1.0849022   0.0000000   0.0000000), wk =   0.0058309
        k(   58) = (   1.0849022   0.0000000   0.1717534), wk =   0.0116618
        k(   59) = (   1.0849022   0.0000000   0.3435068), wk =   0.0116618
        k(   60) = (   1.0849022   0.0000000   0.5152602), wk =   0.0116618
        k(   61) = (  -0.0000000  -0.4665143   0.0000000), wk =   0.0058309
        k(   62) = (  -0.0000000  -0.4665143   0.1717534), wk =   0.0116618
        k(   63) = (  -0.0000000  -0.4665143   0.3435068), wk =   0.0116618
        k(   64) = (  -0.0000000  -0.4665143   0.5152602), wk =   0.0116618

                       cryst. coord.
        k(    1) = (   0.0000000   0.0000000   0.0000000), wk =   0.0029155
        k(    2) = (   0.0000000   0.0000000   0.1428571), wk =   0.0058309
        k(    3) = (   0.0000000   0.0000000   0.2857143), wk =   0.0058309
        k(    4) = (   0.0000000   0.0000000   0.4285714), wk =   0.0058309
        k(    5) = (  -0.0000000   0.1428571   0.0000000), wk =   0.0116618
        k(    6) = (  -0.0000000   0.1428571   0.1428571), wk =   0.0233236
        k(    7) = (  -0.0000000   0.1428571   0.2857143), wk =   0.0233236
        k(    8) = (  -0.0000000   0.1428571   0.4285714), wk =   0.0233236
        k(    9) = (  -0.0000000   0.2857143   0.0000000), wk =   0.0116618
        k(   10) = (  -0.0000000   0.2857143   0.1428571), wk =   0.0233236
        k(   11) = (  -0.0000000   0.2857143   0.2857143), wk =   0.0233236
        k(   12) = (  -0.0000000   0.2857143   0.4285714), wk =   0.0233236
        k(   13) = (   0.0000000   0.4285714   0.0000000), wk =   0.0116618
        k(   14) = (   0.0000000   0.4285714   0.1428571), wk =   0.0233236
        k(   15) = (   0.0000000   0.4285714   0.2857143), wk =   0.0233236
        k(   16) = (   0.0000000   0.4285714   0.4285714), wk =   0.0233236
        k(   17) = (   0.1428571   0.1428571   0.0000000), wk =   0.0058309
        k(   18) = (   0.1428571   0.1428571   0.1428571), wk =   0.0116618
        k(   19) = (   0.1428571   0.1428571   0.2857143), wk =   0.0116618
        k(   20) = (   0.1428571   0.1428571   0.4285714), wk =   0.0116618
        k(   21) = (   0.1428571   0.2857143   0.0000000), wk =   0.0116618
        k(   22) = (   0.1428571   0.2857143   0.1428571), wk =   0.0233236
        k(   23) = (   0.1428571   0.2857143   0.2857143), wk =   0.0233236
        k(   24) = (   0.1428571   0.2857143   0.4285714), wk =   0.0233236
        k(   25) = (   0.1428571   0.4285714   0.0000000), wk =   0.0116618
        k(   26) = (   0.1428571   0.4285714   0.1428571), wk =   0.0233236
        k(   27) = (   0.1428571   0.4285714   0.2857143), wk =   0.0233236
        k(   28) = (   0.1428571   0.4285714   0.4285714), wk =   0.0233236
        k(   29) = (   0.1428571  -0.4285714   0.0000000), wk =   0.0116618
        k(   30) = (   0.1428571  -0.4285714   0.1428571), wk =   0.0233236
        k(   31) = (   0.1428571  -0.4285714   0.2857143), wk =   0.0233236
        k(   32) = (   0.1428571  -0.4285714   0.4285714), wk =   0.0233236
        k(   33) = (   0.1428571  -0.2857143   0.0000000), wk =   0.0116618
        k(   34) = (   0.1428571  -0.2857143   0.1428571), wk =   0.0233236
        k(   35) = (   0.1428571  -0.2857143   0.2857143), wk =   0.0233236
        k(   36) = (   0.1428571  -0.2857143   0.4285714), wk =   0.0233236
        k(   37) = (   0.1428571  -0.1428571   0.0000000), wk =   0.0058309
        k(   38) = (   0.1428571  -0.1428571   0.1428571), wk =   0.0116618
        k(   39) = (   0.1428571  -0.1428571   0.2857143), wk =   0.0116618
        k(   40) = (   0.1428571  -0.1428571   0.4285714), wk =   0.0116618
        k(   41) = (   0.2857143   0.2857143   0.0000000), wk =   0.0058309
        k(   42) = (   0.2857143   0.2857143   0.1428571), wk =   0.0116618
        k(   43) = (   0.2857143   0.2857143   0.2857143), wk =   0.0116618
        k(   44) = (   0.2857143   0.2857143   0.4285714), wk =   0.0116618
        k(   45) = (   0.2857143   0.4285714   0.0000000), wk =   0.0116618
        k(   46) = (   0.2857143   0.4285714   0.1428571), wk =   0.0233236
        k(   47) = (   0.2857143   0.4285714   0.2857143), wk =   0.0233236
        k(   48) = (   0.2857143   0.4285714   0.4285714), wk =   0.0233236
        k(   49) = (   0.2857143  -0.4285714   0.0000000), wk =   0.0116618
        k(   50) = (   0.2857143  -0.4285714   0.1428571), wk =   0.0233236
        k(   51) = (   0.2857143  -0.4285714   0.2857143), wk =   0.0233236
        k(   52) = (   0.2857143  -0.4285714   0.4285714), wk =   0.0233236
        k(   53) = (   0.2857143  -0.2857143   0.0000000), wk =   0.0058309
        k(   54) = (   0.2857143  -0.2857143   0.1428571), wk =   0.0116618
        k(   55) = (   0.2857143  -0.2857143   0.2857143), wk =   0.0116618
        k(   56) = (   0.2857143  -0.2857143   0.4285714), wk =   0.0116618
        k(   57) = (   0.4285714   0.4285714   0.0000000), wk =   0.0058309
        k(   58) = (   0.4285714   0.4285714   0.1428571), wk =   0.0116618
        k(   59) = (   0.4285714   0.4285714   0.2857143), wk =   0.0116618
        k(   60) = (   0.4285714   0.4285714   0.4285714), wk =   0.0116618
        k(   61) = (   0.4285714  -0.4285714   0.0000000), wk =   0.0058309
        k(   62) = (   0.4285714  -0.4285714   0.1428571), wk =   0.0116618
        k(   63) = (   0.4285714  -0.4285714   0.2857143), wk =   0.0116618
        k(   64) = (   0.4285714  -0.4285714   0.4285714), wk =   0.0116618

     Dense  grid:   319637 G-vectors     FFT dimensions: ( 108, 108,  90)

     Smooth grid:   112935 G-vectors     FFT dimensions: (  72,  72,  60)

     Dynamical RAM for                 wfc:       1.13 MB

     Dynamical RAM for     wfc (w. buffer):      22.62 MB

     Dynamical RAM for           str. fact:       1.83 MB

     Dynamical RAM for           local pot:       0.00 MB

     Dynamical RAM for          nlocal pot:       3.18 MB

     Dynamical RAM for                qrad:       6.42 MB

     Dynamical RAM for          rho,v,vnew:      10.07 MB

     Dynamical RAM for               rhoin:       3.36 MB

     Dynamical RAM for            rho*nmix:      19.51 MB

     Dynamical RAM for           G-vectors:       2.39 MB

     Dynamical RAM for          h,s,v(r/c):       0.32 MB

     Dynamical RAM for          <psi|beta>:       0.08 MB

     Dynamical RAM for                 psi:       2.26 MB

     Dynamical RAM for                hpsi:       2.26 MB

     Dynamical RAM for                spsi:       2.26 MB

     Dynamical RAM for      wfcinit/wfcrot:       2.30 MB

     Dynamical RAM for           addusdens:      19.34 MB

     Dynamical RAM for          addusforce:      19.37 MB

     Dynamical RAM for         addusstress:      19.81 MB

     Estimated static dynamical RAM per process >      58.71 MB

     Estimated max dynamical RAM per process >      98.04 MB

     Estimated total dynamical RAM >       4.45 GB
     Generating pointlists ...
     new r_m :   0.1250 (alat units)  1.9711 (a.u.) for type    1
     new r_m :   0.2081 (alat units)  3.2804 (a.u.) for type    2
     new r_m :   0.1250 (alat units)  1.9711 (a.u.) for type    3

     Initial potential from superposition of free atoms

     starting charge      69.9244, renormalised to      70.0000
     Starting wfcs are   38 randomized atomic wfcs +    4 random wfcs
     Checking if some PAW data can be deallocated... 
       PAW data deallocated on   28 nodes for type:  1
       PAW data deallocated on   42 nodes for type:  3

     total cpu time spent up to now is        3.4 secs

     per-process dynamical memory:    74.6 Mb

     Self-consistent Calculation

     iteration #  1     ecut=    50.00 Ry     beta= 0.40
     Davidson diagonalization with overlap

---- Real-time Memory Report at c_bands before calling an iterative solver
           106 MiB given to the printing process from OS
            74 MiB allocation reported by mallinfo(arena+hblkhd)
        484081 MiB available memory on the node where the printing process lives
------------------
     ethr =  1.00E-02,  avg # of iterations =  8.0

     negative rho (up, down):  8.517E-01 2.904E-01

     total cpu time spent up to now is        9.3 secs

     total energy              =   -1991.12814333 Ry
     estimated scf accuracy    <       9.97031773 Ry

     total magnetization       =     0.80 Bohr mag/cell
     absolute magnetization    =     8.04 Bohr mag/cell

     iteration #  2     ecut=    50.00 Ry     beta= 0.40
     Davidson diagonalization with overlap

---- Real-time Memory Report at c_bands before calling an iterative solver
           142 MiB given to the printing process from OS
           108 MiB allocation reported by mallinfo(arena+hblkhd)
        482365 MiB available memory on the node where the printing process lives
------------------
     ethr =  1.00E-02,  avg # of iterations =  2.2

     negative rho (up, down):  1.316E+00 4.072E-01

     total cpu time spent up to now is       13.3 secs

     total energy              =   -1991.65530291 Ry
     estimated scf accuracy    <       2.18112460 Ry

     total magnetization       =     0.61 Bohr mag/cell
     absolute magnetization    =     6.37 Bohr mag/cell

     iteration #  3     ecut=    50.00 Ry     beta= 0.40
     Davidson diagonalization with overlap

---- Real-time Memory Report at c_bands before calling an iterative solver
           144 MiB given to the printing process from OS
           110 MiB allocation reported by mallinfo(arena+hblkhd)
        482343 MiB available memory on the node where the printing process lives
------------------
     ethr =  3.12E-03,  avg # of iterations =  2.2

     negative rho (up, down):  1.615E+00 3.951E-01

     total cpu time spent up to now is       17.2 secs

     total energy              =   -1991.92553956 Ry
     estimated scf accuracy    <       1.70105102 Ry

     total magnetization       =     0.43 Bohr mag/cell
     absolute magnetization    =     7.78 Bohr mag/cell

     iteration #  4     ecut=    50.00 Ry     beta= 0.40
     Davidson diagonalization with overlap

---- Real-time Memory Report at c_bands before calling an iterative solver
           145 MiB given to the printing process from OS
           110 MiB allocation reported by mallinfo(arena+hblkhd)
        482308 MiB available memory on the node where the printing process lives
------------------
     ethr =  2.43E-03,  avg # of iterations =  2.6

     negative rho (up, down):  1.375E+00 3.739E-01

     total cpu time spent up to now is       21.5 secs

     total energy              =   -1991.89109536 Ry
     estimated scf accuracy    <       6.37779965 Ry

     total magnetization       =     0.36 Bohr mag/cell
     absolute magnetization    =     5.22 Bohr mag/cell

     iteration #  5     ecut=    50.00 Ry     beta= 0.40
     Davidson diagonalization with overlap

---- Real-time Memory Report at c_bands before calling an iterative solver
           146 MiB given to the printing process from OS
           111 MiB allocation reported by mallinfo(arena+hblkhd)
        482290 MiB available memory on the node where the printing process lives
------------------
     ethr =  2.43E-03,  avg # of iterations =  2.5

     negative rho (up, down):  1.346E+00 3.304E-01

     total cpu time spent up to now is       25.7 secs

     total energy              =   -1992.04128798 Ry
     estimated scf accuracy    <       0.57241244 Ry

     total magnetization       =     0.34 Bohr mag/cell
     absolute magnetization    =     5.84 Bohr mag/cell

     iteration #  6     ecut=    50.00 Ry     beta= 0.40
     Davidson diagonalization with overlap

---- Real-time Memory Report at c_bands before calling an iterative solver
           148 MiB given to the printing process from OS
           112 MiB allocation reported by mallinfo(arena+hblkhd)
        482269 MiB available memory on the node where the printing process lives
------------------
     ethr =  8.18E-04,  avg # of iterations =  2.5

     negative rho (up, down):  1.453E+00 2.951E-01

     total cpu time spent up to now is       29.8 secs

     total energy              =   -1991.98551078 Ry
     estimated scf accuracy    <       0.84000272 Ry

     total magnetization       =     0.32 Bohr mag/cell
     absolute magnetization    =     6.25 Bohr mag/cell

     iteration #  7     ecut=    50.00 Ry     beta= 0.40
     Davidson diagonalization with overlap

---- Real-time Memory Report at c_bands before calling an iterative solver
           149 MiB given to the printing process from OS
           113 MiB allocation reported by mallinfo(arena+hblkhd)
        482254 MiB available memory on the node where the printing process lives
------------------
     ethr =  8.18E-04,  avg # of iterations =  2.6

     negative rho (up, down):  1.315E+00 2.724E-01

     total cpu time spent up to now is       34.2 secs

     total energy              =   -1991.95765728 Ry
     estimated scf accuracy    <       3.53907172 Ry

     total magnetization       =     0.27 Bohr mag/cell
     absolute magnetization    =     2.54 Bohr mag/cell

     iteration #  8     ecut=    50.00 Ry     beta= 0.40
     Davidson diagonalization with overlap

---- Real-time Memory Report at c_bands before calling an iterative solver
           150 MiB given to the printing process from OS
           114 MiB allocation reported by mallinfo(arena+hblkhd)
        482239 MiB available memory on the node where the printing process lives
------------------
     ethr =  8.18E-04,  avg # of iterations =  2.6

     negative rho (up, down):  1.192E+00 1.419E-01

     total cpu time spent up to now is       38.5 secs

     total energy              =   -1992.06399558 Ry
     estimated scf accuracy    <       0.38501081 Ry

     total magnetization       =     0.27 Bohr mag/cell
     absolute magnetization    =     5.47 Bohr mag/cell

     iteration #  9     ecut=    50.00 Ry     beta= 0.40
     Davidson diagonalization with overlap

---- Real-time Memory Report at c_bands before calling an iterative solver
           151 MiB given to the printing process from OS
           115 MiB allocation reported by mallinfo(arena+hblkhd)
        482220 MiB available memory on the node where the printing process lives
------------------
     ethr =  5.50E-04,  avg # of iterations =  3.2

     negative rho (up, down):  1.230E+00 1.311E-01

     total cpu time spent up to now is       42.8 secs

     total energy              =   -1992.06292973 Ry
     estimated scf accuracy    <       2.41935690 Ry

     total magnetization       =     0.19 Bohr mag/cell
     absolute magnetization    =     8.11 Bohr mag/cell

     iteration # 10     ecut=    50.00 Ry     beta= 0.40
     Davidson diagonalization with overlap

---- Real-time Memory Report at c_bands before calling an iterative solver
           152 MiB given to the printing process from OS
           116 MiB allocation reported by mallinfo(arena+hblkhd)
        482205 MiB available memory on the node where the printing process lives
------------------
     ethr =  5.50E-04,  avg # of iterations =  1.7

     negative rho (up, down):  1.323E+00 1.108E-01

     total cpu time spent up to now is       46.6 secs

     total energy              =   -1992.00520691 Ry
     estimated scf accuracy    <       2.11463203 Ry

     total magnetization       =     0.17 Bohr mag/cell
     absolute magnetization    =     7.85 Bohr mag/cell

     iteration # 11     ecut=    50.00 Ry     beta= 0.40
     Davidson diagonalization with overlap

---- Real-time Memory Report at c_bands before calling an iterative solver
           152 MiB given to the printing process from OS
           116 MiB allocation reported by mallinfo(arena+hblkhd)
        482197 MiB available memory on the node where the printing process lives
------------------
     ethr =  5.50E-04,  avg # of iterations =  2.6

     negative rho (up, down):  1.336E+00 7.672E-02

     total cpu time spent up to now is       50.8 secs

     total energy              =   -1992.03503208 Ry
     estimated scf accuracy    <       0.55055825 Ry

     total magnetization       =     0.13 Bohr mag/cell
     absolute magnetization    =     3.64 Bohr mag/cell

     iteration # 12     ecut=    50.00 Ry     beta= 0.40
     Davidson diagonalization with overlap

---- Real-time Memory Report at c_bands before calling an iterative solver
           152 MiB given to the printing process from OS
           116 MiB allocation reported by mallinfo(arena+hblkhd)
        482189 MiB available memory on the node where the printing process lives
------------------
     ethr =  5.50E-04,  avg # of iterations =  1.5

     negative rho (up, down):  1.315E+00 8.021E-02

     total cpu time spent up to now is       54.5 secs

     total energy              =   -1992.03832518 Ry
     estimated scf accuracy    <       0.33302765 Ry

     total magnetization       =     0.11 Bohr mag/cell
     absolute magnetization    =     2.69 Bohr mag/cell

     iteration # 13     ecut=    50.00 Ry     beta= 0.40
     Davidson diagonalization with overlap

---- Real-time Memory Report at c_bands before calling an iterative solver
           153 MiB given to the printing process from OS
           116 MiB allocation reported by mallinfo(arena+hblkhd)
        482183 MiB available memory on the node where the printing process lives
------------------
     ethr =  4.76E-04,  avg # of iterations =  1.5

     negative rho (up, down):  1.276E+00 6.441E-02

     total cpu time spent up to now is       58.1 secs

     total energy              =   -1992.04316269 Ry
     estimated scf accuracy    <       0.27789493 Ry

     total magnetization       =     0.12 Bohr mag/cell
     absolute magnetization    =     3.59 Bohr mag/cell

     iteration # 14     ecut=    50.00 Ry     beta= 0.40
     Davidson diagonalization with overlap

---- Real-time Memory Report at c_bands before calling an iterative solver
           153 MiB given to the printing process from OS
           116 MiB allocation reported by mallinfo(arena+hblkhd)
        482172 MiB available memory on the node where the printing process lives
------------------
     ethr =  3.97E-04,  avg # of iterations =  1.5

     negative rho (up, down):  1.318E+00 3.384E-02

     total cpu time spent up to now is       61.8 secs

     total energy              =   -1992.04334109 Ry
     estimated scf accuracy    <       0.41201641 Ry

     total magnetization       =     0.10 Bohr mag/cell
     absolute magnetization    =     4.63 Bohr mag/cell

     iteration # 15     ecut=    50.00 Ry     beta= 0.40
     Davidson diagonalization with overlap

---- Real-time Memory Report at c_bands before calling an iterative solver
           153 MiB given to the printing process from OS
           116 MiB allocation reported by mallinfo(arena+hblkhd)
        482171 MiB available memory on the node where the printing process lives
------------------
     ethr =  3.97E-04,  avg # of iterations =  1.1

     negative rho (up, down):  1.451E+00 1.230E-02

     total cpu time spent up to now is       65.2 secs

     total energy              =   -1992.04409629 Ry
     estimated scf accuracy    <       0.38678948 Ry

     total magnetization       =     0.08 Bohr mag/cell
     absolute magnetization    =     4.36 Bohr mag/cell

     iteration # 16     ecut=    50.00 Ry     beta= 0.40
     Davidson diagonalization with overlap

---- Real-time Memory Report at c_bands before calling an iterative solver
           153 MiB given to the printing process from OS
           116 MiB allocation reported by mallinfo(arena+hblkhd)
        482166 MiB available memory on the node where the printing process lives
------------------
     ethr =  3.97E-04,  avg # of iterations =  2.5

     negative rho (up, down):  1.241E+00 6.028E-02

     total cpu time spent up to now is       69.5 secs

     total energy              =   -1991.99666079 Ry
     estimated scf accuracy    <       1.94986759 Ry

     total magnetization       =     0.03 Bohr mag/cell
     absolute magnetization    =     3.35 Bohr mag/cell

     iteration # 17     ecut=    50.00 Ry     beta= 0.40
     Davidson diagonalization with overlap

---- Real-time Memory Report at c_bands before calling an iterative solver
           153 MiB given to the printing process from OS
           116 MiB allocation reported by mallinfo(arena+hblkhd)
        482164 MiB available memory on the node where the printing process lives
------------------
     ethr =  3.97E-04,  avg # of iterations =  3.0

     negative rho (up, down):  1.251E+00 1.112E-01

     total cpu time spent up to now is       74.0 secs

     total energy              =   -1992.05310244 Ry
     estimated scf accuracy    <       1.90455922 Ry

     total magnetization       =     0.09 Bohr mag/cell
     absolute magnetization    =     7.28 Bohr mag/cell

     iteration # 18     ecut=    50.00 Ry     beta= 0.40
     Davidson diagonalization with overlap

---- Real-time Memory Report at c_bands before calling an iterative solver
           153 MiB given to the printing process from OS
           116 MiB allocation reported by mallinfo(arena+hblkhd)
        482161 MiB available memory on the node where the printing process lives
------------------
     ethr =  3.97E-04,  avg # of iterations =  2.5

     negative rho (up, down):  1.273E+00 1.060E-01

     total cpu time spent up to now is       78.1 secs

     total energy              =   -1992.06606284 Ry
     estimated scf accuracy    <       1.57259729 Ry

     total magnetization       =     0.15 Bohr mag/cell
     absolute magnetization    =     6.75 Bohr mag/cell

     iteration # 19     ecut=    50.00 Ry     beta= 0.40
     Davidson diagonalization with overlap

---- Real-time Memory Report at c_bands before calling an iterative solver
           153 MiB given to the printing process from OS
           116 MiB allocation reported by mallinfo(arena+hblkhd)
        482155 MiB available memory on the node where the printing process lives
------------------
     ethr =  3.97E-04,  avg # of iterations =  1.0

     negative rho (up, down):  1.467E+00 1.499E-03

     total cpu time spent up to now is       81.4 secs

     total energy              =   -1991.94971630 Ry
     estimated scf accuracy    <       1.70169402 Ry

     total magnetization       =     0.15 Bohr mag/cell
     absolute magnetization    =     6.90 Bohr mag/cell

     iteration # 20     ecut=    50.00 Ry     beta= 0.40
     Davidson diagonalization with overlap

---- Real-time Memory Report at c_bands before calling an iterative solver
           153 MiB given to the printing process from OS
           116 MiB allocation reported by mallinfo(arena+hblkhd)
        482145 MiB available memory on the node where the printing process lives
------------------
     ethr =  3.97E-04,  avg # of iterations =  3.0

     negative rho (up, down):  1.353E+00 1.524E-03

     total cpu time spent up to now is       86.5 secs

     total energy              =   -1991.90739551 Ry
     estimated scf accuracy    <       5.17010443 Ry

     total magnetization       =    -0.05 Bohr mag/cell
     absolute magnetization    =     6.95 Bohr mag/cell

     iteration # 21     ecut=    50.00 Ry     beta= 0.40
     Davidson diagonalization with overlap

---- Real-time Memory Report at c_bands before calling an iterative solver
           154 MiB given to the printing process from OS
           116 MiB allocation reported by mallinfo(arena+hblkhd)
        482145 MiB available memory on the node where the printing process lives
------------------
     ethr =  3.97E-04,  avg # of iterations =  3.0

     negative rho (up, down):  1.367E+00 4.805E-03

     total cpu time spent up to now is       91.5 secs

     total energy              =   -1992.05235072 Ry
     estimated scf accuracy    <       0.87566263 Ry

     total magnetization       =     0.03 Bohr mag/cell
     absolute magnetization    =     5.77 Bohr mag/cell

     iteration # 22     ecut=    50.00 Ry     beta= 0.40
     Davidson diagonalization with overlap

---- Real-time Memory Report at c_bands before calling an iterative solver
           154 MiB given to the printing process from OS
           116 MiB allocation reported by mallinfo(arena+hblkhd)
        482143 MiB available memory on the node where the printing process lives
------------------
     ethr =  3.97E-04,  avg # of iterations =  1.0

     negative rho (up, down):  1.383E+00 2.508E-03

     total cpu time spent up to now is       94.9 secs

     total energy              =   -1992.03605746 Ry
     estimated scf accuracy    <       0.83834361 Ry

     total magnetization       =     0.04 Bohr mag/cell
     absolute magnetization    =     5.74 Bohr mag/cell

     iteration # 23     ecut=    50.00 Ry     beta= 0.40
     Davidson diagonalization with overlap

---- Real-time Memory Report at c_bands before calling an iterative solver
           154 MiB given to the printing process from OS
           116 MiB allocation reported by mallinfo(arena+hblkhd)
        482142 MiB available memory on the node where the printing process lives
------------------
     ethr =  3.97E-04,  avg # of iterations =  1.5

     negative rho (up, down):  1.351E+00 1.255E-03

     total cpu time spent up to now is       98.5 secs

     total energy              =   -1992.04464755 Ry
     estimated scf accuracy    <       0.30645049 Ry

     total magnetization       =     0.03 Bohr mag/cell
     absolute magnetization    =     4.93 Bohr mag/cell

     iteration # 24     ecut=    50.00 Ry     beta= 0.40
     Davidson diagonalization with overlap

---- Real-time Memory Report at c_bands before calling an iterative solver
           154 MiB given to the printing process from OS
           116 MiB allocation reported by mallinfo(arena+hblkhd)
        482142 MiB available memory on the node where the printing process lives
------------------
     ethr =  3.97E-04,  avg # of iterations =  1.0

     negative rho (up, down):  1.349E+00 6.383E-03

     total cpu time spent up to now is      101.9 secs

     total energy              =   -1992.02766098 Ry
     estimated scf accuracy    <       0.35553696 Ry

     total magnetization       =     0.02 Bohr mag/cell
     absolute magnetization    =     4.89 Bohr mag/cell

     iteration # 25     ecut=    50.00 Ry     beta= 0.40
     Davidson diagonalization with overlap

---- Real-time Memory Report at c_bands before calling an iterative solver
           154 MiB given to the printing process from OS
           116 MiB allocation reported by mallinfo(arena+hblkhd)
        482140 MiB available memory on the node where the printing process lives
------------------
     ethr =  3.97E-04,  avg # of iterations =  1.7

     negative rho (up, down):  1.342E+00 1.046E-02

     total cpu time spent up to now is      105.7 secs

     total energy              =   -1992.03783927 Ry
     estimated scf accuracy    <       0.06158391 Ry

     total magnetization       =     0.04 Bohr mag/cell
     absolute magnetization    =     3.36 Bohr mag/cell

     iteration # 26     ecut=    50.00 Ry     beta= 0.40
     Davidson diagonalization with overlap

---- Real-time Memory Report at c_bands before calling an iterative solver
           154 MiB given to the printing process from OS
           116 MiB allocation reported by mallinfo(arena+hblkhd)
        482138 MiB available memory on the node where the printing process lives
------------------
     ethr =  8.80E-05,  avg # of iterations =  3.3

     negative rho (up, down):  1.357E+00 2.392E-02

     total cpu time spent up to now is      110.1 secs

     total energy              =   -1992.03781179 Ry
     estimated scf accuracy    <       0.06113323 Ry

     total magnetization       =     0.06 Bohr mag/cell
     absolute magnetization    =     3.10 Bohr mag/cell

     iteration # 27     ecut=    50.00 Ry     beta= 0.40
     Davidson diagonalization with overlap

---- Real-time Memory Report at c_bands before calling an iterative solver
           154 MiB given to the printing process from OS
           116 MiB allocation reported by mallinfo(arena+hblkhd)
        482131 MiB available memory on the node where the printing process lives
------------------
     ethr =  8.73E-05,  avg # of iterations =  2.5

     negative rho (up, down):  1.403E+00 3.790E-02

     total cpu time spent up to now is      114.6 secs

     total energy              =   -1992.06209698 Ry
     estimated scf accuracy    <       0.72231351 Ry

     total magnetization       =     0.05 Bohr mag/cell
     absolute magnetization    =     1.69 Bohr mag/cell

     iteration # 28     ecut=    50.00 Ry     beta= 0.40
     Davidson diagonalization with overlap

---- Real-time Memory Report at c_bands before calling an iterative solver
           154 MiB given to the printing process from OS
           116 MiB allocation reported by mallinfo(arena+hblkhd)
        482130 MiB available memory on the node where the printing process lives
------------------
     ethr =  8.73E-05,  avg # of iterations =  2.8

     negative rho (up, down):  1.393E+00 5.152E-02

     total cpu time spent up to now is      119.0 secs

     total energy              =   -1992.06500684 Ry
     estimated scf accuracy    <       2.13077180 Ry

     total magnetization       =     0.04 Bohr mag/cell
     absolute magnetization    =     2.76 Bohr mag/cell

     iteration # 29     ecut=    50.00 Ry     beta= 0.40
     Davidson diagonalization with overlap

---- Real-time Memory Report at c_bands before calling an iterative solver
           154 MiB given to the printing process from OS
           116 MiB allocation reported by mallinfo(arena+hblkhd)
        482130 MiB available memory on the node where the printing process lives
------------------
     ethr =  8.73E-05,  avg # of iterations =  1.0

     negative rho (up, down):  1.339E+00 1.722E-01

     total cpu time spent up to now is      122.3 secs

     total energy              =   -1991.96349193 Ry
     estimated scf accuracy    <       1.97448453 Ry

     total magnetization       =     0.04 Bohr mag/cell
     absolute magnetization    =     2.74 Bohr mag/cell

     iteration # 30     ecut=    50.00 Ry     beta= 0.40
     Davidson diagonalization with overlap

---- Real-time Memory Report at c_bands before calling an iterative solver
           154 MiB given to the printing process from OS
           116 MiB allocation reported by mallinfo(arena+hblkhd)
        482130 MiB available memory on the node where the printing process lives
------------------
     ethr =  8.73E-05,  avg # of iterations =  4.2

     negative rho (up, down):  1.330E+00 1.511E-02

     total cpu time spent up to now is      128.3 secs

     total energy              =   -1992.03123076 Ry
     estimated scf accuracy    <       5.33894661 Ry

     total magnetization       =     0.06 Bohr mag/cell
     absolute magnetization    =     7.54 Bohr mag/cell

     iteration # 31     ecut=    50.00 Ry     beta= 0.40
     Davidson diagonalization with overlap

---- Real-time Memory Report at c_bands before calling an iterative solver
           154 MiB given to the printing process from OS
           116 MiB allocation reported by mallinfo(arena+hblkhd)
        482129 MiB available memory on the node where the printing process lives
------------------
     ethr =  8.73E-05,  avg # of iterations =  3.2

     negative rho (up, down):  1.351E+00 2.049E-02

     total cpu time spent up to now is      133.3 secs

     total energy              =   -1991.98626164 Ry
     estimated scf accuracy    <       1.09625800 Ry

     total magnetization       =    -0.00 Bohr mag/cell
     absolute magnetization    =     5.36 Bohr mag/cell

     iteration # 32     ecut=    50.00 Ry     beta= 0.40
     Davidson diagonalization with overlap

---- Real-time Memory Report at c_bands before calling an iterative solver
           154 MiB given to the printing process from OS
           116 MiB allocation reported by mallinfo(arena+hblkhd)
        482123 MiB available memory on the node where the printing process lives
------------------
     ethr =  8.73E-05,  avg # of iterations =  3.0

     negative rho (up, down):  1.346E+00 1.737E-02

     total cpu time spent up to now is      138.4 secs

     total energy              =   -1992.05070969 Ry
     estimated scf accuracy    <       0.84363391 Ry

     total magnetization       =    -0.00 Bohr mag/cell
     absolute magnetization    =     4.38 Bohr mag/cell

     iteration # 33     ecut=    50.00 Ry     beta= 0.40
     Davidson diagonalization with overlap

---- Real-time Memory Report at c_bands before calling an iterative solver
           154 MiB given to the printing process from OS
           116 MiB allocation reported by mallinfo(arena+hblkhd)
        482123 MiB available memory on the node where the printing process lives
------------------
     ethr =  8.73E-05,  avg # of iterations =  1.0

     negative rho (up, down):  1.331E+00 3.579E-02

     total cpu time spent up to now is      141.8 secs

     total energy              =   -1992.02795071 Ry
     estimated scf accuracy    <       0.73288581 Ry

     total magnetization       =     0.01 Bohr mag/cell
     absolute magnetization    =     4.50 Bohr mag/cell

     iteration # 34     ecut=    50.00 Ry     beta= 0.40
     Davidson diagonalization with overlap

---- Real-time Memory Report at c_bands before calling an iterative solver
           154 MiB given to the printing process from OS
           116 MiB allocation reported by mallinfo(arena+hblkhd)
        482122 MiB available memory on the node where the printing process lives
------------------
     ethr =  8.73E-05,  avg # of iterations =  3.0

     negative rho (up, down):  1.331E+00 3.576E-02

     total cpu time spent up to now is      146.3 secs

     total energy              =   -1992.04057862 Ry
     estimated scf accuracy    <       0.13057020 Ry

     total magnetization       =     0.04 Bohr mag/cell
     absolute magnetization    =     4.53 Bohr mag/cell

     iteration # 35     ecut=    50.00 Ry     beta= 0.40
     Davidson diagonalization with overlap

---- Real-time Memory Report at c_bands before calling an iterative solver
           154 MiB given to the printing process from OS
           116 MiB allocation reported by mallinfo(arena+hblkhd)
        482121 MiB available memory on the node where the printing process lives
------------------
     ethr =  8.73E-05,  avg # of iterations =  1.0

     negative rho (up, down):  1.335E+00 3.601E-02

     total cpu time spent up to now is      149.7 secs

     total energy              =   -1992.04033157 Ry
     estimated scf accuracy    <       0.12302840 Ry

     total magnetization       =     0.04 Bohr mag/cell
     absolute magnetization    =     4.43 Bohr mag/cell

     iteration # 36     ecut=    50.00 Ry     beta= 0.40
     Davidson diagonalization with overlap

---- Real-time Memory Report at c_bands before calling an iterative solver
           154 MiB given to the printing process from OS
           116 MiB allocation reported by mallinfo(arena+hblkhd)
        482121 MiB available memory on the node where the printing process lives
------------------
     ethr =  8.73E-05,  avg # of iterations =  1.0

     negative rho (up, down):  1.335E+00 3.671E-02

     total cpu time spent up to now is      153.0 secs

     total energy              =   -1992.04035580 Ry
     estimated scf accuracy    <       0.10983126 Ry

     total magnetization       =     0.04 Bohr mag/cell
     absolute magnetization    =     4.42 Bohr mag/cell

     iteration # 37     ecut=    50.00 Ry     beta= 0.40
     Davidson diagonalization with overlap

---- Real-time Memory Report at c_bands before calling an iterative solver
           154 MiB given to the printing process from OS
           116 MiB allocation reported by mallinfo(arena+hblkhd)
        482120 MiB available memory on the node where the printing process lives
------------------
     ethr =  8.73E-05,  avg # of iterations =  1.0

     negative rho (up, down):  1.345E+00 4.261E-02

     total cpu time spent up to now is      156.4 secs

     total energy              =   -1992.03895711 Ry
     estimated scf accuracy    <       0.10341681 Ry

     total magnetization       =     0.03 Bohr mag/cell
     absolute magnetization    =     4.38 Bohr mag/cell

     iteration # 38     ecut=    50.00 Ry     beta= 0.40
     Davidson diagonalization with overlap

---- Real-time Memory Report at c_bands before calling an iterative solver
           155 MiB given to the printing process from OS
           116 MiB allocation reported by mallinfo(arena+hblkhd)
        482119 MiB available memory on the node where the printing process lives
------------------
     ethr =  8.73E-05,  avg # of iterations =  1.0

     negative rho (up, down):  1.358E+00 4.943E-02

     total cpu time spent up to now is      159.7 secs

     total energy              =   -1992.03854436 Ry
     estimated scf accuracy    <       0.05643839 Ry

     total magnetization       =     0.03 Bohr mag/cell
     absolute magnetization    =     4.16 Bohr mag/cell

     iteration # 39     ecut=    50.00 Ry     beta= 0.40
     Davidson diagonalization with overlap

---- Real-time Memory Report at c_bands before calling an iterative solver
           155 MiB given to the printing process from OS
           116 MiB allocation reported by mallinfo(arena+hblkhd)
        482115 MiB available memory on the node where the printing process lives
------------------
     ethr =  8.06E-05,  avg # of iterations =  1.5

     negative rho (up, down):  1.360E+00 4.154E-02

     total cpu time spent up to now is      163.3 secs

     total energy              =   -1992.03927486 Ry
     estimated scf accuracy    <       0.01550646 Ry

     total magnetization       =     0.03 Bohr mag/cell
     absolute magnetization    =     3.74 Bohr mag/cell

     iteration # 40     ecut=    50.00 Ry     beta= 0.40
     Davidson diagonalization with overlap

---- Real-time Memory Report at c_bands before calling an iterative solver
           155 MiB given to the printing process from OS
           116 MiB allocation reported by mallinfo(arena+hblkhd)
        482115 MiB available memory on the node where the printing process lives
------------------
     ethr =  2.22E-05,  avg # of iterations =  2.5

     negative rho (up, down):  1.359E+00 3.740E-02

     total cpu time spent up to now is      167.6 secs

     total energy              =   -1992.03944116 Ry
     estimated scf accuracy    <       0.01045367 Ry

     total magnetization       =     0.03 Bohr mag/cell
     absolute magnetization    =     3.73 Bohr mag/cell

     iteration # 41     ecut=    50.00 Ry     beta= 0.40
     Davidson diagonalization with overlap

---- Real-time Memory Report at c_bands before calling an iterative solver
           155 MiB given to the printing process from OS
           116 MiB allocation reported by mallinfo(arena+hblkhd)
        482115 MiB available memory on the node where the printing process lives
------------------
     ethr =  1.49E-05,  avg # of iterations =  1.8

     negative rho (up, down):  1.362E+00 3.586E-02

     total cpu time spent up to now is      171.4 secs

     total energy              =   -1992.03898326 Ry
     estimated scf accuracy    <       0.00966274 Ry

     total magnetization       =     0.03 Bohr mag/cell
     absolute magnetization    =     3.74 Bohr mag/cell

     iteration # 42     ecut=    50.00 Ry     beta= 0.40
     Davidson diagonalization with overlap

---- Real-time Memory Report at c_bands before calling an iterative solver
           155 MiB given to the printing process from OS
           116 MiB allocation reported by mallinfo(arena+hblkhd)
        482115 MiB available memory on the node where the printing process lives
------------------
     ethr =  1.38E-05,  avg # of iterations =  1.0

     negative rho (up, down):  1.367E+00 3.237E-02

     total cpu time spent up to now is      174.8 secs

     total energy              =   -1992.03847328 Ry
     estimated scf accuracy    <       0.00380537 Ry

     total magnetization       =     0.02 Bohr mag/cell
     absolute magnetization    =     3.62 Bohr mag/cell

     iteration # 43     ecut=    50.00 Ry     beta= 0.40
     Davidson diagonalization with overlap

---- Real-time Memory Report at c_bands before calling an iterative solver
           155 MiB given to the printing process from OS
           116 MiB allocation reported by mallinfo(arena+hblkhd)
        482115 MiB available memory on the node where the printing process lives
------------------
     c_bands:  1 eigenvalues not converged
     c_bands:  1 eigenvalues not converged
     ethr =  5.44E-06,  avg # of iterations =  4.4

     negative rho (up, down):  1.348E+00 2.370E-02

     total cpu time spent up to now is      179.8 secs

     total energy              =   -1992.03859198 Ry
     estimated scf accuracy    <       0.01065478 Ry

     total magnetization       =     0.02 Bohr mag/cell
     absolute magnetization    =     3.18 Bohr mag/cell

     iteration # 44     ecut=    50.00 Ry     beta= 0.40
     Davidson diagonalization with overlap

---- Real-time Memory Report at c_bands before calling an iterative solver
           155 MiB given to the printing process from OS
           116 MiB allocation reported by mallinfo(arena+hblkhd)
        482114 MiB available memory on the node where the printing process lives
------------------
     ethr =  5.44E-06,  avg # of iterations =  3.1

     negative rho (up, down):  1.356E+00 2.621E-02

     total cpu time spent up to now is      184.6 secs

     total energy              =   -1992.03886435 Ry
     estimated scf accuracy    <       0.09589586 Ry

     total magnetization       =     0.01 Bohr mag/cell
     absolute magnetization    =     4.32 Bohr mag/cell

     iteration # 45     ecut=    50.00 Ry     beta= 0.40
     Davidson diagonalization with overlap

---- Real-time Memory Report at c_bands before calling an iterative solver
           155 MiB given to the printing process from OS
           116 MiB allocation reported by mallinfo(arena+hblkhd)
        482112 MiB available memory on the node where the printing process lives
------------------
     ethr =  5.44E-06,  avg # of iterations =  2.5

     negative rho (up, down):  1.358E+00 2.641E-02

     total cpu time spent up to now is      188.8 secs

     total energy              =   -1992.03911471 Ry
     estimated scf accuracy    <       0.01786233 Ry

     total magnetization       =     0.01 Bohr mag/cell
     absolute magnetization    =     3.82 Bohr mag/cell

     iteration # 46     ecut=    50.00 Ry     beta= 0.40
     Davidson diagonalization with overlap

---- Real-time Memory Report at c_bands before calling an iterative solver
           155 MiB given to the printing process from OS
           116 MiB allocation reported by mallinfo(arena+hblkhd)
        482112 MiB available memory on the node where the printing process lives
------------------
     ethr =  5.44E-06,  avg # of iterations =  1.0

     negative rho (up, down):  1.362E+00 2.933E-02

     total cpu time spent up to now is      192.2 secs

     total energy              =   -1992.03874719 Ry
     estimated scf accuracy    <       0.01452793 Ry

     total magnetization       =     0.01 Bohr mag/cell
     absolute magnetization    =     3.79 Bohr mag/cell

     iteration # 47     ecut=    50.00 Ry     beta= 0.40
     Davidson diagonalization with overlap

---- Real-time Memory Report at c_bands before calling an iterative solver
           155 MiB given to the printing process from OS
           116 MiB allocation reported by mallinfo(arena+hblkhd)
        482111 MiB available memory on the node where the printing process lives
------------------
     ethr =  5.44E-06,  avg # of iterations =  2.0

     negative rho (up, down):  1.360E+00 2.749E-02

     total cpu time spent up to now is      196.1 secs

     total energy              =   -1992.03884742 Ry
     estimated scf accuracy    <       0.00323250 Ry

     total magnetization       =     0.02 Bohr mag/cell
     absolute magnetization    =     3.59 Bohr mag/cell

     iteration # 48     ecut=    50.00 Ry     beta= 0.40
     Davidson diagonalization with overlap

---- Real-time Memory Report at c_bands before calling an iterative solver
           155 MiB given to the printing process from OS
           116 MiB allocation reported by mallinfo(arena+hblkhd)
        482111 MiB available memory on the node where the printing process lives
------------------
     ethr =  4.62E-06,  avg # of iterations =  1.0

     negative rho (up, down):  1.361E+00 2.716E-02

     total cpu time spent up to now is      199.4 secs

     total energy              =   -1992.03865103 Ry
     estimated scf accuracy    <       0.00231598 Ry

     total magnetization       =     0.01 Bohr mag/cell
     absolute magnetization    =     3.57 Bohr mag/cell

     iteration # 49     ecut=    50.00 Ry     beta= 0.40
     Davidson diagonalization with overlap

---- Real-time Memory Report at c_bands before calling an iterative solver
           155 MiB given to the printing process from OS
           116 MiB allocation reported by mallinfo(arena+hblkhd)
        482113 MiB available memory on the node where the printing process lives
------------------
     ethr =  3.31E-06,  avg # of iterations =  2.0

     negative rho (up, down):  1.363E+00 2.840E-02

     total cpu time spent up to now is      203.4 secs

     total energy              =   -1992.03852765 Ry
     estimated scf accuracy    <       0.00098770 Ry

     total magnetization       =     0.01 Bohr mag/cell
     absolute magnetization    =     3.52 Bohr mag/cell

     iteration # 50     ecut=    50.00 Ry     beta= 0.40
     Davidson diagonalization with overlap

---- Real-time Memory Report at c_bands before calling an iterative solver
           155 MiB given to the printing process from OS
           116 MiB allocation reported by mallinfo(arena+hblkhd)
        482112 MiB available memory on the node where the printing process lives
------------------
     c_bands:  1 eigenvalues not converged
     ethr =  1.41E-06,  avg # of iterations =  3.7

     negative rho (up, down):  1.363E+00 2.939E-02

     total cpu time spent up to now is      208.2 secs

     total energy              =   -1992.03865298 Ry
     estimated scf accuracy    <       0.00329907 Ry

     total magnetization       =     0.01 Bohr mag/cell
     absolute magnetization    =     3.32 Bohr mag/cell

     iteration # 51     ecut=    50.00 Ry     beta= 0.40
     Davidson diagonalization with overlap

---- Real-time Memory Report at c_bands before calling an iterative solver
           155 MiB given to the printing process from OS
           116 MiB allocation reported by mallinfo(arena+hblkhd)
        482111 MiB available memory on the node where the printing process lives
------------------
     ethr =  1.41E-06,  avg # of iterations =  1.5

     negative rho (up, down):  1.362E+00 2.928E-02

     total cpu time spent up to now is      211.8 secs

     total energy              =   -1992.03869589 Ry
     estimated scf accuracy    <       0.00173148 Ry

     total magnetization       =     0.01 Bohr mag/cell
     absolute magnetization    =     3.35 Bohr mag/cell

     iteration # 52     ecut=    50.00 Ry     beta= 0.40
     Davidson diagonalization with overlap

---- Real-time Memory Report at c_bands before calling an iterative solver
           155 MiB given to the printing process from OS
           116 MiB allocation reported by mallinfo(arena+hblkhd)
        482111 MiB available memory on the node where the printing process lives
------------------
     ethr =  1.41E-06,  avg # of iterations =  2.2

     negative rho (up, down):  1.361E+00 2.990E-02

     total cpu time spent up to now is      215.7 secs

     total energy              =   -1992.03878342 Ry
     estimated scf accuracy    <       0.00003171 Ry

     total magnetization       =     0.01 Bohr mag/cell
     absolute magnetization    =     3.43 Bohr mag/cell

     iteration # 53     ecut=    50.00 Ry     beta= 0.40
     Davidson diagonalization with overlap

---- Real-time Memory Report at c_bands before calling an iterative solver
           155 MiB given to the printing process from OS
           116 MiB allocation reported by mallinfo(arena+hblkhd)
        482110 MiB available memory on the node where the printing process lives
------------------
     ethr =  4.53E-08,  avg # of iterations =  2.8

     negative rho (up, down):  1.360E+00 3.002E-02

     total cpu time spent up to now is      220.4 secs

     total energy              =   -1992.03883434 Ry
     estimated scf accuracy    <       0.00077813 Ry

     total magnetization       =     0.01 Bohr mag/cell
     absolute magnetization    =     3.40 Bohr mag/cell

     iteration # 54     ecut=    50.00 Ry     beta= 0.40
     Davidson diagonalization with overlap

---- Real-time Memory Report at c_bands before calling an iterative solver
           155 MiB given to the printing process from OS
           116 MiB allocation reported by mallinfo(arena+hblkhd)
        482110 MiB available memory on the node where the printing process lives
------------------
     ethr =  4.53E-08,  avg # of iterations =  3.2

     negative rho (up, down):  1.362E+00 3.046E-02

     total cpu time spent up to now is      225.7 secs

     total energy              =   -1992.03874435 Ry
     estimated scf accuracy    <       0.00369559 Ry

     total magnetization       =     0.01 Bohr mag/cell
     absolute magnetization    =     3.59 Bohr mag/cell

     iteration # 55     ecut=    50.00 Ry     beta= 0.40
     Davidson diagonalization with overlap

---- Real-time Memory Report at c_bands before calling an iterative solver
           155 MiB given to the printing process from OS
           116 MiB allocation reported by mallinfo(arena+hblkhd)
        482110 MiB available memory on the node where the printing process lives
------------------
     ethr =  4.53E-08,  avg # of iterations =  3.0

     negative rho (up, down):  1.362E+00 3.047E-02

     total cpu time spent up to now is      230.8 secs

     total energy              =   -1992.03874170 Ry
     estimated scf accuracy    <       0.00029350 Ry

     total magnetization       =     0.01 Bohr mag/cell
     absolute magnetization    =     3.46 Bohr mag/cell

     iteration # 56     ecut=    50.00 Ry     beta= 0.40
     Davidson diagonalization with overlap

---- Real-time Memory Report at c_bands before calling an iterative solver
           155 MiB given to the printing process from OS
           116 MiB allocation reported by mallinfo(arena+hblkhd)
        482110 MiB available memory on the node where the printing process lives
------------------
     ethr =  4.53E-08,  avg # of iterations =  1.0

     negative rho (up, down):  1.362E+00 3.047E-02

     total cpu time spent up to now is      234.2 secs

     total energy              =   -1992.03876805 Ry
     estimated scf accuracy    <       0.00031425 Ry

     total magnetization       =     0.01 Bohr mag/cell
     absolute magnetization    =     3.47 Bohr mag/cell

     iteration # 57     ecut=    50.00 Ry     beta= 0.40
     Davidson diagonalization with overlap

---- Real-time Memory Report at c_bands before calling an iterative solver
           155 MiB given to the printing process from OS
           116 MiB allocation reported by mallinfo(arena+hblkhd)
        482109 MiB available memory on the node where the printing process lives
------------------
     ethr =  4.53E-08,  avg # of iterations =  1.5

     negative rho (up, down):  1.362E+00 3.114E-02

     total cpu time spent up to now is      237.8 secs

     total energy              =   -1992.03883131 Ry
     estimated scf accuracy    <       0.00031604 Ry

     total magnetization       =     0.01 Bohr mag/cell
     absolute magnetization    =     3.46 Bohr mag/cell

     iteration # 58     ecut=    50.00 Ry     beta= 0.40
     Davidson diagonalization with overlap

---- Real-time Memory Report at c_bands before calling an iterative solver
           155 MiB given to the printing process from OS
           116 MiB allocation reported by mallinfo(arena+hblkhd)
        482108 MiB available memory on the node where the printing process lives
------------------
     ethr =  4.53E-08,  avg # of iterations =  1.5

     negative rho (up, down):  1.362E+00 3.100E-02

     total cpu time spent up to now is      241.6 secs

     total energy              =   -1992.03878486 Ry
     estimated scf accuracy    <       0.00017867 Ry

     total magnetization       =     0.01 Bohr mag/cell
     absolute magnetization    =     3.44 Bohr mag/cell

     iteration # 59     ecut=    50.00 Ry     beta= 0.40
     Davidson diagonalization with overlap

---- Real-time Memory Report at c_bands before calling an iterative solver
           155 MiB given to the printing process from OS
           116 MiB allocation reported by mallinfo(arena+hblkhd)
        482108 MiB available memory on the node where the printing process lives
------------------
     ethr =  4.53E-08,  avg # of iterations =  2.5

     negative rho (up, down):  1.362E+00 3.090E-02

     total cpu time spent up to now is      245.8 secs

     total energy              =   -1992.03877649 Ry
     estimated scf accuracy    <       0.00028890 Ry

     total magnetization       =     0.01 Bohr mag/cell
     absolute magnetization    =     3.48 Bohr mag/cell

     iteration # 60     ecut=    50.00 Ry     beta= 0.40
     Davidson diagonalization with overlap

---- Real-time Memory Report at c_bands before calling an iterative solver
           155 MiB given to the printing process from OS
           116 MiB allocation reported by mallinfo(arena+hblkhd)
        482110 MiB available memory on the node where the printing process lives
------------------
     ethr =  4.53E-08,  avg # of iterations =  1.0

     negative rho (up, down):  1.364E+00 2.965E-02

     total cpu time spent up to now is      249.2 secs

     total energy              =   -1992.03867291 Ry
     estimated scf accuracy    <       0.00027593 Ry

     total magnetization       =     0.01 Bohr mag/cell
     absolute magnetization    =     3.48 Bohr mag/cell

     iteration # 61     ecut=    50.00 Ry     beta= 0.40
     Davidson diagonalization with overlap

---- Real-time Memory Report at c_bands before calling an iterative solver
           155 MiB given to the printing process from OS
           116 MiB allocation reported by mallinfo(arena+hblkhd)
        482116 MiB available memory on the node where the printing process lives
------------------
     ethr =  4.53E-08,  avg # of iterations =  3.0

     negative rho (up, down):  1.359E+00 3.122E-02

     total cpu time spent up to now is      253.7 secs

     total energy              =   -1992.03878316 Ry
     estimated scf accuracy    <       0.00031404 Ry

     total magnetization       =     0.01 Bohr mag/cell
     absolute magnetization    =     3.41 Bohr mag/cell

     iteration # 62     ecut=    50.00 Ry     beta= 0.40
     Davidson diagonalization with overlap

---- Real-time Memory Report at c_bands before calling an iterative solver
           155 MiB given to the printing process from OS
           116 MiB allocation reported by mallinfo(arena+hblkhd)
        482116 MiB available memory on the node where the printing process lives
------------------
     ethr =  4.53E-08,  avg # of iterations =  3.5

     negative rho (up, down):  1.361E+00 3.089E-02

     total cpu time spent up to now is      258.8 secs

     total energy              =   -1992.03876584 Ry
     estimated scf accuracy    <       0.00173726 Ry

     total magnetization       =     0.01 Bohr mag/cell
     absolute magnetization    =     3.54 Bohr mag/cell

     iteration # 63     ecut=    50.00 Ry     beta= 0.40
     Davidson diagonalization with overlap

---- Real-time Memory Report at c_bands before calling an iterative solver
           155 MiB given to the printing process from OS
           116 MiB allocation reported by mallinfo(arena+hblkhd)
        482121 MiB available memory on the node where the printing process lives
------------------
     ethr =  4.53E-08,  avg # of iterations =  3.0

     negative rho (up, down):  1.364E+00 3.012E-02

     total cpu time spent up to now is      263.6 secs

     total energy              =   -1992.03871597 Ry
     estimated scf accuracy    <       0.00031466 Ry

     total magnetization       =     0.01 Bohr mag/cell
     absolute magnetization    =     3.48 Bohr mag/cell

     iteration # 64     ecut=    50.00 Ry     beta= 0.40
     Davidson diagonalization with overlap

---- Real-time Memory Report at c_bands before calling an iterative solver
           155 MiB given to the printing process from OS
           116 MiB allocation reported by mallinfo(arena+hblkhd)
        482120 MiB available memory on the node where the printing process lives
------------------
     ethr =  4.53E-08,  avg # of iterations =  2.5

     negative rho (up, down):  1.363E+00 3.063E-02

     total cpu time spent up to now is      268.0 secs

     total energy              =   -1992.03879676 Ry
     estimated scf accuracy    <       0.00002865 Ry

     total magnetization       =     0.01 Bohr mag/cell
     absolute magnetization    =     3.45 Bohr mag/cell

     iteration # 65     ecut=    50.00 Ry     beta= 0.40
     Davidson diagonalization with overlap

---- Real-time Memory Report at c_bands before calling an iterative solver
           155 MiB given to the printing process from OS
           116 MiB allocation reported by mallinfo(arena+hblkhd)
        482120 MiB available memory on the node where the printing process lives
------------------
     ethr =  4.09E-08,  avg # of iterations =  1.5

     negative rho (up, down):  1.363E+00 3.110E-02

     total cpu time spent up to now is      271.6 secs

     total energy              =   -1992.03882790 Ry
     estimated scf accuracy    <       0.00004434 Ry

     total magnetization       =     0.01 Bohr mag/cell
     absolute magnetization    =     3.45 Bohr mag/cell

     iteration # 66     ecut=    50.00 Ry     beta= 0.40
     Davidson diagonalization with overlap

---- Real-time Memory Report at c_bands before calling an iterative solver
           155 MiB given to the printing process from OS
           116 MiB allocation reported by mallinfo(arena+hblkhd)
        482120 MiB available memory on the node where the printing process lives
------------------
     ethr =  4.09E-08,  avg # of iterations =  1.3

     negative rho (up, down):  1.362E+00 3.120E-02

     total cpu time spent up to now is      275.2 secs

     total energy              =   -1992.03885873 Ry
     estimated scf accuracy    <       0.00004784 Ry

     total magnetization       =     0.01 Bohr mag/cell
     absolute magnetization    =     3.46 Bohr mag/cell

     iteration # 67     ecut=    50.00 Ry     beta= 0.40
     Davidson diagonalization with overlap

---- Real-time Memory Report at c_bands before calling an iterative solver
           155 MiB given to the printing process from OS
           116 MiB allocation reported by mallinfo(arena+hblkhd)
        482121 MiB available memory on the node where the printing process lives
------------------
     ethr =  4.09E-08,  avg # of iterations =  1.6

     negative rho (up, down):  1.361E+00 3.153E-02

     total cpu time spent up to now is      279.0 secs

     total energy              =   -1992.03887708 Ry
     estimated scf accuracy    <       0.00002879 Ry

     total magnetization       =     0.01 Bohr mag/cell
     absolute magnetization    =     3.45 Bohr mag/cell

     iteration # 68     ecut=    50.00 Ry     beta= 0.40
     Davidson diagonalization with overlap

---- Real-time Memory Report at c_bands before calling an iterative solver
           155 MiB given to the printing process from OS
           116 MiB allocation reported by mallinfo(arena+hblkhd)
        482120 MiB available memory on the node where the printing process lives
------------------
     ethr =  4.09E-08,  avg # of iterations =  2.8

     negative rho (up, down):  1.361E+00 3.140E-02

     total cpu time spent up to now is      283.4 secs

     total energy              =   -1992.03886029 Ry
     estimated scf accuracy    <       0.00058238 Ry

     total magnetization       =     0.01 Bohr mag/cell
     absolute magnetization    =     3.51 Bohr mag/cell

     iteration # 69     ecut=    50.00 Ry     beta= 0.40
     Davidson diagonalization with overlap

---- Real-time Memory Report at c_bands before calling an iterative solver
           155 MiB given to the printing process from OS
           116 MiB allocation reported by mallinfo(arena+hblkhd)
        482119 MiB available memory on the node where the printing process lives
------------------
     ethr =  4.09E-08,  avg # of iterations =  2.7

     negative rho (up, down):  1.362E+00 3.139E-02

     total cpu time spent up to now is      287.8 secs

     total energy              =   -1992.03886115 Ry
     estimated scf accuracy    <       0.00002194 Ry

     total magnetization       =     0.01 Bohr mag/cell
     absolute magnetization    =     3.44 Bohr mag/cell

     iteration # 70     ecut=    50.00 Ry     beta= 0.40
     Davidson diagonalization with overlap

---- Real-time Memory Report at c_bands before calling an iterative solver
           155 MiB given to the printing process from OS
           116 MiB allocation reported by mallinfo(arena+hblkhd)
        482119 MiB available memory on the node where the printing process lives
------------------
     ethr =  3.13E-08,  avg # of iterations =  3.0

     negative rho (up, down):  1.362E+00 3.148E-02

     total cpu time spent up to now is      292.4 secs

     total energy              =   -1992.03887907 Ry
     estimated scf accuracy    <       0.00047519 Ry

     total magnetization       =     0.01 Bohr mag/cell
     absolute magnetization    =     3.50 Bohr mag/cell

     iteration # 71     ecut=    50.00 Ry     beta= 0.40
     Davidson diagonalization with overlap

---- Real-time Memory Report at c_bands before calling an iterative solver
           155 MiB given to the printing process from OS
           116 MiB allocation reported by mallinfo(arena+hblkhd)
        482119 MiB available memory on the node where the printing process lives
------------------
     ethr =  3.13E-08,  avg # of iterations =  1.0

     negative rho (up, down):  1.362E+00 3.147E-02

     total cpu time spent up to now is      295.8 secs

     total energy              =   -1992.03888154 Ry
     estimated scf accuracy    <       0.00052731 Ry

     total magnetization       =     0.01 Bohr mag/cell
     absolute magnetization    =     3.51 Bohr mag/cell

     iteration # 72     ecut=    50.00 Ry     beta= 0.40
     Davidson diagonalization with overlap

---- Real-time Memory Report at c_bands before calling an iterative solver
           155 MiB given to the printing process from OS
           116 MiB allocation reported by mallinfo(arena+hblkhd)
        482119 MiB available memory on the node where the printing process lives
------------------
     ethr =  3.13E-08,  avg # of iterations =  1.5

     negative rho (up, down):  1.362E+00 3.142E-02

     total cpu time spent up to now is      299.4 secs

     total energy              =   -1992.03887610 Ry
     estimated scf accuracy    <       0.00073697 Ry

     total magnetization       =     0.01 Bohr mag/cell
     absolute magnetization    =     3.52 Bohr mag/cell

     iteration # 73     ecut=    50.00 Ry     beta= 0.40
     Davidson diagonalization with overlap

---- Real-time Memory Report at c_bands before calling an iterative solver
           155 MiB given to the printing process from OS
           116 MiB allocation reported by mallinfo(arena+hblkhd)
        482118 MiB available memory on the node where the printing process lives
------------------
     ethr =  3.13E-08,  avg # of iterations =  1.4

     negative rho (up, down):  1.362E+00 3.134E-02

     total cpu time spent up to now is      303.0 secs

     total energy              =   -1992.03885876 Ry
     estimated scf accuracy    <       0.00066917 Ry

     total magnetization       =     0.01 Bohr mag/cell
     absolute magnetization    =     3.51 Bohr mag/cell

     iteration # 74     ecut=    50.00 Ry     beta= 0.40
     Davidson diagonalization with overlap

---- Real-time Memory Report at c_bands before calling an iterative solver
           155 MiB given to the printing process from OS
[...]
           116 MiB allocation reported by mallinfo(arena+hblkhd)
        482116 MiB available memory on the node where the printing process lives
------------------
     ethr =  3.13E-08,  avg # of iterations =  1.0

     negative rho (up, down):  1.362E+00 3.097E-02

     total cpu time spent up to now is      328.9 secs

     total energy              =   -1992.03878375 Ry
     estimated scf accuracy    <       0.00027170 Ry

     total magnetization       =     0.00 Bohr mag/cell
     absolute magnetization    =     3.49 Bohr mag/cell

     iteration # 81     ecut=    50.00 Ry     beta= 0.40
     Davidson diagonalization with overlap

---- Real-time Memory Report at c_bands before calling an iterative solver
           155 MiB given to the printing process from OS
           116 MiB allocation reported by mallinfo(arena+hblkhd)
        482116 MiB available memory on the node where the printing process lives
------------------
     ethr =  3.13E-08,  avg # of iterations =  2.5

     negative rho (up, down):  1.362E+00 3.076E-02

     total cpu time spent up to now is      333.2 secs

     total energy              =   -1992.03877741 Ry
     estimated scf accuracy    <       0.00001087 Ry

     total magnetization       =     0.00 Bohr mag/cell
     absolute magnetization    =     3.45 Bohr mag/cell

     iteration # 82     ecut=    50.00 Ry     beta= 0.40
     Davidson diagonalization with overlap

---- Real-time Memory Report at c_bands before calling an iterative solver
           155 MiB given to the printing process from OS
           116 MiB allocation reported by mallinfo(arena+hblkhd)
        482115 MiB available memory on the node where the printing process lives
------------------
     ethr =  1.55E-08,  avg # of iterations =  2.8

     negative rho (up, down):  1.362E+00 3.075E-02

     total cpu time spent up to now is      337.7 secs

     total energy              =   -1992.03878593 Ry
     estimated scf accuracy    <       0.00034644 Ry

     total magnetization       =     0.00 Bohr mag/cell
     absolute magnetization    =     3.49 Bohr mag/cell

     iteration # 83     ecut=    50.00 Ry     beta= 0.40
     Davidson diagonalization with overlap

---- Real-time Memory Report at c_bands before calling an iterative solver
           155 MiB given to the printing process from OS
           116 MiB allocation reported by mallinfo(arena+hblkhd)
        482115 MiB available memory on the node where the printing process lives
------------------
     ethr =  1.55E-08,  avg # of iterations =  2.5

     negative rho (up, down):  1.362E+00 3.104E-02

     total cpu time spent up to now is      341.8 secs

     total energy              =   -1992.03879029 Ry
     estimated scf accuracy    <       0.00019651 Ry

     total magnetization       =     0.00 Bohr mag/cell
     absolute magnetization    =     3.47 Bohr mag/cell

     iteration # 84     ecut=    50.00 Ry     beta= 0.40
     Davidson diagonalization with overlap

---- Real-time Memory Report at c_bands before calling an iterative solver
           155 MiB given to the printing process from OS
           116 MiB allocation reported by mallinfo(arena+hblkhd)
        482115 MiB available memory on the node where the printing process lives
------------------
     ethr =  1.55E-08,  avg # of iterations =  2.5

     negative rho (up, down):  1.362E+00 3.094E-02

     total cpu time spent up to now is      346.1 secs

     total energy              =   -1992.03877881 Ry
     estimated scf accuracy    <       0.00007316 Ry

     total magnetization       =     0.00 Bohr mag/cell
     absolute magnetization    =     3.46 Bohr mag/cell

     iteration # 85     ecut=    50.00 Ry     beta= 0.40
     Davidson diagonalization with overlap

---- Real-time Memory Report at c_bands before calling an iterative solver
           155 MiB given to the printing process from OS
           116 MiB allocation reported by mallinfo(arena+hblkhd)
        482114 MiB available memory on the node where the printing process lives
------------------
     ethr =  1.55E-08,  avg # of iterations =  2.5

     negative rho (up, down):  1.362E+00 3.080E-02

     total cpu time spent up to now is      350.3 secs

     total energy              =   -1992.03877753 Ry
     estimated scf accuracy    <       0.00000625 Ry

     total magnetization       =     0.00 Bohr mag/cell
     absolute magnetization    =     3.44 Bohr mag/cell

     iteration # 86     ecut=    50.00 Ry     beta= 0.40
     Davidson diagonalization with overlap

---- Real-time Memory Report at c_bands before calling an iterative solver
           155 MiB given to the printing process from OS
           116 MiB allocation reported by mallinfo(arena+hblkhd)
        482114 MiB available memory on the node where the printing process lives
------------------
     ethr =  8.93E-09,  avg # of iterations =  2.5

     negative rho (up, down):  1.362E+00 3.078E-02

     total cpu time spent up to now is      354.4 secs

     total energy              =   -1992.03877344 Ry
     estimated scf accuracy    <       0.00000808 Ry

     total magnetization       =     0.00 Bohr mag/cell
     absolute magnetization    =     3.44 Bohr mag/cell

     iteration # 87     ecut=    50.00 Ry     beta= 0.40
     Davidson diagonalization with overlap

---- Real-time Memory Report at c_bands before calling an iterative solver
           155 MiB given to the printing process from OS
           116 MiB allocation reported by mallinfo(arena+hblkhd)
        482114 MiB available memory on the node where the printing process lives
------------------
     ethr =  8.93E-09,  avg # of iterations =  2.5

     negative rho (up, down):  1.362E+00 3.091E-02

     total cpu time spent up to now is      358.5 secs

     total energy              =   -1992.03878021 Ry
     estimated scf accuracy    <       0.00000563 Ry

     total magnetization       =     0.00 Bohr mag/cell
     absolute magnetization    =     3.43 Bohr mag/cell

     iteration # 88     ecut=    50.00 Ry     beta= 0.40
     Davidson diagonalization with overlap

---- Real-time Memory Report at c_bands before calling an iterative solver
           155 MiB given to the printing process from OS
           116 MiB allocation reported by mallinfo(arena+hblkhd)
        482114 MiB available memory on the node where the printing process lives
------------------
     ethr =  8.04E-09,  avg # of iterations =  1.5

     negative rho (up, down):  1.362E+00 3.084E-02

     total cpu time spent up to now is      362.2 secs

     total energy              =   -1992.03877255 Ry
     estimated scf accuracy    <       0.00000543 Ry

     total magnetization       =     0.00 Bohr mag/cell
     absolute magnetization    =     3.44 Bohr mag/cell

     iteration # 89     ecut=    50.00 Ry     beta= 0.40
     Davidson diagonalization with overlap

---- Real-time Memory Report at c_bands before calling an iterative solver
           155 MiB given to the printing process from OS
           116 MiB allocation reported by mallinfo(arena+hblkhd)
        482114 MiB available memory on the node where the printing process lives
------------------
     ethr =  7.76E-09,  avg # of iterations =  2.5

     negative rho (up, down):  1.362E+00 3.094E-02

     total cpu time spent up to now is      366.6 secs

     total energy              =   -1992.03877839 Ry
     estimated scf accuracy    <       0.00004421 Ry

     total magnetization       =     0.00 Bohr mag/cell
     absolute magnetization    =     3.42 Bohr mag/cell

     iteration # 90     ecut=    50.00 Ry     beta= 0.40
     Davidson diagonalization with overlap

---- Real-time Memory Report at c_bands before calling an iterative solver
           155 MiB given to the printing process from OS
           116 MiB allocation reported by mallinfo(arena+hblkhd)
        482114 MiB available memory on the node where the printing process lives
------------------
     ethr =  7.76E-09,  avg # of iterations =  3.0

     negative rho (up, down):  1.362E+00 3.094E-02

     total cpu time spent up to now is      371.4 secs

     total energy              =   -1992.03878067 Ry
     estimated scf accuracy    <       0.00008971 Ry

     total magnetization       =     0.00 Bohr mag/cell
     absolute magnetization    =     3.47 Bohr mag/cell

     iteration # 91     ecut=    50.00 Ry     beta= 0.40
     Davidson diagonalization with overlap

---- Real-time Memory Report at c_bands before calling an iterative solver
           155 MiB given to the printing process from OS
           116 MiB allocation reported by mallinfo(arena+hblkhd)
        482114 MiB available memory on the node where the printing process lives
------------------
     ethr =  7.76E-09,  avg # of iterations =  1.0

     negative rho (up, down):  1.362E+00 3.090E-02

     total cpu time spent up to now is      374.8 secs

     total energy              =   -1992.03877664 Ry
     estimated scf accuracy    <       0.00007808 Ry

     total magnetization       =     0.00 Bohr mag/cell
     absolute magnetization    =     3.46 Bohr mag/cell

     iteration # 92     ecut=    50.00 Ry     beta= 0.40
     Davidson diagonalization with overlap

---- Real-time Memory Report at c_bands before calling an iterative solver
           155 MiB given to the printing process from OS
           116 MiB allocation reported by mallinfo(arena+hblkhd)
        482114 MiB available memory on the node where the printing process lives
------------------
     ethr =  7.76E-09,  avg # of iterations =  2.5

     negative rho (up, down):  1.362E+00 3.089E-02

     total cpu time spent up to now is      378.9 secs

     total energy              =   -1992.03877837 Ry
     estimated scf accuracy    <       0.00002221 Ry

     total magnetization       =     0.00 Bohr mag/cell
     absolute magnetization    =     3.45 Bohr mag/cell

     iteration # 93     ecut=    50.00 Ry     beta= 0.40
     Davidson diagonalization with overlap

---- Real-time Memory Report at c_bands before calling an iterative solver
           155 MiB given to the printing process from OS
           116 MiB allocation reported by mallinfo(arena+hblkhd)
        482114 MiB available memory on the node where the printing process lives
------------------
     ethr =  7.76E-09,  avg # of iterations =  1.0

     negative rho (up, down):  1.362E+00 3.088E-02

     total cpu time spent up to now is      382.2 secs

     total energy              =   -1992.03877732 Ry
     estimated scf accuracy    <       0.00002012 Ry

     total magnetization       =     0.00 Bohr mag/cell
     absolute magnetization    =     3.45 Bohr mag/cell

     iteration # 94     ecut=    50.00 Ry     beta= 0.40
     Davidson diagonalization with overlap

---- Real-time Memory Report at c_bands before calling an iterative solver
           155 MiB given to the printing process from OS
           116 MiB allocation reported by mallinfo(arena+hblkhd)
        482133 MiB available memory on the node where the printing process lives
------------------
     ethr =  7.76E-09,  avg # of iterations =  1.5

     negative rho (up, down):  1.362E+00 3.089E-02

     total cpu time spent up to now is      385.9 secs

     total energy              =   -1992.03877685 Ry
     estimated scf accuracy    <       0.00000768 Ry

     total magnetization       =     0.00 Bohr mag/cell
     absolute magnetization    =     3.45 Bohr mag/cell

     iteration # 95     ecut=    50.00 Ry     beta= 0.40
     Davidson diagonalization with overlap

---- Real-time Memory Report at c_bands before calling an iterative solver
           155 MiB given to the printing process from OS
           116 MiB allocation reported by mallinfo(arena+hblkhd)
        482132 MiB available memory on the node where the printing process lives
------------------
     ethr =  7.76E-09,  avg # of iterations =  1.0

     negative rho (up, down):  1.362E+00 3.088E-02

     total cpu time spent up to now is      389.2 secs

     total energy              =   -1992.03877577 Ry
     estimated scf accuracy    <       0.00000593 Ry

     total magnetization       =     0.00 Bohr mag/cell
     absolute magnetization    =     3.45 Bohr mag/cell

     iteration # 96     ecut=    50.00 Ry     beta= 0.40
     Davidson diagonalization with overlap

---- Real-time Memory Report at c_bands before calling an iterative solver
           155 MiB given to the printing process from OS
           116 MiB allocation reported by mallinfo(arena+hblkhd)
        482132 MiB available memory on the node where the printing process lives
------------------
     ethr =  7.76E-09,  avg # of iterations =  1.0

     negative rho (up, down):  1.362E+00 3.088E-02

     total cpu time spent up to now is      392.6 secs

     total energy              =   -1992.03877565 Ry
     estimated scf accuracy    <       0.00000242 Ry

     total magnetization       =     0.00 Bohr mag/cell
     absolute magnetization    =     3.44 Bohr mag/cell

     iteration # 97     ecut=    50.00 Ry     beta= 0.40
     Davidson diagonalization with overlap

---- Real-time Memory Report at c_bands before calling an iterative solver
           155 MiB given to the printing process from OS
           116 MiB allocation reported by mallinfo(arena+hblkhd)
        482132 MiB available memory on the node where the printing process lives
------------------
     ethr =  3.46E-09,  avg # of iterations =  1.0

     negative rho (up, down):  1.362E+00 3.088E-02

     total cpu time spent up to now is      395.9 secs

     total energy              =   -1992.03877554 Ry
     estimated scf accuracy    <       0.00000233 Ry

     total magnetization       =     0.00 Bohr mag/cell
     absolute magnetization    =     3.44 Bohr mag/cell

     iteration # 98     ecut=    50.00 Ry     beta= 0.40
     Davidson diagonalization with overlap

---- Real-time Memory Report at c_bands before calling an iterative solver
           155 MiB given to the printing process from OS
           116 MiB allocation reported by mallinfo(arena+hblkhd)
        482132 MiB available memory on the node where the printing process lives
------------------
     ethr =  3.33E-09,  avg # of iterations =  1.0

     negative rho (up, down):  1.362E+00 3.088E-02

     total cpu time spent up to now is      399.3 secs

     total energy              =   -1992.03877406 Ry
     estimated scf accuracy    <       0.00000224 Ry

     total magnetization       =     0.00 Bohr mag/cell
     absolute magnetization    =     3.44 Bohr mag/cell

     iteration # 99     ecut=    50.00 Ry     beta= 0.40
     Davidson diagonalization with overlap

---- Real-time Memory Report at c_bands before calling an iterative solver
           155 MiB given to the printing process from OS
           116 MiB allocation reported by mallinfo(arena+hblkhd)
        482132 MiB available memory on the node where the printing process lives
------------------
     ethr =  3.20E-09,  avg # of iterations =  1.0

     negative rho (up, down):  1.362E+00 3.088E-02

     total cpu time spent up to now is      402.6 secs

     total energy              =   -1992.03877325 Ry
     estimated scf accuracy    <       0.00000107 Ry

     total magnetization       =     0.00 Bohr mag/cell
     absolute magnetization    =     3.44 Bohr mag/cell

     iteration #100     ecut=    50.00 Ry     beta= 0.40
     Davidson diagonalization with overlap

---- Real-time Memory Report at c_bands before calling an iterative solver
           155 MiB given to the printing process from OS
           116 MiB allocation reported by mallinfo(arena+hblkhd)
        482132 MiB available memory on the node where the printing process lives
------------------
     ethr =  1.52E-09,  avg # of iterations =  1.5

     negative rho (up, down):  1.362E+00 3.089E-02

     total cpu time spent up to now is      406.3 secs

     total energy              =   -1992.03877305 Ry
     estimated scf accuracy    <       0.00000003 Ry

     total magnetization       =     0.00 Bohr mag/cell
     absolute magnetization    =     3.44 Bohr mag/cell

     End of self-consistent calculation

     convergence NOT achieved after 100 iterations: stopping

     Writing config to output data dir ./out/aiida.save/ :
     XML data file, charge density

     init_run     :      2.65s CPU      2.80s WALL (       1 calls)
     electrons    :    385.52s CPU    403.05s WALL (       1 calls)

     Called by init_run:
     wfcinit      :      0.99s CPU      1.06s WALL (       1 calls)
     wfcinit:atom :      0.02s CPU      0.02s WALL (      19 calls)
     wfcinit:wfcr :      0.93s CPU      0.99s WALL (      19 calls)
     potinit      :      0.91s CPU      0.96s WALL (       1 calls)
     hinit0       :      0.61s CPU      0.63s WALL (       1 calls)

     Called by electrons:
     c_bands      :    282.40s CPU    296.00s WALL (     100 calls)
     sum_band     :     59.50s CPU     62.60s WALL (     100 calls)
     v_of_rho     :     20.51s CPU     20.91s WALL (     101 calls)
     v_h          :      0.69s CPU      0.71s WALL (     101 calls)
     v_xc         :     19.82s CPU     20.20s WALL (     101 calls)
     newd         :      5.31s CPU      5.37s WALL (     101 calls)
     PAW_pot      :     12.42s CPU     12.53s WALL (     101 calls)
     mix_rho      :      2.44s CPU      2.50s WALL (     100 calls)

     Called by c_bands:
     init_us_2    :      6.61s CPU      6.86s WALL (    3819 calls)
     init_us_2:cp :      6.60s CPU      6.84s WALL (    3819 calls)
     cegterg      :    262.72s CPU    275.33s WALL (    1900 calls)

     Called by sum_band:
     sum_band:wei :      0.15s CPU      0.15s WALL (     100 calls)
     sum_band:loo :     49.41s CPU     52.11s WALL (     100 calls)
     sum_band:buf :      1.25s CPU      1.27s WALL (    1900 calls)
     sum_band:ini :      2.59s CPU      2.71s WALL (    1900 calls)
     sum_band:cal :      6.56s CPU      6.57s WALL (    1900 calls)
     sum_band:bec :      0.11s CPU      0.11s WALL (    1900 calls)
     addusdens    :      7.59s CPU      7.66s WALL (     100 calls)
                                        0.00s GPU  (     100 calls)
     addusd:skk   :      0.03s CPU      0.03s WALL (     300 calls)
                                        0.00s GPU  (     300 calls)

     Called by *egterg:
     cdiaghg      :     14.82s CPU     15.11s WALL (    7655 calls)
     cegterg:over :     12.49s CPU     12.53s WALL (    5755 calls)
     cegterg:upda :      7.85s CPU      7.87s WALL (    5755 calls)
     cegterg:last :     13.75s CPU     13.77s WALL (    3394 calls)
     h_psi        :    191.48s CPU    203.61s WALL (    7674 calls)
     s_psi        :     12.83s CPU     12.85s WALL (    7674 calls)
     g_psi        :      0.59s CPU      0.59s WALL (    5755 calls)

     Called by h_psi:
     h_psi:calbec :     20.04s CPU     20.16s WALL (    7674 calls)
     vloc_psi     :    155.86s CPU    167.57s WALL (    7674 calls)
     add_vuspsi   :     12.91s CPU     13.17s WALL (    7674 calls)

     General routines
     calbec       :     26.55s CPU     26.69s WALL (    9574 calls)
     fft          :      6.36s CPU      6.87s WALL (    2523 calls)
     ffts         :      0.88s CPU      0.90s WALL (     402 calls)
     fftw         :    148.04s CPU    160.53s WALL (  452318 calls)
     interpolate  :      1.43s CPU      1.50s WALL (     202 calls)
     davcio       :      0.00s CPU      0.04s WALL (      37 calls)

     Parallel routines

     PAW routines
     PAW_pot      :     12.42s CPU     12.53s WALL (     101 calls)
     PAW_symme    :      0.04s CPU      0.04s WALL (     201 calls)

     PWSCF        :   6m29.39s CPU   6m47.62s WALL


   This run was terminated on:  20:34:57  29Nov2023            

=------------------------------------------------------------------------------=
   JOB DONE.
=------------------------------------------------------------------------------=
