
     Program PWSCF v.7.2 starts on 23Oct2023 at 17:57:34 

     This program is part of the open-source Quantum ESPRESSO suite
     for quantum simulation of materials; please cite
         "P. Giannozzi et al., J. Phys.:Condens. Matter 21 395502 (2009);
         "P. Giannozzi et al., J. Phys.:Condens. Matter 29 465901 (2017);
         "P. Giannozzi et al., J. Chem. Phys. 152 154105 (2020);
          URL http://www.quantum-espresso.org", 
     in publications or presentations arising from this work. More details at
     http://www.quantum-espresso.org/quote

     Parallel version (MPI & OpenMP), running on      12 processor cores
     Number of MPI processes:                 1
     Threads/MPI process:                    12

     MPI processes distributed on     1 nodes
     60346 MiB available memory on the printing compute node when the environment starts
 
     Reading input from aiida.in

     Current dimensions of program PWSCF are:
     Max number of different atomic species (ntypx) = 10
     Max number of k-points (npk) =  40000
     Max angular momentum in pseudopotentials (lmaxx) =  4
     file In.pbesol-dn-rrkjus_psl.0.2.2.UPF: wavefunction(s)  5S renormalized
     Message from routine setup:
     using ibrav=0 with symmetry is DISCOURAGED, use correct ibrav instead
 
     Subspace diagonalization in iterative solution of the eigenvalue problem:
     a serial algorithm will be used

 
     G-vector sticks info
     --------------------
     sticks:   dense  smooth     PW     G-vecs:    dense   smooth      PW
     Sum        1915     955    295                55369    19603    3287
 
     Using Slab Decomposition
 


     bravais-lattice index     =            0
     lattice parameter (alat)  =       8.3381  a.u.
     unit-cell volume          =     409.9118 (a.u.)^3
     number of atoms/cell      =            4
     number of atomic types    =            4
     number of electrons       =        52.00
     number of Kohn-Sham states=           31
     kinetic-energy cutoff     =      50.0000  Ry
     charge density cutoff     =     400.0000  Ry
     scf convergence threshold =      8.0E-10
     mixing beta               =       0.4000
     number of iterations used =            8  plain     mixing
     Exchange-correlation= SLA  PW   PSX  PSC
                           (   1   4  10   8   0   0   0)

     GPU acceleration is ACTIVE.


     GPU used by master process:

        Device Number: 0
        Device name: Tesla P100-PCIE-16GB
        Compute capability : 60
        Ratio of single to double precision performance  : 2
        Memory Clock Rate (KHz): 715000
        Memory Bus Width (bits): 4096
        Peak Memory Bandwidth (GB/s): 732.16

     celldm(1)=   8.338126  celldm(2)=   0.000000  celldm(3)=   0.000000
     celldm(4)=   0.000000  celldm(5)=   0.000000  celldm(6)=   0.000000

     crystal axes: (cart. coord. in units of alat)
               a(1) = (   0.000000   0.707107   0.707107 )  
               a(2) = (   0.707107   0.000000   0.707107 )  
               a(3) = (   0.707107   0.707107   0.000000 )  

     reciprocal axes: (cart. coord. in units 2 pi/alat)
               b(1) = ( -0.707107  0.707107  0.707107 )  
               b(2) = (  0.707107 -0.707107  0.707107 )  
               b(3) = (  0.707107  0.707107 -0.707107 )  


     PseudoPot. # 1 for Cr read from file:
     ./pseudo/cr_pbesol_v1.5.uspp.F.UPF
     MD5 check sum: a621641e0be27168676a837af8893d0f
     Pseudo is Ultrasoft + core correction, Zval = 14.0
     Generated by new atomic code, or converted to UPF format
     Using radial grid of  857 points,  6 beta functions with: 
                l(1) =   0
                l(2) =   0
                l(3) =   1
                l(4) =   1
                l(5) =   2
                l(6) =   2
     Q(r) pseudized with  8 coefficients,  rinner =    0.950   0.950   0.950
                                                       0.950   0.950

     PseudoPot. # 2 for In read from file:
     ./pseudo/In.pbesol-dn-rrkjus_psl.0.2.2.UPF
     MD5 check sum: 2a3399a31491503da6b8c7d8e01e9843
     Pseudo is Ultrasoft + core correction, Zval = 13.0
     Generated using "atomic" code by A. Dal Corso  v.6.0 svn rev. 13079
     Using radial grid of 1241 points,  6 beta functions with: 
                l(1) =   0
                l(2) =   0
                l(3) =   1
                l(4) =   1
                l(5) =   2
                l(6) =   2
     Q(r) pseudized with 0 coefficients 


     PseudoPot. # 3 for Ti read from file:
     ./pseudo/ti_pbesol_v1.4.uspp.F.UPF
     MD5 check sum: 193cf2c0c3c6a4da613d69453fa7e3e9
     Pseudo is Ultrasoft + core correction, Zval = 12.0
     Generated by new atomic code, or converted to UPF format
     Using radial grid of  851 points,  6 beta functions with: 
                l(1) =   0
                l(2) =   0
                l(3) =   1
                l(4) =   1
                l(5) =   2
                l(6) =   2
     Q(r) pseudized with  6 coefficients,  rinner =    1.000   1.000   1.000
                                                       1.000   1.000

     PseudoPot. # 4 for V  read from file:
     ./pseudo/v_pbesol_v1.4.uspp.F.UPF
     MD5 check sum: 72fa7d0034c41d8adc50bbc8c632b9f9
     Pseudo is Ultrasoft + core correction, Zval = 13.0
     Generated by new atomic code, or converted to UPF format
     Using radial grid of  853 points,  6 beta functions with: 
                l(1) =   0
                l(2) =   0
                l(3) =   1
                l(4) =   1
                l(5) =   2
                l(6) =   2
     Q(r) pseudized with  8 coefficients,  rinner =    1.100   1.100   1.100
                                                       1.100   1.100

     atomic species   valence    mass     pseudopotential
        Cr            14.00    51.99610     Cr( 1.00)
        In            13.00   114.81800     In( 1.00)
        Ti            12.00    47.86700     Ti( 1.00)
        V             13.00    50.94150     V ( 1.00)

     Starting magnetic structure 
     atomic species   magnetization
        Cr           0.357
        In           0.100
        Ti           0.417
        V            0.385

     24 Sym. Ops. (no inversion) found


                                    s                        frac. trans.

      isym =  1     identity                                     

 cryst.   s( 1) = (     1          0          0      )
                  (     0          1          0      )
                  (     0          0          1      )

 cart.    s( 1) = (  1.0000000 -0.0000000  0.0000000 )
                  ( -0.0000000  1.0000000  0.0000000 )
                  ( -0.0000000  0.0000000  1.0000000 )


      isym =  2     180 deg rotation - cart. axis [0,0,1]        

 cryst.   s( 2) = (     0          1         -1      )
                  (     1          0         -1      )
                  (     0          0         -1      )

 cart.    s( 2) = ( -1.0000000  0.0000000  0.0000000 )
                  (  0.0000000 -1.0000000  0.0000000 )
                  (  0.0000000 -0.0000000  1.0000000 )


      isym =  3     180 deg rotation - cart. axis [0,1,0]        

 cryst.   s( 3) = (     0         -1          1      )
                  (     0         -1          0      )
                  (     1         -1          0      )

 cart.    s( 3) = ( -1.0000000 -0.0000000 -0.0000000 )
                  (  0.0000000  1.0000000 -0.0000000 )
                  (  0.0000000  0.0000000 -1.0000000 )


      isym =  4     180 deg rotation - cart. axis [1,0,0]        

 cryst.   s( 4) = (    -1          0          0      )
                  (    -1          0          1      )
                  (    -1          1          0      )

 cart.    s( 4) = (  1.0000000  0.0000000 -0.0000000 )
                  ( -0.0000000 -1.0000000 -0.0000000 )
                  ( -0.0000000 -0.0000000 -1.0000000 )


      isym =  5     120 deg rotation - cart. axis [-1,-1,-1]     

 cryst.   s( 5) = (     0          0          1      )
                  (     1          0          0      )
                  (     0          1          0      )

 cart.    s( 5) = (  0.0000000  1.0000000 -0.0000000 )
                  (  0.0000000 -0.0000000  1.0000000 )
                  (  1.0000000 -0.0000000  0.0000000 )


      isym =  6     120 deg rotation - cart. axis [-1,1,1]       

 cryst.   s( 6) = (     1         -1          0      )
                  (     0         -1          1      )
                  (     0         -1          0      )

 cart.    s( 6) = ( -0.0000000 -1.0000000 -0.0000000 )
                  ( -0.0000000  0.0000000  1.0000000 )
                  ( -1.0000000  0.0000000  0.0000000 )


      isym =  7     120 deg rotation - cart. axis [1,1,-1]       

 cryst.   s( 7) = (    -1          1          0      )
                  (    -1          0          0      )
                  (    -1          0          1      )

 cart.    s( 7) = ( -0.0000000  1.0000000  0.0000000 )
                  ( -0.0000000 -0.0000000 -1.0000000 )
                  ( -1.0000000 -0.0000000 -0.0000000 )


      isym =  8     120 deg rotation - cart. axis [1,-1,1]       

 cryst.   s( 8) = (     0          0         -1      )
                  (     0          1         -1      )
                  (     1          0         -1      )

 cart.    s( 8) = (  0.0000000 -1.0000000  0.0000000 )
                  (  0.0000000  0.0000000 -1.0000000 )
                  (  1.0000000  0.0000000 -0.0000000 )


      isym =  9     120 deg rotation - cart. axis [1,1,1]        

 cryst.   s( 9) = (     0          1          0      )
                  (     0          0          1      )
                  (     1          0          0      )

 cart.    s( 9) = ( -0.0000000  0.0000000  1.0000000 )
                  (  1.0000000  0.0000000 -0.0000000 )
                  (  0.0000000  1.0000000 -0.0000000 )


      isym = 10     120 deg rotation - cart. axis [-1,1,-1]      

 cryst.   s(10) = (    -1          0          1      )
                  (    -1          1          0      )
                  (    -1          0          0      )

 cart.    s(10) = (  0.0000000 -0.0000000  1.0000000 )
                  ( -1.0000000 -0.0000000 -0.0000000 )
                  ( -0.0000000 -1.0000000 -0.0000000 )


      isym = 11     120 deg rotation - cart. axis [1,-1,-1]      

 cryst.   s(11) = (     1          0         -1      )
                  (     0          0         -1      )
                  (     0          1         -1      )

 cart.    s(11) = (  0.0000000  0.0000000 -1.0000000 )
                  ( -1.0000000  0.0000000  0.0000000 )
                  ( -0.0000000  1.0000000  0.0000000 )


      isym = 12     120 deg rotation - cart. axis [-1,-1,1]      

 cryst.   s(12) = (     0         -1          0      )
                  (     1         -1          0      )
                  (     0         -1          1      )

 cart.    s(12) = ( -0.0000000 -0.0000000 -1.0000000 )
                  (  1.0000000 -0.0000000  0.0000000 )
                  (  0.0000000 -1.0000000  0.0000000 )


      isym = 13     inv. 180 deg rotation - cart. axis [1,1,0]   

 cryst.   s(13) = (     1          0         -1      )
                  (     0          1         -1      )
                  (     0          0         -1      )

 cart.    s(13) = (  0.0000000 -1.0000000  0.0000000 )
                  ( -1.0000000  0.0000000  0.0000000 )
                  ( -0.0000000  0.0000000  1.0000000 )


      isym = 14     inv. 180 deg rotation - cart. axis [1,-1,0]  

 cryst.   s(14) = (     0          1          0      )
                  (     1          0          0      )
                  (     0          0          1      )

 cart.    s(14) = ( -0.0000000  1.0000000  0.0000000 )
                  (  1.0000000 -0.0000000  0.0000000 )
                  (  0.0000000 -0.0000000  1.0000000 )


      isym = 15     inv.  90 deg rotation - cart. axis [0,0,-1]  

 cryst.   s(15) = (     0         -1          0      )
                  (     0         -1          1      )
                  (     1         -1          0      )

 cart.    s(15) = ( -0.0000000 -1.0000000 -0.0000000 )
                  (  1.0000000  0.0000000 -0.0000000 )
                  (  0.0000000  0.0000000 -1.0000000 )


      isym = 16     inv.  90 deg rotation - cart. axis [0,0,1]   

 cryst.   s(16) = (    -1          0          1      )
                  (    -1          0          0      )
                  (    -1          1          0      )

 cart.    s(16) = (  0.0000000  1.0000000 -0.0000000 )
                  ( -1.0000000 -0.0000000 -0.0000000 )
                  ( -0.0000000 -0.0000000 -1.0000000 )


      isym = 17     inv. 180 deg rotation - cart. axis [1,0,1]   

 cryst.   s(17) = (     1         -1          0      )
                  (     0         -1          0      )
                  (     0         -1          1      )

 cart.    s(17) = ( -0.0000000 -0.0000000 -1.0000000 )
                  ( -0.0000000  1.0000000  0.0000000 )
                  ( -1.0000000  0.0000000  0.0000000 )


      isym = 18     inv. 180 deg rotation - cart. axis [-1,0,1]  

 cryst.   s(18) = (     0          0          1      )
                  (     0          1          0      )
                  (     1          0          0      )

 cart.    s(18) = (  0.0000000 -0.0000000  1.0000000 )
                  (  0.0000000  1.0000000 -0.0000000 )
                  (  1.0000000  0.0000000 -0.0000000 )


      isym = 19     inv.  90 deg rotation - cart. axis [0,1,0]   

 cryst.   s(19) = (     0          0         -1      )
                  (     1          0         -1      )
                  (     0          1         -1      )

 cart.    s(19) = (  0.0000000  0.0000000 -1.0000000 )
                  (  0.0000000 -1.0000000  0.0000000 )
                  (  1.0000000 -0.0000000  0.0000000 )


      isym = 20     inv.  90 deg rotation - cart. axis [0,-1,0]  

 cryst.   s(20) = (    -1          1          0      )
                  (    -1          0          1      )
                  (    -1          0          0      )

 cart.    s(20) = ( -0.0000000  0.0000000  1.0000000 )
                  ( -0.0000000 -1.0000000 -0.0000000 )
                  ( -1.0000000 -0.0000000 -0.0000000 )


      isym = 21     inv. 180 deg rotation - cart. axis [0,1,1]   

 cryst.   s(21) = (    -1          0          0      )
                  (    -1          1          0      )
                  (    -1          0          1      )

 cart.    s(21) = (  1.0000000 -0.0000000  0.0000000 )
                  ( -0.0000000 -0.0000000 -1.0000000 )
                  ( -0.0000000 -1.0000000 -0.0000000 )


      isym = 22     inv. 180 deg rotation - cart. axis [0,1,-1]  

 cryst.   s(22) = (     1          0          0      )
                  (     0          0          1      )
                  (     0          1          0      )

 cart.    s(22) = (  1.0000000  0.0000000 -0.0000000 )
                  ( -0.0000000  0.0000000  1.0000000 )
                  ( -0.0000000  1.0000000  0.0000000 )


      isym = 23     inv.  90 deg rotation - cart. axis [-1,0,0]  

 cryst.   s(23) = (     0          1         -1      )
                  (     0          0         -1      )
                  (     1          0         -1      )

 cart.    s(23) = ( -1.0000000  0.0000000  0.0000000 )
                  (  0.0000000  0.0000000 -1.0000000 )
                  (  0.0000000  1.0000000 -0.0000000 )


      isym = 24     inv.  90 deg rotation - cart. axis [1,0,0]   

 cryst.   s(24) = (     0         -1          1      )
                  (     1         -1          0      )
                  (     0         -1          0      )

 cart.    s(24) = ( -1.0000000 -0.0000000 -0.0000000 )
                  (  0.0000000 -0.0000000  1.0000000 )
                  (  0.0000000 -1.0000000  0.0000000 )


   Cartesian axes

     site n.     atom                  positions (alat units)
         1           Ti  tau(   1) = (   0.3535534   0.3535534   0.3535534  )
         2           V   tau(   2) = (   0.7071068   0.0000000   0.0000000  )
         3           Cr  tau(   3) = (   0.0000000   0.0000000   0.0000000  )
         4           In  tau(   4) = (   0.3535534   0.3535534   1.0606602  )

   Crystallographic axes

     site n.     atom                  positions (cryst. coord.)
         1           Ti  tau(   1) = (  0.2500000  0.2500000  0.2500000  )
         2           V   tau(   2) = ( -0.5000000  0.5000000  0.5000000  )
         3           Cr  tau(   3) = (  0.0000000  0.0000000  0.0000000  )
         4           In  tau(   4) = (  0.7500000  0.7500000 -0.2500000  )

     number of k points=    72  Marzari-Vanderbilt smearing, width (Ry)=  0.0100
                       cart. coord. in units 2pi/alat
        k(    1) = (   0.0000000   0.0000000   0.0000000), wk =   0.0005787
        k(    2) = (   0.0589256   0.0589256  -0.0589256), wk =   0.0046296
        k(    3) = (   0.1178511   0.1178511  -0.1178511), wk =   0.0046296
        k(    4) = (   0.1767767   0.1767767  -0.1767767), wk =   0.0046296
        k(    5) = (   0.2357023   0.2357023  -0.2357023), wk =   0.0046296
        k(    6) = (   0.2946278   0.2946278  -0.2946278), wk =   0.0046296
        k(    7) = (  -0.3535534  -0.3535534   0.3535534), wk =   0.0023148
        k(    8) = (   0.1178511   0.0000000  -0.0000000), wk =   0.0034722
        k(    9) = (   0.1767767   0.0589256  -0.0589256), wk =   0.0138889
        k(   10) = (   0.2357023   0.1178511  -0.1178511), wk =   0.0138889
        k(   11) = (   0.2946278   0.1767767  -0.1767767), wk =   0.0138889
        k(   12) = (   0.3535534   0.2357023  -0.2357023), wk =   0.0138889
        k(   13) = (  -0.2946278  -0.4124790   0.4124790), wk =   0.0138889
        k(   14) = (  -0.2357023  -0.3535534   0.3535534), wk =   0.0138889
        k(   15) = (  -0.1767767  -0.2946278   0.2946278), wk =   0.0138889
        k(   16) = (  -0.1178511  -0.2357023   0.2357023), wk =   0.0138889
        k(   17) = (  -0.0589256  -0.1767767   0.1767767), wk =   0.0138889
        k(   18) = (  -0.0000000  -0.1178511   0.1178511), wk =   0.0069444
        k(   19) = (   0.2357023   0.0000000  -0.0000000), wk =   0.0034722
        k(   20) = (   0.2946278   0.0589256  -0.0589256), wk =   0.0138889
        k(   21) = (   0.3535534   0.1178511  -0.1178511), wk =   0.0138889
        k(   22) = (   0.4124790   0.1767767  -0.1767767), wk =   0.0138889
        k(   23) = (  -0.2357023  -0.4714045   0.4714045), wk =   0.0138889
        k(   24) = (  -0.1767767  -0.4124790   0.4124790), wk =   0.0138889
        k(   25) = (  -0.1178511  -0.3535534   0.3535534), wk =   0.0138889
        k(   26) = (  -0.0589256  -0.2946278   0.2946278), wk =   0.0138889
        k(   27) = (   0.0000000  -0.2357023   0.2357023), wk =   0.0069444
        k(   28) = (   0.3535534   0.0000000   0.0000000), wk =   0.0034722
        k(   29) = (   0.4124790   0.0589256  -0.0589256), wk =   0.0138889
        k(   30) = (   0.4714045   0.1178511  -0.1178511), wk =   0.0138889
        k(   31) = (  -0.1767767  -0.5303301   0.5303301), wk =   0.0138889
        k(   32) = (  -0.1178511  -0.4714045   0.4714045), wk =   0.0138889
        k(   33) = (  -0.0589256  -0.4124790   0.4124790), wk =   0.0138889
        k(   34) = (   0.0000000  -0.3535534   0.3535534), wk =   0.0069444
        k(   35) = (   0.4714045   0.0000000  -0.0000000), wk =   0.0034722
        k(   36) = (   0.5303301   0.0589256  -0.0589256), wk =   0.0138889
        k(   37) = (  -0.1178511  -0.5892557   0.5892557), wk =   0.0138889
        k(   38) = (  -0.0589256  -0.5303301   0.5303301), wk =   0.0138889
        k(   39) = (  -0.0000000  -0.4714045   0.4714045), wk =   0.0069444
        k(   40) = (   0.5892557   0.0000000  -0.0000000), wk =   0.0034722
        k(   41) = (  -0.0589256  -0.6481812   0.6481812), wk =   0.0138889
        k(   42) = (   0.0000000  -0.5892557   0.5892557), wk =   0.0069444
        k(   43) = (  -0.7071068   0.0000000   0.0000000), wk =   0.0017361
        k(   44) = (   0.2357023   0.1178511   0.0000000), wk =   0.0138889
        k(   45) = (   0.2946278   0.1767767  -0.0589256), wk =   0.0277778
        k(   46) = (   0.3535534   0.2357023  -0.1178511), wk =   0.0277778
        k(   47) = (  -0.2946278  -0.4124790   0.5303301), wk =   0.0277778
        k(   48) = (  -0.2357023  -0.3535534   0.4714045), wk =   0.0138889
        k(   49) = (   0.3535534   0.1178511  -0.0000000), wk =   0.0138889
        k(   50) = (   0.4124790   0.1767767  -0.0589256), wk =   0.0277778
        k(   51) = (  -0.2357023  -0.4714045   0.5892557), wk =   0.0277778
        k(   52) = (  -0.1767767  -0.4124790   0.5303301), wk =   0.0277778
        k(   53) = (  -0.1178511  -0.3535534   0.4714045), wk =   0.0277778
        k(   54) = (  -0.0589256  -0.2946278   0.4124790), wk =   0.0277778
        k(   55) = (   0.0000000  -0.2357023   0.3535534), wk =   0.0138889
        k(   56) = (   0.4714045   0.1178511  -0.0000000), wk =   0.0138889
        k(   57) = (  -0.1767767  -0.5303301   0.6481812), wk =   0.0277778
        k(   58) = (  -0.1178511  -0.4714045   0.5892557), wk =   0.0277778
        k(   59) = (  -0.0589256  -0.4124790   0.5303301), wk =   0.0277778
        k(   60) = (   0.0000000  -0.3535534   0.4714045), wk =   0.0138889
        k(   61) = (  -0.1178511  -0.5892557   0.7071068), wk =   0.0138889
        k(   62) = (  -0.0589256  -0.5303301   0.6481812), wk =   0.0277778
        k(   63) = (  -0.0000000  -0.4714045   0.5892557), wk =   0.0138889
        k(   64) = (  -0.7071068   0.1178511  -0.0000000), wk =   0.0069444
        k(   65) = (  -0.2357023  -0.4714045   0.7071068), wk =   0.0138889
        k(   66) = (  -0.1767767  -0.4124790   0.6481812), wk =   0.0277778
        k(   67) = (  -0.1178511  -0.3535534   0.5892557), wk =   0.0138889
        k(   68) = (  -0.1178511  -0.4714045   0.7071068), wk =   0.0138889
        k(   69) = (  -0.0589256  -0.4124790   0.6481812), wk =   0.0277778
        k(   70) = (   0.0000000  -0.3535534   0.5892557), wk =   0.0138889
        k(   71) = (  -0.7071068   0.2357023   0.0000000), wk =   0.0069444
        k(   72) = (  -0.7071068   0.3535534   0.0000000), wk =   0.0034722

                       cryst. coord.
        k(    1) = (   0.0000000   0.0000000   0.0000000), wk =   0.0005787
        k(    2) = (   0.0000000   0.0000000   0.0833333), wk =   0.0046296
        k(    3) = (   0.0000000   0.0000000   0.1666667), wk =   0.0046296
        k(    4) = (   0.0000000   0.0000000   0.2500000), wk =   0.0046296
        k(    5) = (   0.0000000   0.0000000   0.3333333), wk =   0.0046296
        k(    6) = (  -0.0000000  -0.0000000   0.4166667), wk =   0.0046296
        k(    7) = (  -0.0000000  -0.0000000  -0.5000000), wk =   0.0023148
        k(    8) = (  -0.0000000   0.0833333   0.0833333), wk =   0.0034722
        k(    9) = (   0.0000000   0.0833333   0.1666667), wk =   0.0138889
        k(   10) = (  -0.0000000   0.0833333   0.2500000), wk =   0.0138889
        k(   11) = (   0.0000000   0.0833333   0.3333333), wk =   0.0138889
        k(   12) = (  -0.0000000   0.0833333   0.4166667), wk =   0.0138889
        k(   13) = (  -0.0000000   0.0833333  -0.5000000), wk =   0.0138889
        k(   14) = (  -0.0000000   0.0833333  -0.4166667), wk =   0.0138889
        k(   15) = (  -0.0000000   0.0833333  -0.3333333), wk =   0.0138889
        k(   16) = (  -0.0000000   0.0833333  -0.2500000), wk =   0.0138889
        k(   17) = (  -0.0000000   0.0833333  -0.1666667), wk =   0.0138889
        k(   18) = (   0.0000000   0.0833333  -0.0833333), wk =   0.0069444
        k(   19) = (  -0.0000000   0.1666667   0.1666667), wk =   0.0034722
        k(   20) = (  -0.0000000   0.1666667   0.2500000), wk =   0.0138889
        k(   21) = (   0.0000000   0.1666667   0.3333333), wk =   0.0138889
        k(   22) = (  -0.0000000   0.1666667   0.4166667), wk =   0.0138889
        k(   23) = (  -0.0000000   0.1666667  -0.5000000), wk =   0.0138889
        k(   24) = (  -0.0000000   0.1666667  -0.4166667), wk =   0.0138889
        k(   25) = (  -0.0000000   0.1666667  -0.3333333), wk =   0.0138889
        k(   26) = (   0.0000000   0.1666667  -0.2500000), wk =   0.0138889
        k(   27) = (  -0.0000000   0.1666667  -0.1666667), wk =   0.0069444
        k(   28) = (   0.0000000   0.2500000   0.2500000), wk =   0.0034722
        k(   29) = (   0.0000000   0.2500000   0.3333333), wk =   0.0138889
        k(   30) = (  -0.0000000   0.2500000   0.4166667), wk =   0.0138889
        k(   31) = (   0.0000000   0.2500000  -0.5000000), wk =   0.0138889
        k(   32) = (  -0.0000000   0.2500000  -0.4166667), wk =   0.0138889
        k(   33) = (  -0.0000000   0.2500000  -0.3333333), wk =   0.0138889
        k(   34) = (  -0.0000000   0.2500000  -0.2500000), wk =   0.0069444
        k(   35) = (  -0.0000000   0.3333333   0.3333333), wk =   0.0034722
        k(   36) = (  -0.0000000   0.3333333   0.4166667), wk =   0.0138889
        k(   37) = (   0.0000000   0.3333333  -0.5000000), wk =   0.0138889
        k(   38) = (  -0.0000000   0.3333333  -0.4166667), wk =   0.0138889
        k(   39) = (   0.0000000   0.3333333  -0.3333333), wk =   0.0069444
        k(   40) = (   0.0000000   0.4166667   0.4166667), wk =   0.0034722
        k(   41) = (  -0.0000000   0.4166667  -0.5000000), wk =   0.0138889
        k(   42) = (   0.0000000   0.4166667  -0.4166667), wk =   0.0069444
        k(   43) = (   0.0000000  -0.5000000  -0.5000000), wk =   0.0017361
        k(   44) = (   0.0833333   0.1666667   0.2500000), wk =   0.0138889
        k(   45) = (   0.0833333   0.1666667   0.3333333), wk =   0.0277778
        k(   46) = (   0.0833333   0.1666667   0.4166667), wk =   0.0277778
        k(   47) = (   0.0833333   0.1666667  -0.5000000), wk =   0.0277778
        k(   48) = (   0.0833333   0.1666667  -0.4166667), wk =   0.0138889
        k(   49) = (   0.0833333   0.2500000   0.3333333), wk =   0.0138889
        k(   50) = (   0.0833333   0.2500000   0.4166667), wk =   0.0277778
        k(   51) = (   0.0833333   0.2500000  -0.5000000), wk =   0.0277778
        k(   52) = (   0.0833333   0.2500000  -0.4166667), wk =   0.0277778
        k(   53) = (   0.0833333   0.2500000  -0.3333333), wk =   0.0277778
        k(   54) = (   0.0833333   0.2500000  -0.2500000), wk =   0.0277778
        k(   55) = (   0.0833333   0.2500000  -0.1666667), wk =   0.0138889
        k(   56) = (   0.0833333   0.3333333   0.4166667), wk =   0.0138889
        k(   57) = (   0.0833333   0.3333333  -0.5000000), wk =   0.0277778
        k(   58) = (   0.0833333   0.3333333  -0.4166667), wk =   0.0277778
        k(   59) = (   0.0833333   0.3333333  -0.3333333), wk =   0.0277778
        k(   60) = (   0.0833333   0.3333333  -0.2500000), wk =   0.0138889
        k(   61) = (   0.0833333   0.4166667  -0.5000000), wk =   0.0138889
        k(   62) = (   0.0833333   0.4166667  -0.4166667), wk =   0.0277778
        k(   63) = (   0.0833333   0.4166667  -0.3333333), wk =   0.0138889
        k(   64) = (   0.0833333  -0.5000000  -0.4166667), wk =   0.0069444
        k(   65) = (   0.1666667   0.3333333  -0.5000000), wk =   0.0138889
        k(   66) = (   0.1666667   0.3333333  -0.4166667), wk =   0.0277778
        k(   67) = (   0.1666667   0.3333333  -0.3333333), wk =   0.0138889
        k(   68) = (   0.1666667   0.4166667  -0.4166667), wk =   0.0138889
        k(   69) = (   0.1666667   0.4166667  -0.3333333), wk =   0.0277778
        k(   70) = (   0.1666667   0.4166667  -0.2500000), wk =   0.0138889
        k(   71) = (   0.1666667  -0.5000000  -0.3333333), wk =   0.0069444
        k(   72) = (   0.2500000  -0.5000000  -0.2500000), wk =   0.0034722

     Dense  grid:    55369 G-vectors     FFT dimensions: (  54,  54,  54)

     Smooth grid:    19603 G-vectors     FFT dimensions: (  40,  40,  40)

     Dynamical RAM for                 wfc:       1.16 MB

     Dynamical RAM for     wfc (w. buffer):     167.84 MB

     Dynamical RAM for           str. fact:       3.38 MB

     Dynamical RAM for           local pot:       0.00 MB

     Dynamical RAM for          nlocal pot:       2.69 MB

     Dynamical RAM for                qrad:       6.42 MB

     Dynamical RAM for          rho,v,vnew:      12.28 MB

     Dynamical RAM for               rhoin:       4.09 MB

     Dynamical RAM for            rho*nmix:      27.04 MB

     Dynamical RAM for           G-vectors:       3.32 MB

     Dynamical RAM for          h,s,v(r/c):       0.18 MB

     Dynamical RAM for          <psi|beta>:       0.03 MB

     Dynamical RAM for                 psi:       2.31 MB

     Dynamical RAM for                hpsi:       2.31 MB

     Dynamical RAM for                spsi:       2.31 MB

     Dynamical RAM for      wfcinit/wfcrot:       2.95 MB

     Dynamical RAM for           addusdens:     158.83 MB

     Dynamical RAM for          addusforce:     158.84 MB

     Dynamical RAM for         addusstress:     171.08 MB

     Estimated static dynamical RAM per process >     211.44 MB

     Estimated max dynamical RAM per process >     409.57 MB

     Check: negative core charge=   -0.000004
     Generating pointlists ...
     new r_m :   0.2526 (alat units)  2.1062 (a.u.) for type    1
     new r_m :   0.2526 (alat units)  2.1062 (a.u.) for type    2
     new r_m :   0.2526 (alat units)  2.1062 (a.u.) for type    3
     new r_m :   0.2526 (alat units)  2.1062 (a.u.) for type    4

     Initial potential from superposition of free atoms

     starting charge      49.9955, renormalised to      52.0000

     negative rho (up, down):  1.933E-03 8.320E-04
     Starting wfcs are   39 randomized atomic wfcs

     total cpu time spent up to now is        5.2 secs

     per-process dynamical memory:   898.1 Mb

     Self-consistent Calculation
[tb_dev] Currently allocated     1.33E+00 Mbytes, locked:    0 /  10
[tb_pin] Currently allocated     0.00E+00 Mbytes, locked:    0 /   0

     iteration #  1     ecut=    50.00 Ry     beta= 0.40
     Davidson diagonalization with overlap

---- Real-time Memory Report at c_bands before calling an iterative solver
          1029 MiB given to the printing process from OS
           877 MiB allocation reported by mallinfo(arena+hblkhd)
         58830 MiB available memory on the node where the printing process lives
     GPU memory used/free/total (MiB): 826 / 15454 / 16280
------------------
     ethr =  1.00E-02,  avg # of iterations =  2.8

     negative rho (up, down):  6.849E-04 1.339E-03

     total cpu time spent up to now is        8.5 secs

     total energy              =    -580.26917699 Ry
     estimated scf accuracy    <       7.61182981 Ry

     total magnetization       =     7.09 Bohr mag/cell
     absolute magnetization    =     7.16 Bohr mag/cell
[tb_dev] Currently allocated     1.03E+00 Mbytes, locked:    0 /   8
[tb_pin] Currently allocated     0.00E+00 Mbytes, locked:    0 /   0

     iteration #  2     ecut=    50.00 Ry     beta= 0.40
     Davidson diagonalization with overlap

---- Real-time Memory Report at c_bands before calling an iterative solver
          1075 MiB given to the printing process from OS
           905 MiB allocation reported by mallinfo(arena+hblkhd)
         58812 MiB available memory on the node where the printing process lives
     GPU memory used/free/total (MiB): 1042 / 15238 / 16280
------------------
     ethr =  1.00E-02,  avg # of iterations =  5.1

     negative rho (up, down):  4.986E-04 1.916E-03

     total cpu time spent up to now is       13.4 secs

     total energy              =    -581.08917198 Ry
     estimated scf accuracy    <      31.21491425 Ry

     total magnetization       =     3.19 Bohr mag/cell
     absolute magnetization    =     3.23 Bohr mag/cell
[tb_dev] Currently allocated     1.03E+00 Mbytes, locked:    0 /   8
[tb_pin] Currently allocated     0.00E+00 Mbytes, locked:    0 /   0

     iteration #  3     ecut=    50.00 Ry     beta= 0.40
     Davidson diagonalization with overlap

---- Real-time Memory Report at c_bands before calling an iterative solver
          1079 MiB given to the printing process from OS
           905 MiB allocation reported by mallinfo(arena+hblkhd)
         58811 MiB available memory on the node where the printing process lives
     GPU memory used/free/total (MiB): 1090 / 15190 / 16280
------------------
     ethr =  1.00E-02,  avg # of iterations =  3.3

     negative rho (up, down):  4.243E-04 1.416E-03

     total cpu time spent up to now is       16.8 secs

     total energy              =    -583.05392980 Ry
     estimated scf accuracy    <      15.11770150 Ry

     total magnetization       =     0.88 Bohr mag/cell
     absolute magnetization    =     1.48 Bohr mag/cell
[tb_dev] Currently allocated     1.03E+00 Mbytes, locked:    0 /   8
[tb_pin] Currently allocated     0.00E+00 Mbytes, locked:    0 /   0

     iteration #  4     ecut=    50.00 Ry     beta= 0.40
     Davidson diagonalization with overlap

---- Real-time Memory Report at c_bands before calling an iterative solver
          1083 MiB given to the printing process from OS
           905 MiB allocation reported by mallinfo(arena+hblkhd)
         58809 MiB available memory on the node where the printing process lives
     GPU memory used/free/total (MiB): 1090 / 15190 / 16280
------------------
     ethr =  1.00E-02,  avg # of iterations =  1.7

     negative rho (up, down):  3.479E-04 2.175E-03

     total cpu time spent up to now is       19.4 secs

     total energy              =    -583.57226552 Ry
     estimated scf accuracy    <       1.65437257 Ry

     total magnetization       =     5.74 Bohr mag/cell
     absolute magnetization    =     5.81 Bohr mag/cell
[tb_dev] Currently allocated     1.03E+00 Mbytes, locked:    0 /   8
[tb_pin] Currently allocated     0.00E+00 Mbytes, locked:    0 /   0

     iteration #  5     ecut=    50.00 Ry     beta= 0.40
     Davidson diagonalization with overlap

---- Real-time Memory Report at c_bands before calling an iterative solver
          1085 MiB given to the printing process from OS
           905 MiB allocation reported by mallinfo(arena+hblkhd)
         58807 MiB available memory on the node where the printing process lives
     GPU memory used/free/total (MiB): 1090 / 15190 / 16280
------------------
     ethr =  3.18E-03,  avg # of iterations =  3.1

     negative rho (up, down):  3.016E-04 6.064E-03

     total cpu time spent up to now is       22.7 secs

     total energy              =    -583.55718325 Ry
     estimated scf accuracy    <       0.58368615 Ry

     total magnetization       =     5.89 Bohr mag/cell
     absolute magnetization    =     6.00 Bohr mag/cell
[tb_dev] Currently allocated     1.03E+00 Mbytes, locked:    0 /   8
[tb_pin] Currently allocated     0.00E+00 Mbytes, locked:    0 /   0

     iteration #  6     ecut=    50.00 Ry     beta= 0.40
     Davidson diagonalization with overlap

---- Real-time Memory Report at c_bands before calling an iterative solver
          1088 MiB given to the printing process from OS
           905 MiB allocation reported by mallinfo(arena+hblkhd)
         58805 MiB available memory on the node where the printing process lives
     GPU memory used/free/total (MiB): 1090 / 15190 / 16280
------------------
     ethr =  1.12E-03,  avg # of iterations =  9.3

     negative rho (up, down):  2.803E-04 5.869E-03

     total cpu time spent up to now is       29.9 secs

     total energy              =    -584.10402000 Ry
     estimated scf accuracy    <       7.23775057 Ry

     total magnetization       =     3.44 Bohr mag/cell
     absolute magnetization    =     3.51 Bohr mag/cell
[tb_dev] Currently allocated     1.03E+00 Mbytes, locked:    0 /   8
[tb_pin] Currently allocated     0.00E+00 Mbytes, locked:    0 /   0

     iteration #  7     ecut=    50.00 Ry     beta= 0.40
     Davidson diagonalization with overlap

---- Real-time Memory Report at c_bands before calling an iterative solver
          1089 MiB given to the printing process from OS
           905 MiB allocation reported by mallinfo(arena+hblkhd)
         58804 MiB available memory on the node where the printing process lives
     GPU memory used/free/total (MiB): 1090 / 15190 / 16280
------------------
     ethr =  1.12E-03,  avg # of iterations =  1.1

     negative rho (up, down):  3.438E-04 5.766E-03

     total cpu time spent up to now is       32.2 secs

     total energy              =    -584.02078060 Ry
     estimated scf accuracy    <       5.91004720 Ry

     total magnetization       =     3.41 Bohr mag/cell
     absolute magnetization    =     3.50 Bohr mag/cell
[tb_dev] Currently allocated     1.03E+00 Mbytes, locked:    0 /   8
[tb_pin] Currently allocated     0.00E+00 Mbytes, locked:    0 /   0

     iteration #  8     ecut=    50.00 Ry     beta= 0.40
     Davidson diagonalization with overlap

---- Real-time Memory Report at c_bands before calling an iterative solver
          1094 MiB given to the printing process from OS
           905 MiB allocation reported by mallinfo(arena+hblkhd)
         58800 MiB available memory on the node where the printing process lives
     GPU memory used/free/total (MiB): 1090 / 15190 / 16280
------------------
     ethr =  1.12E-03,  avg # of iterations =  1.0

     negative rho (up, down):  1.059E-03 4.246E-03

     total cpu time spent up to now is       34.5 secs

     total energy              =    -583.48080801 Ry
     estimated scf accuracy    <       4.43512919 Ry

     total magnetization       =     3.43 Bohr mag/cell
     absolute magnetization    =     3.56 Bohr mag/cell
[tb_dev] Currently allocated     1.03E+00 Mbytes, locked:    0 /   8
[tb_pin] Currently allocated     0.00E+00 Mbytes, locked:    0 /   0

     iteration #  9     ecut=    50.00 Ry     beta= 0.40
     Davidson diagonalization with overlap

---- Real-time Memory Report at c_bands before calling an iterative solver
          1099 MiB given to the printing process from OS
           905 MiB allocation reported by mallinfo(arena+hblkhd)
         58796 MiB available memory on the node where the printing process lives
     GPU memory used/free/total (MiB): 1090 / 15190 / 16280
------------------
     ethr =  1.12E-03,  avg # of iterations =  6.6

     negative rho (up, down):  8.719E-04 4.168E-03

     total cpu time spent up to now is       39.9 secs

     total energy              =    -583.80794082 Ry
     estimated scf accuracy    <       0.87925607 Ry

     total magnetization       =     4.32 Bohr mag/cell
     absolute magnetization    =     4.54 Bohr mag/cell
[tb_dev] Currently allocated     1.03E+00 Mbytes, locked:    0 /   8
[tb_pin] Currently allocated     0.00E+00 Mbytes, locked:    0 /   0

     iteration # 10     ecut=    50.00 Ry     beta= 0.40
     Davidson diagonalization with overlap

---- Real-time Memory Report at c_bands before calling an iterative solver
          1100 MiB given to the printing process from OS
           907 MiB allocation reported by mallinfo(arena+hblkhd)
         58796 MiB available memory on the node where the printing process lives
     GPU memory used/free/total (MiB): 1090 / 15190 / 16280
------------------
     ethr =  1.12E-03,  avg # of iterations =  1.1

     negative rho (up, down):  8.369E-04 4.155E-03

     total cpu time spent up to now is       42.2 secs

     total energy              =    -583.83710687 Ry
     estimated scf accuracy    <       0.09303948 Ry

     total magnetization       =     3.67 Bohr mag/cell
     absolute magnetization    =     4.10 Bohr mag/cell
[tb_dev] Currently allocated     1.03E+00 Mbytes, locked:    0 /   8
[tb_pin] Currently allocated     0.00E+00 Mbytes, locked:    0 /   0

     iteration # 11     ecut=    50.00 Ry     beta= 0.40
     Davidson diagonalization with overlap

---- Real-time Memory Report at c_bands before calling an iterative solver
          1100 MiB given to the printing process from OS
           921 MiB allocation reported by mallinfo(arena+hblkhd)
         58796 MiB available memory on the node where the printing process lives
     GPU memory used/free/total (MiB): 1090 / 15190 / 16280
------------------
     ethr =  1.79E-04,  avg # of iterations =  5.0

     negative rho (up, down):  8.866E-04 3.567E-03

     total cpu time spent up to now is       46.5 secs

     total energy              =    -583.84210626 Ry
     estimated scf accuracy    <       0.12904362 Ry

     total magnetization       =     3.30 Bohr mag/cell
     absolute magnetization    =     3.89 Bohr mag/cell
[tb_dev] Currently allocated     1.03E+00 Mbytes, locked:    0 /   8
[tb_pin] Currently allocated     0.00E+00 Mbytes, locked:    0 /   0

     iteration # 12     ecut=    50.00 Ry     beta= 0.40
     Davidson diagonalization with overlap

---- Real-time Memory Report at c_bands before calling an iterative solver
          1102 MiB given to the printing process from OS
           921 MiB allocation reported by mallinfo(arena+hblkhd)
         58795 MiB available memory on the node where the printing process lives
     GPU memory used/free/total (MiB): 1090 / 15190 / 16280
------------------
     ethr =  1.79E-04,  avg # of iterations =  1.0

     negative rho (up, down):  8.187E-04 2.981E-03

     total cpu time spent up to now is       48.8 secs

     total energy              =    -583.83213707 Ry
     estimated scf accuracy    <       0.04835032 Ry

     total magnetization       =     3.35 Bohr mag/cell
     absolute magnetization    =     3.83 Bohr mag/cell
[tb_dev] Currently allocated     1.03E+00 Mbytes, locked:    0 /   8
[tb_pin] Currently allocated     0.00E+00 Mbytes, locked:    0 /   0

     iteration # 13     ecut=    50.00 Ry     beta= 0.40
     Davidson diagonalization with overlap

---- Real-time Memory Report at c_bands before calling an iterative solver
          1102 MiB given to the printing process from OS
           921 MiB allocation reported by mallinfo(arena+hblkhd)
         58796 MiB available memory on the node where the printing process lives
     GPU memory used/free/total (MiB): 1090 / 15190 / 16280
------------------
     ethr =  9.30E-05,  avg # of iterations =  6.3

     negative rho (up, down):  7.230E-04 3.007E-03

     total cpu time spent up to now is       54.0 secs

     total energy              =    -583.84141561 Ry
     estimated scf accuracy    <       0.10799885 Ry

     total magnetization       =     3.61 Bohr mag/cell
     absolute magnetization    =     3.81 Bohr mag/cell
[tb_dev] Currently allocated     1.03E+00 Mbytes, locked:    0 /   8
[tb_pin] Currently allocated     0.00E+00 Mbytes, locked:    0 /   0

     iteration # 14     ecut=    50.00 Ry     beta= 0.40
     Davidson diagonalization with overlap

---- Real-time Memory Report at c_bands before calling an iterative solver
          1102 MiB given to the printing process from OS
           921 MiB allocation reported by mallinfo(arena+hblkhd)
         58796 MiB available memory on the node where the printing process lives
     GPU memory used/free/total (MiB): 1090 / 15190 / 16280
------------------
     ethr =  9.30E-05,  avg # of iterations =  1.1

     negative rho (up, down):  6.919E-04 2.763E-03

     total cpu time spent up to now is       56.3 secs

     total energy              =    -583.84117140 Ry
     estimated scf accuracy    <       0.03445709 Ry

     total magnetization       =     3.45 Bohr mag/cell
     absolute magnetization    =     3.68 Bohr mag/cell
[tb_dev] Currently allocated     1.03E+00 Mbytes, locked:    0 /   8
[tb_pin] Currently allocated     0.00E+00 Mbytes, locked:    0 /   0

     iteration # 15     ecut=    50.00 Ry     beta= 0.40
     Davidson diagonalization with overlap

---- Real-time Memory Report at c_bands before calling an iterative solver
          1102 MiB given to the printing process from OS
           921 MiB allocation reported by mallinfo(arena+hblkhd)
         58796 MiB available memory on the node where the printing process lives
     GPU memory used/free/total (MiB): 1090 / 15190 / 16280
------------------
     ethr =  6.63E-05,  avg # of iterations =  1.8

     negative rho (up, down):  7.012E-04 2.563E-03

     total cpu time spent up to now is       58.9 secs

     total energy              =    -583.84272874 Ry
     estimated scf accuracy    <       0.00574849 Ry

     total magnetization       =     3.04 Bohr mag/cell
     absolute magnetization    =     3.39 Bohr mag/cell
[tb_dev] Currently allocated     1.03E+00 Mbytes, locked:    0 /   8
[tb_pin] Currently allocated     0.00E+00 Mbytes, locked:    0 /   0

     iteration # 16     ecut=    50.00 Ry     beta= 0.40
     Davidson diagonalization with overlap

---- Real-time Memory Report at c_bands before calling an iterative solver
          1102 MiB given to the printing process from OS
           921 MiB allocation reported by mallinfo(arena+hblkhd)
         58796 MiB available memory on the node where the printing process lives
     GPU memory used/free/total (MiB): 1090 / 15190 / 16280
------------------
     c_bands:  1 eigenvalues not converged
     ethr =  1.11E-05,  avg # of iterations =  6.3

     negative rho (up, down):  6.979E-04 2.637E-03

     total cpu time spent up to now is       64.0 secs

     total energy              =    -583.84421461 Ry
     estimated scf accuracy    <       0.00711826 Ry

     total magnetization       =     2.65 Bohr mag/cell
     absolute magnetization    =     3.11 Bohr mag/cell
[tb_dev] Currently allocated     1.03E+00 Mbytes, locked:    0 /   8
[tb_pin] Currently allocated     0.00E+00 Mbytes, locked:    0 /   0

     iteration # 17     ecut=    50.00 Ry     beta= 0.40
     Davidson diagonalization with overlap

---- Real-time Memory Report at c_bands before calling an iterative solver
          1102 MiB given to the printing process from OS
           921 MiB allocation reported by mallinfo(arena+hblkhd)
         58797 MiB available memory on the node where the printing process lives
     GPU memory used/free/total (MiB): 1090 / 15190 / 16280
------------------
     ethr =  1.11E-05,  avg # of iterations =  1.2

     negative rho (up, down):  6.284E-04 2.646E-03

     total cpu time spent up to now is       66.3 secs

     total energy              =    -583.84346646 Ry
     estimated scf accuracy    <       0.00611510 Ry

     total magnetization       =     2.75 Bohr mag/cell
     absolute magnetization    =     3.18 Bohr mag/cell
[tb_dev] Currently allocated     1.03E+00 Mbytes, locked:    0 /   8
[tb_pin] Currently allocated     0.00E+00 Mbytes, locked:    0 /   0

     iteration # 18     ecut=    50.00 Ry     beta= 0.40
     Davidson diagonalization with overlap

---- Real-time Memory Report at c_bands before calling an iterative solver
          1102 MiB given to the printing process from OS
           921 MiB allocation reported by mallinfo(arena+hblkhd)
         58797 MiB available memory on the node where the printing process lives
     GPU memory used/free/total (MiB): 1090 / 15190 / 16280
------------------
     ethr =  1.11E-05,  avg # of iterations =  1.4

     negative rho (up, down):  5.706E-04 2.761E-03

     total cpu time spent up to now is       68.8 secs

     total energy              =    -583.84248125 Ry
     estimated scf accuracy    <       0.00209262 Ry

     total magnetization       =     2.94 Bohr mag/cell
     absolute magnetization    =     3.25 Bohr mag/cell
[tb_dev] Currently allocated     1.03E+00 Mbytes, locked:    0 /   8
[tb_pin] Currently allocated     0.00E+00 Mbytes, locked:    0 /   0

     iteration # 19     ecut=    50.00 Ry     beta= 0.40
     Davidson diagonalization with overlap

---- Real-time Memory Report at c_bands before calling an iterative solver
          1102 MiB given to the printing process from OS
           921 MiB allocation reported by mallinfo(arena+hblkhd)
         58796 MiB available memory on the node where the printing process lives
     GPU memory used/free/total (MiB): 1090 / 15190 / 16280
------------------
     ethr =  4.02E-06,  avg # of iterations =  4.0

     negative rho (up, down):  5.422E-04 2.767E-03

     total cpu time spent up to now is       72.6 secs

     total energy              =    -583.84318692 Ry
     estimated scf accuracy    <       0.00172441 Ry

     total magnetization       =     3.29 Bohr mag/cell
     absolute magnetization    =     3.46 Bohr mag/cell
[tb_dev] Currently allocated     1.03E+00 Mbytes, locked:    0 /   8
[tb_pin] Currently allocated     0.00E+00 Mbytes, locked:    0 /   0

     iteration # 20     ecut=    50.00 Ry     beta= 0.40
     Davidson diagonalization with overlap

---- Real-time Memory Report at c_bands before calling an iterative solver
          1102 MiB given to the printing process from OS
           921 MiB allocation reported by mallinfo(arena+hblkhd)
         58797 MiB available memory on the node where the printing process lives
     GPU memory used/free/total (MiB): 1090 / 15190 / 16280
------------------
     ethr =  3.32E-06,  avg # of iterations =  1.1

     negative rho (up, down):  5.002E-04 2.705E-03

     total cpu time spent up to now is       74.9 secs

     total energy              =    -583.84320052 Ry
     estimated scf accuracy    <       0.00208254 Ry

     total magnetization       =     3.36 Bohr mag/cell
     absolute magnetization    =     3.52 Bohr mag/cell
[tb_dev] Currently allocated     1.03E+00 Mbytes, locked:    0 /   8
[tb_pin] Currently allocated     0.00E+00 Mbytes, locked:    0 /   0

     iteration # 21     ecut=    50.00 Ry     beta= 0.40
     Davidson diagonalization with overlap

---- Real-time Memory Report at c_bands before calling an iterative solver
          1102 MiB given to the printing process from OS
           921 MiB allocation reported by mallinfo(arena+hblkhd)
         58797 MiB available memory on the node where the printing process lives
     GPU memory used/free/total (MiB): 1090 / 15190 / 16280
------------------
     c_bands:  1 eigenvalues not converged
     ethr =  3.32E-06,  avg # of iterations =  2.5

     negative rho (up, down):  3.388E-04 2.785E-03

     total cpu time spent up to now is       77.9 secs

     total energy              =    -583.84033589 Ry
     estimated scf accuracy    <       0.00304852 Ry

     total magnetization       =     3.41 Bohr mag/cell
     absolute magnetization    =     3.55 Bohr mag/cell
[tb_dev] Currently allocated     1.03E+00 Mbytes, locked:    0 /   8
[tb_pin] Currently allocated     0.00E+00 Mbytes, locked:    0 /   0

     iteration # 22     ecut=    50.00 Ry     beta= 0.40
     Davidson diagonalization with overlap

---- Real-time Memory Report at c_bands before calling an iterative solver
          1102 MiB given to the printing process from OS
           921 MiB allocation reported by mallinfo(arena+hblkhd)
         58797 MiB available memory on the node where the printing process lives
     GPU memory used/free/total (MiB): 1090 / 15190 / 16280
------------------
     ethr =  3.32E-06,  avg # of iterations =  5.8

     negative rho (up, down):  6.019E-04 2.582E-03

     total cpu time spent up to now is       82.8 secs

     total energy              =    -583.83928383 Ry
     estimated scf accuracy    <       0.00687017 Ry

     total magnetization       =     3.71 Bohr mag/cell
     absolute magnetization    =     3.83 Bohr mag/cell
[tb_dev] Currently allocated     1.03E+00 Mbytes, locked:    0 /   8
[tb_pin] Currently allocated     0.00E+00 Mbytes, locked:    0 /   0

     iteration # 23     ecut=    50.00 Ry     beta= 0.40
     Davidson diagonalization with overlap

---- Real-time Memory Report at c_bands before calling an iterative solver
          1102 MiB given to the printing process from OS
           921 MiB allocation reported by mallinfo(arena+hblkhd)
         58798 MiB available memory on the node where the printing process lives
     GPU memory used/free/total (MiB): 1090 / 15190 / 16280
------------------
     ethr =  3.32E-06,  avg # of iterations =  5.0

     negative rho (up, down):  4.447E-04 2.720E-03

     total cpu time spent up to now is       87.3 secs

     total energy              =    -583.83988329 Ry
     estimated scf accuracy    <       0.00119384 Ry

     total magnetization       =     2.95 Bohr mag/cell
     absolute magnetization    =     3.18 Bohr mag/cell
[tb_dev] Currently allocated     1.03E+00 Mbytes, locked:    0 /   8
[tb_pin] Currently allocated     0.00E+00 Mbytes, locked:    0 /   0

     iteration # 24     ecut=    50.00 Ry     beta= 0.40
     Davidson diagonalization with overlap

---- Real-time Memory Report at c_bands before calling an iterative solver
          1102 MiB given to the printing process from OS
           921 MiB allocation reported by mallinfo(arena+hblkhd)
         58798 MiB available memory on the node where the printing process lives
     GPU memory used/free/total (MiB): 1090 / 15190 / 16280
------------------
     ethr =  2.30E-06,  avg # of iterations =  4.8

     negative rho (up, down):  7.265E-04 2.448E-03

     total cpu time spent up to now is       91.7 secs

     total energy              =    -583.83632299 Ry
     estimated scf accuracy    <       0.00125575 Ry

     total magnetization       =     3.50 Bohr mag/cell
     absolute magnetization    =     3.64 Bohr mag/cell
[tb_dev] Currently allocated     1.03E+00 Mbytes, locked:    0 /   8
[tb_pin] Currently allocated     0.00E+00 Mbytes, locked:    0 /   0

     iteration # 25     ecut=    50.00 Ry     beta= 0.40
     Davidson diagonalization with overlap

---- Real-time Memory Report at c_bands before calling an iterative solver
          1102 MiB given to the printing process from OS
           921 MiB allocation reported by mallinfo(arena+hblkhd)
         58798 MiB available memory on the node where the printing process lives
     GPU memory used/free/total (MiB): 1090 / 15190 / 16280
------------------
     c_bands:  1 eigenvalues not converged
     ethr =  2.30E-06,  avg # of iterations =  8.0

     negative rho (up, down):  6.168E-04 2.455E-03

     total cpu time spent up to now is       98.1 secs

     total energy              =    -583.84176497 Ry
     estimated scf accuracy    <       0.00448986 Ry

     total magnetization       =     2.24 Bohr mag/cell
     absolute magnetization    =     2.83 Bohr mag/cell
[tb_dev] Currently allocated     1.03E+00 Mbytes, locked:    0 /   8
[tb_pin] Currently allocated     0.00E+00 Mbytes, locked:    0 /   0

     iteration # 26     ecut=    50.00 Ry     beta= 0.40
     Davidson diagonalization with overlap

---- Real-time Memory Report at c_bands before calling an iterative solver
          1102 MiB given to the printing process from OS
           921 MiB allocation reported by mallinfo(arena+hblkhd)
         58799 MiB available memory on the node where the printing process lives
     GPU memory used/free/total (MiB): 1090 / 15190 / 16280
------------------
     ethr =  2.30E-06,  avg # of iterations =  4.7

     negative rho (up, down):  5.590E-04 2.394E-03

     total cpu time spent up to now is      102.5 secs

     total energy              =    -583.84306390 Ry
     estimated scf accuracy    <       0.00098409 Ry

     total magnetization       =     2.85 Bohr mag/cell
     absolute magnetization    =     3.11 Bohr mag/cell
[tb_dev] Currently allocated     1.03E+00 Mbytes, locked:    0 /   8
[tb_pin] Currently allocated     0.00E+00 Mbytes, locked:    0 /   0

     iteration # 27     ecut=    50.00 Ry     beta= 0.40
     Davidson diagonalization with overlap

---- Real-time Memory Report at c_bands before calling an iterative solver
          1102 MiB given to the printing process from OS
           921 MiB allocation reported by mallinfo(arena+hblkhd)
         58799 MiB available memory on the node where the printing process lives
     GPU memory used/free/total (MiB): 1090 / 15190 / 16280
------------------
     ethr =  1.89E-06,  avg # of iterations =  4.8

     negative rho (up, down):  4.910E-04 2.354E-03

     total cpu time spent up to now is      106.7 secs

     total energy              =    -583.84260395 Ry
     estimated scf accuracy    <       0.00060481 Ry

     total magnetization       =     3.08 Bohr mag/cell
     absolute magnetization    =     3.24 Bohr mag/cell
[tb_dev] Currently allocated     1.03E+00 Mbytes, locked:    0 /   8
[tb_pin] Currently allocated     0.00E+00 Mbytes, locked:    0 /   0

     iteration # 28     ecut=    50.00 Ry     beta= 0.40
     Davidson diagonalization with overlap

---- Real-time Memory Report at c_bands before calling an iterative solver
          1102 MiB given to the printing process from OS
           921 MiB allocation reported by mallinfo(arena+hblkhd)
         58799 MiB available memory on the node where the printing process lives
     GPU memory used/free/total (MiB): 1090 / 15190 / 16280
------------------
     c_bands:  1 eigenvalues not converged
     ethr =  1.16E-06,  avg # of iterations =  5.5

     negative rho (up, down):  3.741E-04 2.567E-03

     total cpu time spent up to now is      111.5 secs

     total energy              =    -583.83972394 Ry
     estimated scf accuracy    <       0.00078314 Ry

     total magnetization       =     3.28 Bohr mag/cell
     absolute magnetization    =     3.41 Bohr mag/cell
[tb_dev] Currently allocated     1.03E+00 Mbytes, locked:    0 /   8
[tb_pin] Currently allocated     0.00E+00 Mbytes, locked:    0 /   0

     iteration # 29     ecut=    50.00 Ry     beta= 0.40
     Davidson diagonalization with overlap

---- Real-time Memory Report at c_bands before calling an iterative solver
          1102 MiB given to the printing process from OS
           921 MiB allocation reported by mallinfo(arena+hblkhd)
         58792 MiB available memory on the node where the printing process lives
     GPU memory used/free/total (MiB): 1090 / 15190 / 16280
------------------
     c_bands:  1 eigenvalues not converged
     c_bands:  1 eigenvalues not converged
     c_bands:  1 eigenvalues not converged
     ethr =  1.16E-06,  avg # of iterations =  7.8

     negative rho (up, down):  4.220E-04 2.348E-03

     total cpu time spent up to now is      117.7 secs

     total energy              =    -583.84212742 Ry
     estimated scf accuracy    <       0.00248555 Ry

     total magnetization       =     3.56 Bohr mag/cell
     absolute magnetization    =     3.68 Bohr mag/cell
[tb_dev] Currently allocated     1.03E+00 Mbytes, locked:    0 /   8
[tb_pin] Currently allocated     0.00E+00 Mbytes, locked:    0 /   0

     iteration # 30     ecut=    50.00 Ry     beta= 0.40
     Davidson diagonalization with overlap

---- Real-time Memory Report at c_bands before calling an iterative solver
          1102 MiB given to the printing process from OS
           921 MiB allocation reported by mallinfo(arena+hblkhd)
         58796 MiB available memory on the node where the printing process lives
     GPU memory used/free/total (MiB): 1090 / 15190 / 16280
------------------
     ethr =  1.16E-06,  avg # of iterations =  3.5

     negative rho (up, down):  5.296E-04 2.316E-03

     total cpu time spent up to now is      121.2 secs

     total energy              =    -583.84173814 Ry
     estimated scf accuracy    <       0.00161141 Ry

     total magnetization       =     3.45 Bohr mag/cell
     absolute magnetization    =     3.57 Bohr mag/cell
[tb_dev] Currently allocated     1.03E+00 Mbytes, locked:    0 /   8
[tb_pin] Currently allocated     0.00E+00 Mbytes, locked:    0 /   0

     iteration # 31     ecut=    50.00 Ry     beta= 0.40
     Davidson diagonalization with overlap

---- Real-time Memory Report at c_bands before calling an iterative solver
          1102 MiB given to the printing process from OS
           921 MiB allocation reported by mallinfo(arena+hblkhd)
         58797 MiB available memory on the node where the printing process lives
     GPU memory used/free/total (MiB): 1090 / 15190 / 16280
------------------
     c_bands:  1 eigenvalues not converged
     ethr =  1.16E-06,  avg # of iterations =  7.5

     negative rho (up, down):  5.579E-04 2.300E-03

     total cpu time spent up to now is      127.4 secs

     total energy              =    -583.84395894 Ry
     estimated scf accuracy    <       0.00023888 Ry

     total magnetization       =     3.08 Bohr mag/cell
     absolute magnetization    =     3.22 Bohr mag/cell
[tb_dev] Currently allocated     1.03E+00 Mbytes, locked:    0 /   8
[tb_pin] Currently allocated     0.00E+00 Mbytes, locked:    0 /   0

     iteration # 32     ecut=    50.00 Ry     beta= 0.40
     Davidson diagonalization with overlap

---- Real-time Memory Report at c_bands before calling an iterative solver
          1102 MiB given to the printing process from OS
           921 MiB allocation reported by mallinfo(arena+hblkhd)
         58798 MiB available memory on the node where the printing process lives
     GPU memory used/free/total (MiB): 1090 / 15190 / 16280
------------------
     ethr =  4.59E-07,  avg # of iterations =  4.2

     negative rho (up, down):  6.261E-04 2.292E-03

     total cpu time spent up to now is      131.4 secs

     total energy              =    -583.84403279 Ry
     estimated scf accuracy    <       0.00034336 Ry

     total magnetization       =     2.93 Bohr mag/cell
     absolute magnetization    =     3.08 Bohr mag/cell
[tb_dev] Currently allocated     1.03E+00 Mbytes, locked:    0 /   8
[tb_pin] Currently allocated     0.00E+00 Mbytes, locked:    0 /   0

     iteration # 33     ecut=    50.00 Ry     beta= 0.40
     Davidson diagonalization with overlap

---- Real-time Memory Report at c_bands before calling an iterative solver
          1102 MiB given to the printing process from OS
           921 MiB allocation reported by mallinfo(arena+hblkhd)
         58799 MiB available memory on the node where the printing process lives
     GPU memory used/free/total (MiB): 1090 / 15190 / 16280
------------------
     ethr =  4.59E-07,  avg # of iterations =  6.8

     negative rho (up, down):  5.901E-04 2.299E-03

     total cpu time spent up to now is      137.1 secs

     total energy              =    -583.84420156 Ry
     estimated scf accuracy    <       0.00111437 Ry

     total magnetization       =     2.51 Bohr mag/cell
     absolute magnetization    =     2.79 Bohr mag/cell
[tb_dev] Currently allocated     1.03E+00 Mbytes, locked:    0 /   8
[tb_pin] Currently allocated     0.00E+00 Mbytes, locked:    0 /   0

     iteration # 34     ecut=    50.00 Ry     beta= 0.40
     Davidson diagonalization with overlap

---- Real-time Memory Report at c_bands before calling an iterative solver
          1102 MiB given to the printing process from OS
           921 MiB allocation reported by mallinfo(arena+hblkhd)
         58798 MiB available memory on the node where the printing process lives
     GPU memory used/free/total (MiB): 1090 / 15190 / 16280
------------------
     ethr =  4.59E-07,  avg # of iterations =  4.2

     negative rho (up, down):  5.475E-04 2.301E-03

     total cpu time spent up to now is      141.1 secs

     total energy              =    -583.84346204 Ry
     estimated scf accuracy    <       0.00077344 Ry

     total magnetization       =     2.74 Bohr mag/cell
     absolute magnetization    =     2.94 Bohr mag/cell
[tb_dev] Currently allocated     1.03E+00 Mbytes, locked:    0 /   8
[tb_pin] Currently allocated     0.00E+00 Mbytes, locked:    0 /   0

     iteration # 35     ecut=    50.00 Ry     beta= 0.40
     Davidson diagonalization with overlap

---- Real-time Memory Report at c_bands before calling an iterative solver
          1102 MiB given to the printing process from OS
           921 MiB allocation reported by mallinfo(arena+hblkhd)
         58798 MiB available memory on the node where the printing process lives
     GPU memory used/free/total (MiB): 1090 / 15190 / 16280
------------------
     ethr =  4.59E-07,  avg # of iterations =  5.4

     negative rho (up, down):  5.095E-04 2.303E-03

     total cpu time spent up to now is      145.9 secs

     total energy              =    -583.84318165 Ry
     estimated scf accuracy    <       0.00039769 Ry

     total magnetization       =     2.99 Bohr mag/cell
     absolute magnetization    =     3.14 Bohr mag/cell
[tb_dev] Currently allocated     1.03E+00 Mbytes, locked:    0 /   8
[tb_pin] Currently allocated     0.00E+00 Mbytes, locked:    0 /   0

     iteration # 36     ecut=    50.00 Ry     beta= 0.40
     Davidson diagonalization with overlap

---- Real-time Memory Report at c_bands before calling an iterative solver
          1102 MiB given to the printing process from OS
           921 MiB allocation reported by mallinfo(arena+hblkhd)
         58798 MiB available memory on the node where the printing process lives
     GPU memory used/free/total (MiB): 1090 / 15190 / 16280
------------------
     ethr =  4.59E-07,  avg # of iterations =  4.9

     negative rho (up, down):  4.513E-04 2.301E-03

     total cpu time spent up to now is      150.3 secs

     total energy              =    -583.84211004 Ry
     estimated scf accuracy    <       0.00035671 Ry

     total magnetization       =     3.18 Bohr mag/cell
     absolute magnetization    =     3.30 Bohr mag/cell
[tb_dev] Currently allocated     1.03E+00 Mbytes, locked:    0 /   8
[tb_pin] Currently allocated     0.00E+00 Mbytes, locked:    0 /   0

     iteration # 37     ecut=    50.00 Ry     beta= 0.40
     Davidson diagonalization with overlap

---- Real-time Memory Report at c_bands before calling an iterative solver
          1102 MiB given to the printing process from OS
           921 MiB allocation reported by mallinfo(arena+hblkhd)
         58798 MiB available memory on the node where the printing process lives
     GPU memory used/free/total (MiB): 1090 / 15190 / 16280
------------------
     ethr =  4.59E-07,  avg # of iterations =  5.7

     negative rho (up, down):  5.598E-04 2.307E-03

     total cpu time spent up to now is      155.4 secs

     total energy              =    -583.84175401 Ry
     estimated scf accuracy    <       0.00067910 Ry

     total magnetization       =     3.38 Bohr mag/cell
     absolute magnetization    =     3.50 Bohr mag/cell
[tb_dev] Currently allocated     1.03E+00 Mbytes, locked:    0 /   8
[tb_pin] Currently allocated     0.00E+00 Mbytes, locked:    0 /   0

     iteration # 38     ecut=    50.00 Ry     beta= 0.40
     Davidson diagonalization with overlap

---- Real-time Memory Report at c_bands before calling an iterative solver
          1103 MiB given to the printing process from OS
           921 MiB allocation reported by mallinfo(arena+hblkhd)
         58798 MiB available memory on the node where the printing process lives
     GPU memory used/free/total (MiB): 1090 / 15190 / 16280
------------------
     ethr =  4.59E-07,  avg # of iterations =  7.1

     negative rho (up, down):  5.751E-04 2.308E-03

     total cpu time spent up to now is      161.3 secs

     total energy              =    -583.84430339 Ry
     estimated scf accuracy    <       0.00048219 Ry

     total magnetization       =     2.92 Bohr mag/cell
     absolute magnetization    =     3.07 Bohr mag/cell
[tb_dev] Currently allocated     1.03E+00 Mbytes, locked:    0 /   8
[tb_pin] Currently allocated     0.00E+00 Mbytes, locked:    0 /   0

     iteration # 39     ecut=    50.00 Ry     beta= 0.40
     Davidson diagonalization with overlap

---- Real-time Memory Report at c_bands before calling an iterative solver
          1103 MiB given to the printing process from OS
           921 MiB allocation reported by mallinfo(arena+hblkhd)
         58798 MiB available memory on the node where the printing process lives
     GPU memory used/free/total (MiB): 1090 / 15190 / 16280
------------------
     ethr =  4.59E-07,  avg # of iterations =  2.2

     negative rho (up, down):  2.996E-04 2.978E-03

     total cpu time spent up to now is      164.2 secs

     total energy              =    -583.82224147 Ry
     estimated scf accuracy    <       0.00061635 Ry

     total magnetization       =     2.84 Bohr mag/cell
     absolute magnetization    =     3.00 Bohr mag/cell
[tb_dev] Currently allocated     1.03E+00 Mbytes, locked:    0 /   8
[tb_pin] Currently allocated     0.00E+00 Mbytes, locked:    0 /   0

     iteration # 40     ecut=    50.00 Ry     beta= 0.40
     Davidson diagonalization with overlap

---- Real-time Memory Report at c_bands before calling an iterative solver
          1103 MiB given to the printing process from OS
           921 MiB allocation reported by mallinfo(arena+hblkhd)
         58798 MiB available memory on the node where the printing process lives
     GPU memory used/free/total (MiB): 1090 / 15190 / 16280
------------------
     c_bands:  2 eigenvalues not converged
     c_bands:  1 eigenvalues not converged
     c_bands:  1 eigenvalues not converged
     c_bands:  1 eigenvalues not converged
     c_bands:  1 eigenvalues not converged
     c_bands:  1 eigenvalues not converged
     c_bands:  1 eigenvalues not converged
     c_bands:  1 eigenvalues not converged
     c_bands:  1 eigenvalues not converged
     c_bands:  1 eigenvalues not converged
     c_bands:  1 eigenvalues not converged
     c_bands:  1 eigenvalues not converged
     c_bands:  1 eigenvalues not converged
     c_bands:  1 eigenvalues not converged
     c_bands:  1 eigenvalues not converged
     c_bands:  1 eigenvalues not converged
     c_bands:  1 eigenvalues not converged
     ethr =  4.59E-07,  avg # of iterations = 11.8

     negative rho (up, down):  6.037E-04 2.308E-03

     total cpu time spent up to now is      173.0 secs

     total energy              =    -583.82890915 Ry
     estimated scf accuracy    <       0.00515086 Ry

     total magnetization       =     3.73 Bohr mag/cell
     absolute magnetization    =     3.86 Bohr mag/cell
[tb_dev] Currently allocated     1.03E+00 Mbytes, locked:    0 /   8
[tb_pin] Currently allocated     0.00E+00 Mbytes, locked:    0 /   0

     iteration # 41     ecut=    50.00 Ry     beta= 0.40
     Davidson diagonalization with overlap

---- Real-time Memory Report at c_bands before calling an iterative solver
          1103 MiB given to the printing process from OS
           921 MiB allocation reported by mallinfo(arena+hblkhd)
         58798 MiB available memory on the node where the printing process lives
     GPU memory used/free/total (MiB): 1090 / 15190 / 16280
------------------
     c_bands:  2 eigenvalues not converged
     c_bands:  2 eigenvalues not converged
     c_bands:  1 eigenvalues not converged
     c_bands:  1 eigenvalues not converged
     c_bands:  2 eigenvalues not converged
     c_bands:  2 eigenvalues not converged
     c_bands:  1 eigenvalues not converged
     c_bands:  2 eigenvalues not converged
     c_bands:  2 eigenvalues not converged
     c_bands:  2 eigenvalues not converged
     c_bands:  2 eigenvalues not converged
     c_bands:  1 eigenvalues not converged
     c_bands:  1 eigenvalues not converged
     c_bands:  2 eigenvalues not converged
     c_bands:  2 eigenvalues not converged
     c_bands:  1 eigenvalues not converged
     c_bands:  1 eigenvalues not converged
     c_bands:  1 eigenvalues not converged
     c_bands:  1 eigenvalues not converged
     c_bands:  1 eigenvalues not converged
     c_bands:  1 eigenvalues not converged
     c_bands:  1 eigenvalues not converged
     c_bands:  1 eigenvalues not converged
     ethr =  4.59E-07,  avg # of iterations = 12.1

     negative rho (up, down):  6.345E-04 2.308E-03

     total cpu time spent up to now is      182.2 secs

     total energy              =    -583.84520701 Ry
     estimated scf accuracy    <       0.00083605 Ry

     total magnetization       =     2.65 Bohr mag/cell
     absolute magnetization    =     2.87 Bohr mag/cell
[tb_dev] Currently allocated     1.03E+00 Mbytes, locked:    0 /   8
[tb_pin] Currently allocated     0.00E+00 Mbytes, locked:    0 /   0

     iteration # 42     ecut=    50.00 Ry     beta= 0.40
     Davidson diagonalization with overlap

---- Real-time Memory Report at c_bands before calling an iterative solver
          1103 MiB given to the printing process from OS
           921 MiB allocation reported by mallinfo(arena+hblkhd)
         58798 MiB available memory on the node where the printing process lives
     GPU memory used/free/total (MiB): 1090 / 15190 / 16280
------------------
     ethr =  4.59E-07,  avg # of iterations =  5.3

     negative rho (up, down):  5.091E-04 2.306E-03

     total cpu time spent up to now is      186.9 secs

     total energy              =    -583.83902888 Ry
     estimated scf accuracy    <       0.00129142 Ry

     total magnetization       =     2.44 Bohr mag/cell
     absolute magnetization    =     2.75 Bohr mag/cell
[tb_dev] Currently allocated     1.03E+00 Mbytes, locked:    0 /   8
[tb_pin] Currently allocated     0.00E+00 Mbytes, locked:    0 /   0

     iteration # 43     ecut=    50.00 Ry     beta= 0.40
     Davidson diagonalization with overlap

---- Real-time Memory Report at c_bands before calling an iterative solver
          1103 MiB given to the printing process from OS
           921 MiB allocation reported by mallinfo(arena+hblkhd)
         58798 MiB available memory on the node where the printing process lives
     GPU memory used/free/total (MiB): 1090 / 15190 / 16280
------------------
     c_bands:  1 eigenvalues not converged
     ethr =  4.59E-07,  avg # of iterations =  8.2

     negative rho (up, down):  3.010E-04 2.974E-03

     total cpu time spent up to now is      193.5 secs

     total energy              =    -583.83018356 Ry
     estimated scf accuracy    <       0.00031824 Ry

     total magnetization       =     3.17 Bohr mag/cell
     absolute magnetization    =     3.29 Bohr mag/cell
[tb_dev] Currently allocated     1.03E+00 Mbytes, locked:    0 /   8
[tb_pin] Currently allocated     0.00E+00 Mbytes, locked:    0 /   0

     iteration # 44     ecut=    50.00 Ry     beta= 0.40
     Davidson diagonalization with overlap

---- Real-time Memory Report at c_bands before calling an iterative solver
          1103 MiB given to the printing process from OS
           921 MiB allocation reported by mallinfo(arena+hblkhd)
         58798 MiB available memory on the node where the printing process lives
     GPU memory used/free/total (MiB): 1090 / 15190 / 16280
------------------
     c_bands:  1 eigenvalues not converged
     c_bands:  2 eigenvalues not converged
     c_bands:  1 eigenvalues not converged
     c_bands:  1 eigenvalues not converged
     c_bands:  1 eigenvalues not converged
     c_bands:  1 eigenvalues not converged
     c_bands:  1 eigenvalues not converged
     c_bands:  1 eigenvalues not converged
     c_bands:  1 eigenvalues not converged
     c_bands:  1 eigenvalues not converged
     c_bands:  1 eigenvalues not converged
     c_bands:  1 eigenvalues not converged
     c_bands:  1 eigenvalues not converged
     c_bands:  1 eigenvalues not converged
     c_bands:  1 eigenvalues not converged
     c_bands:  1 eigenvalues not converged
     c_bands:  1 eigenvalues not converged
     ethr =  4.59E-07,  avg # of iterations = 11.3

     negative rho (up, down):  3.575E-04 2.681E-03

     total cpu time spent up to now is      201.9 secs

     total energy              =    -583.84022046 Ry
     estimated scf accuracy    <       0.00475590 Ry

     total magnetization       =     3.73 Bohr mag/cell
     absolute magnetization    =     3.86 Bohr mag/cell
[tb_dev] Currently allocated     1.03E+00 Mbytes, locked:    0 /   8
[tb_pin] Currently allocated     0.00E+00 Mbytes, locked:    0 /   0

     iteration # 45     ecut=    50.00 Ry     beta= 0.40
     Davidson diagonalization with overlap

---- Real-time Memory Report at c_bands before calling an iterative solver
          1103 MiB given to the printing process from OS
           921 MiB allocation reported by mallinfo(arena+hblkhd)
         58799 MiB available memory on the node where the printing process lives
     GPU memory used/free/total (MiB): 1090 / 15190 / 16280
------------------
     ethr =  4.59E-07,  avg # of iterations =  5.7

     negative rho (up, down):  3.315E-04 2.823E-03

     total cpu time spent up to now is      206.7 secs

     total energy              =    -583.83967787 Ry
     estimated scf accuracy    <       0.00261503 Ry

     total magnetization       =     3.61 Bohr mag/cell
     absolute magnetization    =     3.74 Bohr mag/cell
[tb_dev] Currently allocated     1.03E+00 Mbytes, locked:    0 /   8
[tb_pin] Currently allocated     0.00E+00 Mbytes, locked:    0 /   0

     iteration # 46     ecut=    50.00 Ry     beta= 0.40
     Davidson diagonalization with overlap

---- Real-time Memory Report at c_bands before calling an iterative solver
          1103 MiB given to the printing process from OS
           921 MiB allocation reported by mallinfo(arena+hblkhd)
         58799 MiB available memory on the node where the printing process lives
     GPU memory used/free/total (MiB): 1090 / 15190 / 16280
------------------
     ethr =  4.59E-07,  avg # of iterations =  3.4

     negative rho (up, down):  3.497E-04 2.713E-03

     total cpu time spent up to now is      210.2 secs

     total energy              =    -583.84044462 Ry
     estimated scf accuracy    <       0.00339940 Ry

     total magnetization       =     3.67 Bohr mag/cell
     absolute magnetization    =     3.80 Bohr mag/cell
[tb_dev] Currently allocated     1.03E+00 Mbytes, locked:    0 /   8
[tb_pin] Currently allocated     0.00E+00 Mbytes, locked:    0 /   0

     iteration # 47     ecut=    50.00 Ry     beta= 0.40
     Davidson diagonalization with overlap

---- Real-time Memory Report at c_bands before calling an iterative solver
          1103 MiB given to the printing process from OS
           921 MiB allocation reported by mallinfo(arena+hblkhd)
         58798 MiB available memory on the node where the printing process lives
     GPU memory used/free/total (MiB): 1090 / 15190 / 16280
------------------
     ethr =  4.59E-07,  avg # of iterations =  2.2

     negative rho (up, down):  4.741E-04 2.305E-03

     total cpu time spent up to now is      213.0 secs

     total energy              =    -583.84052738 Ry
     estimated scf accuracy    <       0.00292222 Ry

     total magnetization       =     3.63 Bohr mag/cell
     absolute magnetization    =     3.75 Bohr mag/cell
[tb_dev] Currently allocated     1.03E+00 Mbytes, locked:    0 /   8
[tb_pin] Currently allocated     0.00E+00 Mbytes, locked:    0 /   0

     iteration # 48     ecut=    50.00 Ry     beta= 0.40
     Davidson diagonalization with overlap

---- Real-time Memory Report at c_bands before calling an iterative solver
          1103 MiB given to the printing process from OS
           921 MiB allocation reported by mallinfo(arena+hblkhd)
         58799 MiB available memory on the node where the printing process lives
     GPU memory used/free/total (MiB): 1090 / 15190 / 16280
------------------
     c_bands:  1 eigenvalues not converged
     c_bands:  1 eigenvalues not converged
     c_bands:  1 eigenvalues not converged
     c_bands:  1 eigenvalues not converged
     c_bands:  1 eigenvalues not converged
     c_bands:  1 eigenvalues not converged
     c_bands:  1 eigenvalues not converged
     c_bands:  1 eigenvalues not converged
     c_bands:  1 eigenvalues not converged
     c_bands:  1 eigenvalues not converged
     c_bands:  1 eigenvalues not converged
     c_bands:  1 eigenvalues not converged
     c_bands:  1 eigenvalues not converged
     c_bands:  1 eigenvalues not converged
     ethr =  4.59E-07,  avg # of iterations =  9.5

     negative rho (up, down):  4.290E-04 2.311E-03

     total cpu time spent up to now is      220.3 secs

[...]
------------------
     ethr =  4.59E-07,  avg # of iterations =  1.6

     negative rho (up, down):  5.410E-04 2.306E-03

     total cpu time spent up to now is      306.7 secs

     total energy              =    -583.84390628 Ry
     estimated scf accuracy    <       0.00031589 Ry

     total magnetization       =     3.09 Bohr mag/cell
     absolute magnetization    =     3.22 Bohr mag/cell
[tb_dev] Currently allocated     1.03E+00 Mbytes, locked:    0 /   8
[tb_pin] Currently allocated     0.00E+00 Mbytes, locked:    0 /   0

     iteration # 67     ecut=    50.00 Ry     beta= 0.40
     Davidson diagonalization with overlap

---- Real-time Memory Report at c_bands before calling an iterative solver
          1103 MiB given to the printing process from OS
           921 MiB allocation reported by mallinfo(arena+hblkhd)
         58798 MiB available memory on the node where the printing process lives
     GPU memory used/free/total (MiB): 1090 / 15190 / 16280
------------------
     ethr =  4.59E-07,  avg # of iterations =  1.2

     negative rho (up, down):  6.082E-04 2.302E-03

     total cpu time spent up to now is      309.1 secs

     total energy              =    -583.84386047 Ry
     estimated scf accuracy    <       0.00041292 Ry

     total magnetization       =     3.00 Bohr mag/cell
     absolute magnetization    =     3.14 Bohr mag/cell
[tb_dev] Currently allocated     1.03E+00 Mbytes, locked:    0 /   8
[tb_pin] Currently allocated     0.00E+00 Mbytes, locked:    0 /   0

     iteration # 68     ecut=    50.00 Ry     beta= 0.40
     Davidson diagonalization with overlap

---- Real-time Memory Report at c_bands before calling an iterative solver
          1103 MiB given to the printing process from OS
           921 MiB allocation reported by mallinfo(arena+hblkhd)
         58798 MiB available memory on the node where the printing process lives
     GPU memory used/free/total (MiB): 1090 / 15190 / 16280
------------------
     ethr =  4.59E-07,  avg # of iterations =  5.8

     negative rho (up, down):  6.087E-04 2.304E-03

     total cpu time spent up to now is      314.2 secs

     total energy              =    -583.84487806 Ry
     estimated scf accuracy    <       0.00075524 Ry

     total magnetization       =     2.64 Bohr mag/cell
     absolute magnetization    =     2.87 Bohr mag/cell
[tb_dev] Currently allocated     1.03E+00 Mbytes, locked:    0 /   8
[tb_pin] Currently allocated     0.00E+00 Mbytes, locked:    0 /   0

     iteration # 69     ecut=    50.00 Ry     beta= 0.40
     Davidson diagonalization with overlap

---- Real-time Memory Report at c_bands before calling an iterative solver
          1103 MiB given to the printing process from OS
           921 MiB allocation reported by mallinfo(arena+hblkhd)
         58798 MiB available memory on the node where the printing process lives
     GPU memory used/free/total (MiB): 1090 / 15190 / 16280
------------------
     ethr =  4.59E-07,  avg # of iterations =  1.0

     negative rho (up, down):  5.863E-04 2.306E-03

     total cpu time spent up to now is      316.5 secs

     total energy              =    -583.84440059 Ry
     estimated scf accuracy    <       0.00080084 Ry

     total magnetization       =     2.64 Bohr mag/cell
     absolute magnetization    =     2.87 Bohr mag/cell
[tb_dev] Currently allocated     1.03E+00 Mbytes, locked:    0 /   8
[tb_pin] Currently allocated     0.00E+00 Mbytes, locked:    0 /   0

     iteration # 70     ecut=    50.00 Ry     beta= 0.40
     Davidson diagonalization with overlap

---- Real-time Memory Report at c_bands before calling an iterative solver
          1103 MiB given to the printing process from OS
           921 MiB allocation reported by mallinfo(arena+hblkhd)
         58798 MiB available memory on the node where the printing process lives
     GPU memory used/free/total (MiB): 1090 / 15190 / 16280
------------------
     ethr =  4.59E-07,  avg # of iterations =  2.0

     negative rho (up, down):  5.246E-04 2.302E-03

     total cpu time spent up to now is      319.2 secs

     total energy              =    -583.84261930 Ry
     estimated scf accuracy    <       0.00053441 Ry

     total magnetization       =     2.77 Bohr mag/cell
     absolute magnetization    =     2.95 Bohr mag/cell
[tb_dev] Currently allocated     1.03E+00 Mbytes, locked:    0 /   8
[tb_pin] Currently allocated     0.00E+00 Mbytes, locked:    0 /   0

     iteration # 71     ecut=    50.00 Ry     beta= 0.40
     Davidson diagonalization with overlap

---- Real-time Memory Report at c_bands before calling an iterative solver
          1103 MiB given to the printing process from OS
           921 MiB allocation reported by mallinfo(arena+hblkhd)
         58798 MiB available memory on the node where the printing process lives
     GPU memory used/free/total (MiB): 1090 / 15190 / 16280
------------------
     ethr =  4.59E-07,  avg # of iterations =  6.0

     negative rho (up, down):  3.403E-04 2.737E-03

     total cpu time spent up to now is      324.3 secs

     total energy              =    -583.83402863 Ry
     estimated scf accuracy    <       0.00031366 Ry

     total magnetization       =     3.11 Bohr mag/cell
     absolute magnetization    =     3.24 Bohr mag/cell
[tb_dev] Currently allocated     1.03E+00 Mbytes, locked:    0 /   8
[tb_pin] Currently allocated     0.00E+00 Mbytes, locked:    0 /   0

     iteration # 72     ecut=    50.00 Ry     beta= 0.40
     Davidson diagonalization with overlap

---- Real-time Memory Report at c_bands before calling an iterative solver
          1103 MiB given to the printing process from OS
           921 MiB allocation reported by mallinfo(arena+hblkhd)
         58799 MiB available memory on the node where the printing process lives
     GPU memory used/free/total (MiB): 1090 / 15190 / 16280
------------------
     c_bands:  1 eigenvalues not converged
     c_bands:  1 eigenvalues not converged
     c_bands:  1 eigenvalues not converged
     c_bands:  1 eigenvalues not converged
     c_bands:  1 eigenvalues not converged
     c_bands:  1 eigenvalues not converged
     c_bands:  1 eigenvalues not converged
     c_bands:  1 eigenvalues not converged
     c_bands:  1 eigenvalues not converged
     c_bands:  2 eigenvalues not converged
     c_bands:  1 eigenvalues not converged
     c_bands:  1 eigenvalues not converged
     c_bands:  1 eigenvalues not converged
     c_bands:  1 eigenvalues not converged
     c_bands:  1 eigenvalues not converged
     c_bands:  1 eigenvalues not converged
     c_bands:  1 eigenvalues not converged
     ethr =  4.59E-07,  avg # of iterations = 10.6

     negative rho (up, down):  4.874E-04 2.301E-03

     total cpu time spent up to now is      332.2 secs

     total energy              =    -583.84005741 Ry
     estimated scf accuracy    <       0.00319877 Ry

     total magnetization       =     3.64 Bohr mag/cell
     absolute magnetization    =     3.76 Bohr mag/cell
[tb_dev] Currently allocated     1.03E+00 Mbytes, locked:    0 /   8
[tb_pin] Currently allocated     0.00E+00 Mbytes, locked:    0 /   0

     iteration # 73     ecut=    50.00 Ry     beta= 0.40
     Davidson diagonalization with overlap

---- Real-time Memory Report at c_bands before calling an iterative solver
          1103 MiB given to the printing process from OS
           921 MiB allocation reported by mallinfo(arena+hblkhd)
         58799 MiB available memory on the node where the printing process lives
     GPU memory used/free/total (MiB): 1090 / 15190 / 16280
------------------
     c_bands:  1 eigenvalues not converged
     c_bands:  1 eigenvalues not converged
     c_bands:  1 eigenvalues not converged
     c_bands:  1 eigenvalues not converged
     c_bands:  1 eigenvalues not converged
     ethr =  4.59E-07,  avg # of iterations =  9.0

     negative rho (up, down):  4.906E-04 2.304E-03

     total cpu time spent up to now is      339.3 secs

     total energy              =    -583.84333970 Ry
     estimated scf accuracy    <       0.00039536 Ry

     total magnetization       =     3.26 Bohr mag/cell
     absolute magnetization    =     3.38 Bohr mag/cell
[tb_dev] Currently allocated     1.03E+00 Mbytes, locked:    0 /   8
[tb_pin] Currently allocated     0.00E+00 Mbytes, locked:    0 /   0

     iteration # 74     ecut=    50.00 Ry     beta= 0.40
     Davidson diagonalization with overlap

---- Real-time Memory Report at c_bands before calling an iterative solver
          1103 MiB given to the printing process from OS
           921 MiB allocation reported by mallinfo(arena+hblkhd)
         58799 MiB available memory on the node where the printing process lives
     GPU memory used/free/total (MiB): 1090 / 15190 / 16280
------------------
     ethr =  4.59E-07,  avg # of iterations =  1.1

     negative rho (up, down):  4.968E-04 2.306E-03

     total cpu time spent up to now is      341.7 secs

     total energy              =    -583.84341239 Ry
     estimated scf accuracy    <       0.00040979 Ry

     total magnetization       =     3.24 Bohr mag/cell
     absolute magnetization    =     3.37 Bohr mag/cell
[tb_dev] Currently allocated     1.03E+00 Mbytes, locked:    0 /   8
[tb_pin] Currently allocated     0.00E+00 Mbytes, locked:    0 /   0

     iteration # 75     ecut=    50.00 Ry     beta= 0.40
     Davidson diagonalization with overlap

---- Real-time Memory Report at c_bands before calling an iterative solver
          1103 MiB given to the printing process from OS
           921 MiB allocation reported by mallinfo(arena+hblkhd)
         58799 MiB available memory on the node where the printing process lives
     GPU memory used/free/total (MiB): 1090 / 15190 / 16280
------------------
     ethr =  4.59E-07,  avg # of iterations =  1.2

     negative rho (up, down):  4.752E-04 2.308E-03

     total cpu time spent up to now is      344.1 secs

     total energy              =    -583.84308907 Ry
     estimated scf accuracy    <       0.00040696 Ry

     total magnetization       =     3.22 Bohr mag/cell
     absolute magnetization    =     3.34 Bohr mag/cell
[tb_dev] Currently allocated     1.03E+00 Mbytes, locked:    0 /   8
[tb_pin] Currently allocated     0.00E+00 Mbytes, locked:    0 /   0

     iteration # 76     ecut=    50.00 Ry     beta= 0.40
     Davidson diagonalization with overlap

---- Real-time Memory Report at c_bands before calling an iterative solver
          1103 MiB given to the printing process from OS
           921 MiB allocation reported by mallinfo(arena+hblkhd)
         58799 MiB available memory on the node where the printing process lives
     GPU memory used/free/total (MiB): 1090 / 15190 / 16280
------------------
     ethr =  4.59E-07,  avg # of iterations =  1.7

     negative rho (up, down):  4.619E-04 2.310E-03

     total cpu time spent up to now is      346.7 secs

     total energy              =    -583.84295477 Ry
     estimated scf accuracy    <       0.00041707 Ry

     total magnetization       =     3.30 Bohr mag/cell
     absolute magnetization    =     3.42 Bohr mag/cell
[tb_dev] Currently allocated     1.03E+00 Mbytes, locked:    0 /   8
[tb_pin] Currently allocated     0.00E+00 Mbytes, locked:    0 /   0

     iteration # 77     ecut=    50.00 Ry     beta= 0.40
     Davidson diagonalization with overlap

---- Real-time Memory Report at c_bands before calling an iterative solver
          1103 MiB given to the printing process from OS
           921 MiB allocation reported by mallinfo(arena+hblkhd)
         58799 MiB available memory on the node where the printing process lives
     GPU memory used/free/total (MiB): 1090 / 15190 / 16280
------------------
     ethr =  4.59E-07,  avg # of iterations =  2.8

     negative rho (up, down):  4.880E-04 2.310E-03

     total cpu time spent up to now is      349.8 secs

     total energy              =    -583.84321028 Ry
     estimated scf accuracy    <       0.00052379 Ry

     total magnetization       =     3.34 Bohr mag/cell
     absolute magnetization    =     3.46 Bohr mag/cell
[tb_dev] Currently allocated     1.03E+00 Mbytes, locked:    0 /   8
[tb_pin] Currently allocated     0.00E+00 Mbytes, locked:    0 /   0

     iteration # 78     ecut=    50.00 Ry     beta= 0.40
     Davidson diagonalization with overlap

---- Real-time Memory Report at c_bands before calling an iterative solver
          1103 MiB given to the printing process from OS
           921 MiB allocation reported by mallinfo(arena+hblkhd)
         58798 MiB available memory on the node where the printing process lives
     GPU memory used/free/total (MiB): 1090 / 15190 / 16280
------------------
     ethr =  4.59E-07,  avg # of iterations =  2.7

     negative rho (up, down):  5.891E-04 2.311E-03

     total cpu time spent up to now is      352.9 secs

     total energy              =    -583.84230184 Ry
     estimated scf accuracy    <       0.00045336 Ry

     total magnetization       =     3.25 Bohr mag/cell
     absolute magnetization    =     3.38 Bohr mag/cell
[tb_dev] Currently allocated     1.03E+00 Mbytes, locked:    0 /   8
[tb_pin] Currently allocated     0.00E+00 Mbytes, locked:    0 /   0

     iteration # 79     ecut=    50.00 Ry     beta= 0.40
     Davidson diagonalization with overlap

---- Real-time Memory Report at c_bands before calling an iterative solver
          1103 MiB given to the printing process from OS
           921 MiB allocation reported by mallinfo(arena+hblkhd)
         58799 MiB available memory on the node where the printing process lives
     GPU memory used/free/total (MiB): 1090 / 15190 / 16280
------------------
     c_bands:  1 eigenvalues not converged
     ethr =  4.59E-07,  avg # of iterations =  8.7

     negative rho (up, down):  5.022E-04 2.313E-03

     total cpu time spent up to now is      359.8 secs

     total energy              =    -583.84167064 Ry
     estimated scf accuracy    <       0.00065350 Ry

     total magnetization       =     2.76 Bohr mag/cell
     absolute magnetization    =     2.94 Bohr mag/cell
[tb_dev] Currently allocated     1.03E+00 Mbytes, locked:    0 /   8
[tb_pin] Currently allocated     0.00E+00 Mbytes, locked:    0 /   0

     iteration # 80     ecut=    50.00 Ry     beta= 0.40
     Davidson diagonalization with overlap

---- Real-time Memory Report at c_bands before calling an iterative solver
          1103 MiB given to the printing process from OS
           921 MiB allocation reported by mallinfo(arena+hblkhd)
         58799 MiB available memory on the node where the printing process lives
     GPU memory used/free/total (MiB): 1090 / 15190 / 16280
------------------
     ethr =  4.59E-07,  avg # of iterations =  6.8

     negative rho (up, down):  4.189E-04 2.337E-03

     total cpu time spent up to now is      365.4 secs

     total energy              =    -583.84110761 Ry
     estimated scf accuracy    <       0.00038950 Ry

     total magnetization       =     3.19 Bohr mag/cell
     absolute magnetization    =     3.32 Bohr mag/cell

     End of self-consistent calculation

     convergence NOT achieved after  80 iterations: stopping

     Writing config to output data dir ./out/aiida.save/
 
     init_run     :     11.38s CPU      3.95s WALL (       1 calls)
     electrons    :    496.86s CPU    360.29s WALL (       1 calls)

     Called by init_run:
     wfcinit      :      1.34s CPU      2.10s WALL (       1 calls)
                                        2.10s GPU  (       1 calls)
     wfcinit:atom :      0.04s CPU      0.05s WALL (     144 calls)
                                        0.05s GPU  (     144 calls)
     wfcinit:wfcr :      0.89s CPU      1.51s WALL (     144 calls)
                                        1.51s GPU  (     144 calls)
     potinit      :      0.51s CPU      0.05s WALL (       1 calls)
     hinit0       :      7.25s CPU      1.25s WALL (       1 calls)

     Called by electrons:
     c_bands      :    415.05s CPU    319.21s WALL (      80 calls)
     sum_band     :     30.34s CPU     36.25s WALL (      80 calls)
     v_of_rho     :      9.29s CPU      0.83s WALL (      81 calls)
     v_h          :      1.52s CPU      0.13s WALL (      81 calls)
     v_xc         :      7.76s CPU      0.69s WALL (      81 calls)
     newd         :     27.87s CPU      2.85s WALL (      81 calls)
                                        2.84s GPU  (      81 calls)
     mix_rho      :     10.87s CPU      1.06s WALL (      80 calls)

     Called by c_bands:
     init_us_2    :     30.14s CPU     26.56s WALL (   23184 calls)
     init_us_2:gp :     29.65s CPU     26.17s WALL (   23184 calls)
     cegterg      :    374.94s CPU    292.39s WALL (   11520 calls)

     Called by sum_band:
     sum_band:wei :      0.36s CPU      0.37s WALL (      80 calls)
                                        0.37s GPU  (      80 calls)
     sum_band:loo :     26.25s CPU     31.85s WALL (      80 calls)
                                       31.85s GPU  (      80 calls)
     sum_band:buf :      3.74s CPU      4.50s WALL (   11520 calls)
                                        4.43s GPU  (   11520 calls)
     sum_band:ini :     10.25s CPU     13.09s WALL (   11520 calls)
                                       13.02s GPU  (   11520 calls)
     sum_band:cal :      0.36s CPU      0.84s WALL (   11520 calls)
                                        0.76s GPU  (   11520 calls)
     sum_band:bec :      2.12s CPU      2.63s WALL (   11520 calls)
                                        2.56s GPU  (   11520 calls)
     addusdens    :      3.15s CPU      3.43s WALL (      80 calls)
                                        3.43s GPU  (      80 calls)
     addusd:skk   :      0.01s CPU      0.02s WALL (     320 calls)
                                        0.01s GPU  (     320 calls)

     Called by *egterg:
     cdiaghg      :    199.00s CPU    162.62s WALL (   67828 calls)
                                      162.17s GPU  (   67828 calls)
     cegterg:over :      8.51s CPU      6.87s WALL (   56308 calls)
     cegterg:upda :     17.62s CPU     13.64s WALL (   56308 calls)
     cegterg:last :      3.31s CPU      2.62s WALL (   27044 calls)
     h_psi        :    112.51s CPU     83.03s WALL (   67972 calls)
                                       82.66s GPU  (   67972 calls)
     s_psi        :      7.48s CPU      8.22s WALL (   67972 calls)
                                        7.72s GPU  (   67972 calls)
     g_psi        :      0.53s CPU      1.17s WALL (   56308 calls)
                                        0.81s GPU  (   56308 calls)

     Called by h_psi:
     h_psi:calbec :      2.91s CPU      5.59s WALL (   67972 calls)
                                        5.18s GPU  (   67972 calls)
     vloc_psi     :     87.76s CPU     64.18s WALL (   67972 calls)
                                       63.78s GPU  (   67972 calls)
     add_vuspsi   :      9.65s CPU      9.08s WALL (   67972 calls)
                                        8.68s GPU  (   67972 calls)

     General routines
     calbec       :      2.47s CPU      2.00s WALL (   79492 calls)
     fft          :      3.18s CPU      0.37s WALL (    2023 calls)
                                        0.24s GPU  (    1861 calls)
     ffts         :      0.93s CPU      0.10s WALL (     322 calls)
                                        0.01s GPU  (     160 calls)
     fftw         :      5.49s CPU     40.21s WALL (  211522 calls)
                                       39.01s GPU  (  211522 calls)
     interpolate  :      3.24s CPU      0.29s WALL (     162 calls)
     davcio       :      1.19s CPU      0.12s WALL (     162 calls)
 
     Parallel routines
 
     PWSCF        :   8m32.85s CPU   6m 5.61s WALL

 
   This run was terminated on:  18: 3:39  23Oct2023            

=------------------------------------------------------------------------------=
   JOB DONE.
=------------------------------------------------------------------------------=
