
     Program PWSCF v.7.2 starts on 23Oct2023 at 20:18:11 

     This program is part of the open-source Quantum ESPRESSO suite
     for quantum simulation of materials; please cite
         "P. Giannozzi et al., J. Phys.:Condens. Matter 21 395502 (2009);
         "P. Giannozzi et al., J. Phys.:Condens. Matter 29 465901 (2017);
         "P. Giannozzi et al., J. Chem. Phys. 152 154105 (2020);
          URL http://www.quantum-espresso.org", 
     in publications or presentations arising from this work. More details at
     http://www.quantum-espresso.org/quote

     Parallel version (MPI & OpenMP), running on      12 processor cores
     Number of MPI processes:                 1
     Threads/MPI process:                    12

     MPI processes distributed on     1 nodes
     60288 MiB available memory on the printing compute node when the environment starts
 
     Reading input from aiida.in

     Current dimensions of program PWSCF are:
     Max number of different atomic species (ntypx) = 10
     Max number of k-points (npk) =  40000
     Max angular momentum in pseudopotentials (lmaxx) =  4
     Message from routine setup:
     using ibrav=0 with symmetry is DISCOURAGED, use correct ibrav instead
 
     Subspace diagonalization in iterative solution of the eigenvalue problem:
     a serial algorithm will be used

 
     G-vector sticks info
     --------------------
     sticks:   dense  smooth     PW     G-vecs:    dense   smooth      PW
     Sum        1361     673    213                37705    13301    2325
 
     Using Slab Decomposition
 


     bravais-lattice index     =            0
     lattice parameter (alat)  =       6.8918  a.u.
     unit-cell volume          =     327.3436 (a.u.)^3
     number of atoms/cell      =            4
     number of atomic types    =            2
     number of electrons       =        64.00
     number of Kohn-Sham states=           38
     kinetic-energy cutoff     =      45.0000  Ry
     charge density cutoff     =     360.0000  Ry
     scf convergence threshold =      8.0E-10
     mixing beta               =       0.2000
     number of iterations used =            8  plain     mixing
     Exchange-correlation= SLA  PW   PSX  PSC
                           (   1   4  10   8   0   0   0)

     GPU acceleration is ACTIVE.


     GPU used by master process:

        Device Number: 0
        Device name: Tesla P100-PCIE-16GB
        Compute capability : 60
        Ratio of single to double precision performance  : 2
        Memory Clock Rate (KHz): 715000
        Memory Bus Width (bits): 4096
        Peak Memory Bandwidth (GB/s): 732.16

     celldm(1)=   6.891831  celldm(2)=   0.000000  celldm(3)=   0.000000
     celldm(4)=   0.000000  celldm(5)=   0.000000  celldm(6)=   0.000000

     crystal axes: (cart. coord. in units of alat)
               a(1) = (   1.000000   0.000000   0.000000 )  
               a(2) = (   0.000000   1.000000   0.000000 )  
               a(3) = (   0.000000   0.000000   1.000000 )  

     reciprocal axes: (cart. coord. in units 2 pi/alat)
               b(1) = (  1.000000  0.000000  0.000000 )  
               b(2) = (  0.000000  1.000000  0.000000 )  
               b(3) = (  0.000000  0.000000  1.000000 )  


     PseudoPot. # 1 for Co read from file:
     ./pseudo/co_pbesol_v1.2.uspp.F.UPF
     MD5 check sum: 3b4cd4e7cc7df4da9fdede0fd33e2193
     Pseudo is Ultrasoft + core correction, Zval = 17.0
     Generated by new atomic code, or converted to UPF format
     Using radial grid of  863 points,  6 beta functions with: 
                l(1) =   0
                l(2) =   0
                l(3) =   1
                l(4) =   1
                l(5) =   2
                l(6) =   2
     Q(r) pseudized with  8 coefficients,  rinner =    1.200   1.200   1.200
                                                       1.200   1.200

     PseudoPot. # 2 for Ta read from file:
     ./pseudo/ta_pbesol_v1.uspp.F.UPF
     MD5 check sum: 5dd23d6859724cbb2c0d9b6294d5f84c
     Pseudo is Ultrasoft + core correction, Zval = 13.0
     Generated by new atomic code, or converted to UPF format
     Using radial grid of  921 points,  7 beta functions with: 
                l(1) =   0
                l(2) =   0
                l(3) =   1
                l(4) =   1
                l(5) =   2
                l(6) =   2
                l(7) =   3
     Q(r) pseudized with  6 coefficients,  rinner =    1.300   1.300   1.300
                                                       1.300   1.300   1.300
                                                       1.300

     atomic species   valence    mass     pseudopotential
        Co            17.00    58.93319     Co( 1.00)
        Ta            13.00   180.94788     Ta( 1.00)

     Starting magnetic structure 
     atomic species   magnetization
        Co           0.294
        Ta           0.385

     48 Sym. Ops., with inversion, found


                                    s                        frac. trans.

      isym =  1     identity                                     

 cryst.   s( 1) = (     1          0          0      )
                  (     0          1          0      )
                  (     0          0          1      )

 cart.    s( 1) = (  1.0000000  0.0000000  0.0000000 )
                  (  0.0000000  1.0000000  0.0000000 )
                  (  0.0000000  0.0000000  1.0000000 )


      isym =  2     180 deg rotation - cart. axis [0,0,1]        

 cryst.   s( 2) = (    -1          0          0      )
                  (     0         -1          0      )
                  (     0          0          1      )

 cart.    s( 2) = ( -1.0000000  0.0000000  0.0000000 )
                  (  0.0000000 -1.0000000  0.0000000 )
                  (  0.0000000  0.0000000  1.0000000 )


      isym =  3     180 deg rotation - cart. axis [0,1,0]        

 cryst.   s( 3) = (    -1          0          0      )
                  (     0          1          0      )
                  (     0          0         -1      )

 cart.    s( 3) = ( -1.0000000  0.0000000  0.0000000 )
                  (  0.0000000  1.0000000  0.0000000 )
                  (  0.0000000  0.0000000 -1.0000000 )


      isym =  4     180 deg rotation - cart. axis [1,0,0]        

 cryst.   s( 4) = (     1          0          0      )
                  (     0         -1          0      )
                  (     0          0         -1      )

 cart.    s( 4) = (  1.0000000  0.0000000  0.0000000 )
                  (  0.0000000 -1.0000000  0.0000000 )
                  (  0.0000000  0.0000000 -1.0000000 )


      isym =  5     180 deg rotation - cart. axis [1,1,0]        

 cryst.   s( 5) = (     0          1          0      )
                  (     1          0          0      )
                  (     0          0         -1      )

 cart.    s( 5) = (  0.0000000  1.0000000  0.0000000 )
                  (  1.0000000  0.0000000  0.0000000 )
                  (  0.0000000  0.0000000 -1.0000000 )


      isym =  6     180 deg rotation - cart. axis [1,-1,0]       

 cryst.   s( 6) = (     0         -1          0      )
                  (    -1          0          0      )
                  (     0          0         -1      )

 cart.    s( 6) = (  0.0000000 -1.0000000  0.0000000 )
                  ( -1.0000000  0.0000000  0.0000000 )
                  (  0.0000000  0.0000000 -1.0000000 )


      isym =  7      90 deg rotation - cart. axis [0,0,-1]       

 cryst.   s( 7) = (     0         -1          0      )
                  (     1          0          0      )
                  (     0          0          1      )

 cart.    s( 7) = (  0.0000000  1.0000000  0.0000000 )
                  ( -1.0000000  0.0000000  0.0000000 )
                  (  0.0000000  0.0000000  1.0000000 )


      isym =  8      90 deg rotation - cart. axis [0,0,1]        

 cryst.   s( 8) = (     0          1          0      )
                  (    -1          0          0      )
                  (     0          0          1      )

 cart.    s( 8) = (  0.0000000 -1.0000000  0.0000000 )
                  (  1.0000000  0.0000000  0.0000000 )
                  (  0.0000000  0.0000000  1.0000000 )


      isym =  9     180 deg rotation - cart. axis [1,0,1]        

 cryst.   s( 9) = (     0          0          1      )
                  (     0         -1          0      )
                  (     1          0          0      )

 cart.    s( 9) = (  0.0000000  0.0000000  1.0000000 )
                  (  0.0000000 -1.0000000  0.0000000 )
                  (  1.0000000  0.0000000  0.0000000 )


      isym = 10     180 deg rotation - cart. axis [-1,0,1]       

 cryst.   s(10) = (     0          0         -1      )
                  (     0         -1          0      )
                  (    -1          0          0      )

 cart.    s(10) = (  0.0000000  0.0000000 -1.0000000 )
                  (  0.0000000 -1.0000000  0.0000000 )
                  ( -1.0000000  0.0000000  0.0000000 )


      isym = 11      90 deg rotation - cart. axis [0,1,0]        

 cryst.   s(11) = (     0          0         -1      )
                  (     0          1          0      )
                  (     1          0          0      )

 cart.    s(11) = (  0.0000000  0.0000000  1.0000000 )
                  (  0.0000000  1.0000000  0.0000000 )
                  ( -1.0000000  0.0000000  0.0000000 )


      isym = 12      90 deg rotation - cart. axis [0,-1,0]       

 cryst.   s(12) = (     0          0          1      )
                  (     0          1          0      )
                  (    -1          0          0      )

 cart.    s(12) = (  0.0000000  0.0000000 -1.0000000 )
                  (  0.0000000  1.0000000  0.0000000 )
                  (  1.0000000  0.0000000  0.0000000 )


      isym = 13     180 deg rotation - cart. axis [0,1,1]        

 cryst.   s(13) = (    -1          0          0      )
                  (     0          0          1      )
                  (     0          1          0      )

 cart.    s(13) = ( -1.0000000  0.0000000  0.0000000 )
                  (  0.0000000  0.0000000  1.0000000 )
                  (  0.0000000  1.0000000  0.0000000 )


      isym = 14     180 deg rotation - cart. axis [0,1,-1]       

 cryst.   s(14) = (    -1          0          0      )
                  (     0          0         -1      )
                  (     0         -1          0      )

 cart.    s(14) = ( -1.0000000  0.0000000  0.0000000 )
                  (  0.0000000  0.0000000 -1.0000000 )
                  (  0.0000000 -1.0000000  0.0000000 )


      isym = 15      90 deg rotation - cart. axis [-1,0,0]       

 cryst.   s(15) = (     1          0          0      )
                  (     0          0         -1      )
                  (     0          1          0      )

 cart.    s(15) = (  1.0000000  0.0000000  0.0000000 )
                  (  0.0000000  0.0000000  1.0000000 )
                  (  0.0000000 -1.0000000  0.0000000 )


      isym = 16      90 deg rotation - cart. axis [1,0,0]        

 cryst.   s(16) = (     1          0          0      )
                  (     0          0          1      )
                  (     0         -1          0      )

 cart.    s(16) = (  1.0000000  0.0000000  0.0000000 )
                  (  0.0000000  0.0000000 -1.0000000 )
                  (  0.0000000  1.0000000  0.0000000 )


      isym = 17     120 deg rotation - cart. axis [-1,-1,-1]     

 cryst.   s(17) = (     0          0          1      )
                  (     1          0          0      )
                  (     0          1          0      )

 cart.    s(17) = (  0.0000000  1.0000000  0.0000000 )
                  (  0.0000000  0.0000000  1.0000000 )
                  (  1.0000000  0.0000000  0.0000000 )


      isym = 18     120 deg rotation - cart. axis [-1,1,1]       

 cryst.   s(18) = (     0          0         -1      )
                  (    -1          0          0      )
                  (     0          1          0      )

 cart.    s(18) = (  0.0000000 -1.0000000  0.0000000 )
                  (  0.0000000  0.0000000  1.0000000 )
                  ( -1.0000000  0.0000000  0.0000000 )


      isym = 19     120 deg rotation - cart. axis [1,1,-1]       

 cryst.   s(19) = (     0          0         -1      )
                  (     1          0          0      )
                  (     0         -1          0      )

 cart.    s(19) = (  0.0000000  1.0000000  0.0000000 )
                  (  0.0000000  0.0000000 -1.0000000 )
                  ( -1.0000000  0.0000000  0.0000000 )


      isym = 20     120 deg rotation - cart. axis [1,-1,1]       

 cryst.   s(20) = (     0          0          1      )
                  (    -1          0          0      )
                  (     0         -1          0      )

 cart.    s(20) = (  0.0000000 -1.0000000  0.0000000 )
                  (  0.0000000  0.0000000 -1.0000000 )
                  (  1.0000000  0.0000000  0.0000000 )


      isym = 21     120 deg rotation - cart. axis [1,1,1]        

 cryst.   s(21) = (     0          1          0      )
                  (     0          0          1      )
                  (     1          0          0      )

 cart.    s(21) = (  0.0000000  0.0000000  1.0000000 )
                  (  1.0000000  0.0000000  0.0000000 )
                  (  0.0000000  1.0000000  0.0000000 )


      isym = 22     120 deg rotation - cart. axis [-1,1,-1]      

 cryst.   s(22) = (     0         -1          0      )
                  (     0          0         -1      )
                  (     1          0          0      )

 cart.    s(22) = (  0.0000000  0.0000000  1.0000000 )
                  ( -1.0000000  0.0000000  0.0000000 )
                  (  0.0000000 -1.0000000  0.0000000 )


      isym = 23     120 deg rotation - cart. axis [1,-1,-1]      

 cryst.   s(23) = (     0         -1          0      )
                  (     0          0          1      )
                  (    -1          0          0      )

 cart.    s(23) = (  0.0000000  0.0000000 -1.0000000 )
                  ( -1.0000000  0.0000000  0.0000000 )
                  (  0.0000000  1.0000000  0.0000000 )


      isym = 24     120 deg rotation - cart. axis [-1,-1,1]      

 cryst.   s(24) = (     0          1          0      )
                  (     0          0         -1      )
                  (    -1          0          0      )

 cart.    s(24) = (  0.0000000  0.0000000 -1.0000000 )
                  (  1.0000000  0.0000000  0.0000000 )
                  (  0.0000000 -1.0000000  0.0000000 )


      isym = 25     inversion                                    

 cryst.   s(25) = (    -1          0          0      )
                  (     0         -1          0      )
                  (     0          0         -1      )

 cart.    s(25) = ( -1.0000000  0.0000000  0.0000000 )
                  (  0.0000000 -1.0000000  0.0000000 )
                  (  0.0000000  0.0000000 -1.0000000 )


      isym = 26     inv. 180 deg rotation - cart. axis [0,0,1]   

 cryst.   s(26) = (     1          0          0      )
                  (     0          1          0      )
                  (     0          0         -1      )

 cart.    s(26) = (  1.0000000  0.0000000  0.0000000 )
                  (  0.0000000  1.0000000  0.0000000 )
                  (  0.0000000  0.0000000 -1.0000000 )


      isym = 27     inv. 180 deg rotation - cart. axis [0,1,0]   

 cryst.   s(27) = (     1          0          0      )
                  (     0         -1          0      )
                  (     0          0          1      )

 cart.    s(27) = (  1.0000000  0.0000000  0.0000000 )
                  (  0.0000000 -1.0000000  0.0000000 )
                  (  0.0000000  0.0000000  1.0000000 )


      isym = 28     inv. 180 deg rotation - cart. axis [1,0,0]   

 cryst.   s(28) = (    -1          0          0      )
                  (     0          1          0      )
                  (     0          0          1      )

 cart.    s(28) = ( -1.0000000  0.0000000  0.0000000 )
                  (  0.0000000  1.0000000  0.0000000 )
                  (  0.0000000  0.0000000  1.0000000 )


      isym = 29     inv. 180 deg rotation - cart. axis [1,1,0]   

 cryst.   s(29) = (     0         -1          0      )
                  (    -1          0          0      )
                  (     0          0          1      )

 cart.    s(29) = (  0.0000000 -1.0000000  0.0000000 )
                  ( -1.0000000  0.0000000  0.0000000 )
                  (  0.0000000  0.0000000  1.0000000 )


      isym = 30     inv. 180 deg rotation - cart. axis [1,-1,0]  

 cryst.   s(30) = (     0          1          0      )
                  (     1          0          0      )
                  (     0          0          1      )

 cart.    s(30) = (  0.0000000  1.0000000  0.0000000 )
                  (  1.0000000  0.0000000  0.0000000 )
                  (  0.0000000  0.0000000  1.0000000 )


      isym = 31     inv.  90 deg rotation - cart. axis [0,0,-1]  

 cryst.   s(31) = (     0          1          0      )
                  (    -1          0          0      )
                  (     0          0         -1      )

 cart.    s(31) = (  0.0000000 -1.0000000  0.0000000 )
                  (  1.0000000  0.0000000  0.0000000 )
                  (  0.0000000  0.0000000 -1.0000000 )


      isym = 32     inv.  90 deg rotation - cart. axis [0,0,1]   

 cryst.   s(32) = (     0         -1          0      )
                  (     1          0          0      )
                  (     0          0         -1      )

 cart.    s(32) = (  0.0000000  1.0000000  0.0000000 )
                  ( -1.0000000  0.0000000  0.0000000 )
                  (  0.0000000  0.0000000 -1.0000000 )


      isym = 33     inv. 180 deg rotation - cart. axis [1,0,1]   

 cryst.   s(33) = (     0          0         -1      )
                  (     0          1          0      )
                  (    -1          0          0      )

 cart.    s(33) = (  0.0000000  0.0000000 -1.0000000 )
                  (  0.0000000  1.0000000  0.0000000 )
                  ( -1.0000000  0.0000000  0.0000000 )


      isym = 34     inv. 180 deg rotation - cart. axis [-1,0,1]  

 cryst.   s(34) = (     0          0          1      )
                  (     0          1          0      )
                  (     1          0          0      )

 cart.    s(34) = (  0.0000000  0.0000000  1.0000000 )
                  (  0.0000000  1.0000000  0.0000000 )
                  (  1.0000000  0.0000000  0.0000000 )


      isym = 35     inv.  90 deg rotation - cart. axis [0,1,0]   

 cryst.   s(35) = (     0          0          1      )
                  (     0         -1          0      )
                  (    -1          0          0      )

 cart.    s(35) = (  0.0000000  0.0000000 -1.0000000 )
                  (  0.0000000 -1.0000000  0.0000000 )
                  (  1.0000000  0.0000000  0.0000000 )


      isym = 36     inv.  90 deg rotation - cart. axis [0,-1,0]  

 cryst.   s(36) = (     0          0         -1      )
                  (     0         -1          0      )
                  (     1          0          0      )

 cart.    s(36) = (  0.0000000  0.0000000  1.0000000 )
                  (  0.0000000 -1.0000000  0.0000000 )
                  ( -1.0000000  0.0000000  0.0000000 )


      isym = 37     inv. 180 deg rotation - cart. axis [0,1,1]   

 cryst.   s(37) = (     1          0          0      )
                  (     0          0         -1      )
                  (     0         -1          0      )

 cart.    s(37) = (  1.0000000  0.0000000  0.0000000 )
                  (  0.0000000  0.0000000 -1.0000000 )
                  (  0.0000000 -1.0000000  0.0000000 )


      isym = 38     inv. 180 deg rotation - cart. axis [0,1,-1]  

 cryst.   s(38) = (     1          0          0      )
                  (     0          0          1      )
                  (     0          1          0      )

 cart.    s(38) = (  1.0000000  0.0000000  0.0000000 )
                  (  0.0000000  0.0000000  1.0000000 )
                  (  0.0000000  1.0000000  0.0000000 )


      isym = 39     inv.  90 deg rotation - cart. axis [-1,0,0]  

 cryst.   s(39) = (    -1          0          0      )
                  (     0          0          1      )
                  (     0         -1          0      )

 cart.    s(39) = ( -1.0000000  0.0000000  0.0000000 )
                  (  0.0000000  0.0000000 -1.0000000 )
                  (  0.0000000  1.0000000  0.0000000 )


      isym = 40     inv.  90 deg rotation - cart. axis [1,0,0]   

 cryst.   s(40) = (    -1          0          0      )
                  (     0          0         -1      )
                  (     0          1          0      )

 cart.    s(40) = ( -1.0000000  0.0000000  0.0000000 )
                  (  0.0000000  0.0000000  1.0000000 )
                  (  0.0000000 -1.0000000  0.0000000 )


      isym = 41     inv. 120 deg rotation - cart. axis [-1,-1,-1]

 cryst.   s(41) = (     0          0         -1      )
                  (    -1          0          0      )
                  (     0         -1          0      )

 cart.    s(41) = (  0.0000000 -1.0000000  0.0000000 )
                  (  0.0000000  0.0000000 -1.0000000 )
                  ( -1.0000000  0.0000000  0.0000000 )


      isym = 42     inv. 120 deg rotation - cart. axis [-1,1,1]  

 cryst.   s(42) = (     0          0          1      )
                  (     1          0          0      )
                  (     0         -1          0      )

 cart.    s(42) = (  0.0000000  1.0000000  0.0000000 )
                  (  0.0000000  0.0000000 -1.0000000 )
                  (  1.0000000  0.0000000  0.0000000 )


      isym = 43     inv. 120 deg rotation - cart. axis [1,1,-1]  

 cryst.   s(43) = (     0          0          1      )
                  (    -1          0          0      )
                  (     0          1          0      )

 cart.    s(43) = (  0.0000000 -1.0000000  0.0000000 )
                  (  0.0000000  0.0000000  1.0000000 )
                  (  1.0000000  0.0000000  0.0000000 )


      isym = 44     inv. 120 deg rotation - cart. axis [1,-1,1]  

 cryst.   s(44) = (     0          0         -1      )
                  (     1          0          0      )
                  (     0          1          0      )

 cart.    s(44) = (  0.0000000  1.0000000  0.0000000 )
                  (  0.0000000  0.0000000  1.0000000 )
                  ( -1.0000000  0.0000000  0.0000000 )


      isym = 45     inv. 120 deg rotation - cart. axis [1,1,1]   

 cryst.   s(45) = (     0         -1          0      )
                  (     0          0         -1      )
                  (    -1          0          0      )

 cart.    s(45) = (  0.0000000  0.0000000 -1.0000000 )
                  ( -1.0000000  0.0000000  0.0000000 )
                  (  0.0000000 -1.0000000  0.0000000 )


      isym = 46     inv. 120 deg rotation - cart. axis [-1,1,-1] 

 cryst.   s(46) = (     0          1          0      )
                  (     0          0          1      )
                  (    -1          0          0      )

 cart.    s(46) = (  0.0000000  0.0000000 -1.0000000 )
                  (  1.0000000  0.0000000  0.0000000 )
                  (  0.0000000  1.0000000  0.0000000 )


      isym = 47     inv. 120 deg rotation - cart. axis [1,-1,-1] 

 cryst.   s(47) = (     0          1          0      )
                  (     0          0         -1      )
                  (     1          0          0      )

 cart.    s(47) = (  0.0000000  0.0000000  1.0000000 )
                  (  1.0000000  0.0000000  0.0000000 )
                  (  0.0000000 -1.0000000  0.0000000 )


      isym = 48     inv. 120 deg rotation - cart. axis [-1,-1,1] 

 cryst.   s(48) = (     0         -1          0      )
                  (     0          0          1      )
                  (     1          0          0      )

 cart.    s(48) = (  0.0000000  0.0000000  1.0000000 )
                  ( -1.0000000  0.0000000  0.0000000 )
                  (  0.0000000  1.0000000  0.0000000 )


   Cartesian axes

     site n.     atom                  positions (alat units)
         1           Ta  tau(   1) = (   0.0000000   0.0000000   0.0000000  )
         2           Co  tau(   2) = (   0.0000000   0.5000000   0.5000000  )
         3           Co  tau(   3) = (   0.5000000   0.0000000   0.5000000  )
         4           Co  tau(   4) = (   0.5000000   0.5000000   0.0000000  )

   Crystallographic axes

     site n.     atom                  positions (cryst. coord.)
         1           Ta  tau(   1) = (  0.0000000  0.0000000  0.0000000  )
         2           Co  tau(   2) = (  0.0000000  0.5000000  0.5000000  )
         3           Co  tau(   3) = (  0.5000000  0.0000000  0.5000000  )
         4           Co  tau(   4) = (  0.5000000  0.5000000  0.0000000  )

     number of k points=    84  Marzari-Vanderbilt smearing, width (Ry)=  0.0100
                       cart. coord. in units 2pi/alat
        k(    1) = (   0.0000000   0.0000000   0.0000000), wk =   0.0005787
        k(    2) = (   0.0000000   0.0000000   0.0833333), wk =   0.0034722
        k(    3) = (   0.0000000   0.0000000   0.1666667), wk =   0.0034722
        k(    4) = (   0.0000000   0.0000000   0.2500000), wk =   0.0034722
        k(    5) = (   0.0000000   0.0000000   0.3333333), wk =   0.0034722
        k(    6) = (   0.0000000   0.0000000   0.4166667), wk =   0.0034722
        k(    7) = (   0.0000000   0.0000000  -0.5000000), wk =   0.0017361
        k(    8) = (   0.0000000   0.0833333   0.0833333), wk =   0.0069444
        k(    9) = (   0.0000000   0.0833333   0.1666667), wk =   0.0138889
        k(   10) = (   0.0000000   0.0833333   0.2500000), wk =   0.0138889
        k(   11) = (   0.0000000   0.0833333   0.3333333), wk =   0.0138889
        k(   12) = (   0.0000000   0.0833333   0.4166667), wk =   0.0138889
        k(   13) = (   0.0000000   0.0833333  -0.5000000), wk =   0.0069444
        k(   14) = (   0.0000000   0.1666667   0.1666667), wk =   0.0069444
        k(   15) = (   0.0000000   0.1666667   0.2500000), wk =   0.0138889
        k(   16) = (   0.0000000   0.1666667   0.3333333), wk =   0.0138889
        k(   17) = (   0.0000000   0.1666667   0.4166667), wk =   0.0138889
        k(   18) = (   0.0000000   0.1666667  -0.5000000), wk =   0.0069444
        k(   19) = (   0.0000000   0.2500000   0.2500000), wk =   0.0069444
        k(   20) = (   0.0000000   0.2500000   0.3333333), wk =   0.0138889
        k(   21) = (   0.0000000   0.2500000   0.4166667), wk =   0.0138889
        k(   22) = (   0.0000000   0.2500000  -0.5000000), wk =   0.0069444
        k(   23) = (   0.0000000   0.3333333   0.3333333), wk =   0.0069444
        k(   24) = (   0.0000000   0.3333333   0.4166667), wk =   0.0138889
        k(   25) = (   0.0000000   0.3333333  -0.5000000), wk =   0.0069444
        k(   26) = (   0.0000000   0.4166667   0.4166667), wk =   0.0069444
        k(   27) = (   0.0000000   0.4166667  -0.5000000), wk =   0.0069444
        k(   28) = (   0.0000000  -0.5000000  -0.5000000), wk =   0.0017361
        k(   29) = (   0.0833333   0.0833333   0.0833333), wk =   0.0046296
        k(   30) = (   0.0833333   0.0833333   0.1666667), wk =   0.0138889
        k(   31) = (   0.0833333   0.0833333   0.2500000), wk =   0.0138889
        k(   32) = (   0.0833333   0.0833333   0.3333333), wk =   0.0138889
        k(   33) = (   0.0833333   0.0833333   0.4166667), wk =   0.0138889
        k(   34) = (   0.0833333   0.0833333  -0.5000000), wk =   0.0069444
        k(   35) = (   0.0833333   0.1666667   0.1666667), wk =   0.0138889
        k(   36) = (   0.0833333   0.1666667   0.2500000), wk =   0.0277778
        k(   37) = (   0.0833333   0.1666667   0.3333333), wk =   0.0277778
        k(   38) = (   0.0833333   0.1666667   0.4166667), wk =   0.0277778
        k(   39) = (   0.0833333   0.1666667  -0.5000000), wk =   0.0138889
        k(   40) = (   0.0833333   0.2500000   0.2500000), wk =   0.0138889
        k(   41) = (   0.0833333   0.2500000   0.3333333), wk =   0.0277778
        k(   42) = (   0.0833333   0.2500000   0.4166667), wk =   0.0277778
        k(   43) = (   0.0833333   0.2500000  -0.5000000), wk =   0.0138889
        k(   44) = (   0.0833333   0.3333333   0.3333333), wk =   0.0138889
        k(   45) = (   0.0833333   0.3333333   0.4166667), wk =   0.0277778
        k(   46) = (   0.0833333   0.3333333  -0.5000000), wk =   0.0138889
        k(   47) = (   0.0833333   0.4166667   0.4166667), wk =   0.0138889
        k(   48) = (   0.0833333   0.4166667  -0.5000000), wk =   0.0138889
        k(   49) = (   0.0833333  -0.5000000  -0.5000000), wk =   0.0034722
        k(   50) = (   0.1666667   0.1666667   0.1666667), wk =   0.0046296
        k(   51) = (   0.1666667   0.1666667   0.2500000), wk =   0.0138889
        k(   52) = (   0.1666667   0.1666667   0.3333333), wk =   0.0138889
        k(   53) = (   0.1666667   0.1666667   0.4166667), wk =   0.0138889
        k(   54) = (   0.1666667   0.1666667  -0.5000000), wk =   0.0069444
        k(   55) = (   0.1666667   0.2500000   0.2500000), wk =   0.0138889
        k(   56) = (   0.1666667   0.2500000   0.3333333), wk =   0.0277778
        k(   57) = (   0.1666667   0.2500000   0.4166667), wk =   0.0277778
        k(   58) = (   0.1666667   0.2500000  -0.5000000), wk =   0.0138889
        k(   59) = (   0.1666667   0.3333333   0.3333333), wk =   0.0138889
        k(   60) = (   0.1666667   0.3333333   0.4166667), wk =   0.0277778
        k(   61) = (   0.1666667   0.3333333  -0.5000000), wk =   0.0138889
        k(   62) = (   0.1666667   0.4166667   0.4166667), wk =   0.0138889
        k(   63) = (   0.1666667   0.4166667  -0.5000000), wk =   0.0138889
        k(   64) = (   0.1666667  -0.5000000  -0.5000000), wk =   0.0034722
        k(   65) = (   0.2500000   0.2500000   0.2500000), wk =   0.0046296
        k(   66) = (   0.2500000   0.2500000   0.3333333), wk =   0.0138889
        k(   67) = (   0.2500000   0.2500000   0.4166667), wk =   0.0138889
        k(   68) = (   0.2500000   0.2500000  -0.5000000), wk =   0.0069444
        k(   69) = (   0.2500000   0.3333333   0.3333333), wk =   0.0138889
        k(   70) = (   0.2500000   0.3333333   0.4166667), wk =   0.0277778
        k(   71) = (   0.2500000   0.3333333  -0.5000000), wk =   0.0138889
        k(   72) = (   0.2500000   0.4166667   0.4166667), wk =   0.0138889
        k(   73) = (   0.2500000   0.4166667  -0.5000000), wk =   0.0138889
        k(   74) = (   0.2500000  -0.5000000  -0.5000000), wk =   0.0034722
        k(   75) = (   0.3333333   0.3333333   0.3333333), wk =   0.0046296
        k(   76) = (   0.3333333   0.3333333   0.4166667), wk =   0.0138889
        k(   77) = (   0.3333333   0.3333333  -0.5000000), wk =   0.0069444
        k(   78) = (   0.3333333   0.4166667   0.4166667), wk =   0.0138889
        k(   79) = (   0.3333333   0.4166667  -0.5000000), wk =   0.0138889
        k(   80) = (   0.3333333  -0.5000000  -0.5000000), wk =   0.0034722
        k(   81) = (   0.4166667   0.4166667   0.4166667), wk =   0.0046296
        k(   82) = (   0.4166667   0.4166667  -0.5000000), wk =   0.0069444
        k(   83) = (   0.4166667  -0.5000000  -0.5000000), wk =   0.0034722
        k(   84) = (  -0.5000000  -0.5000000  -0.5000000), wk =   0.0005787

                       cryst. coord.
        k(    1) = (   0.0000000   0.0000000   0.0000000), wk =   0.0005787
        k(    2) = (   0.0000000   0.0000000   0.0833333), wk =   0.0034722
        k(    3) = (   0.0000000   0.0000000   0.1666667), wk =   0.0034722
        k(    4) = (   0.0000000   0.0000000   0.2500000), wk =   0.0034722
        k(    5) = (   0.0000000   0.0000000   0.3333333), wk =   0.0034722
        k(    6) = (   0.0000000   0.0000000   0.4166667), wk =   0.0034722
        k(    7) = (   0.0000000   0.0000000  -0.5000000), wk =   0.0017361
        k(    8) = (   0.0000000   0.0833333   0.0833333), wk =   0.0069444
        k(    9) = (   0.0000000   0.0833333   0.1666667), wk =   0.0138889
        k(   10) = (   0.0000000   0.0833333   0.2500000), wk =   0.0138889
        k(   11) = (   0.0000000   0.0833333   0.3333333), wk =   0.0138889
        k(   12) = (   0.0000000   0.0833333   0.4166667), wk =   0.0138889
        k(   13) = (   0.0000000   0.0833333  -0.5000000), wk =   0.0069444
        k(   14) = (   0.0000000   0.1666667   0.1666667), wk =   0.0069444
        k(   15) = (   0.0000000   0.1666667   0.2500000), wk =   0.0138889
        k(   16) = (   0.0000000   0.1666667   0.3333333), wk =   0.0138889
        k(   17) = (   0.0000000   0.1666667   0.4166667), wk =   0.0138889
        k(   18) = (   0.0000000   0.1666667  -0.5000000), wk =   0.0069444
        k(   19) = (   0.0000000   0.2500000   0.2500000), wk =   0.0069444
        k(   20) = (   0.0000000   0.2500000   0.3333333), wk =   0.0138889
        k(   21) = (   0.0000000   0.2500000   0.4166667), wk =   0.0138889
        k(   22) = (   0.0000000   0.2500000  -0.5000000), wk =   0.0069444
        k(   23) = (   0.0000000   0.3333333   0.3333333), wk =   0.0069444
        k(   24) = (   0.0000000   0.3333333   0.4166667), wk =   0.0138889
        k(   25) = (   0.0000000   0.3333333  -0.5000000), wk =   0.0069444
        k(   26) = (   0.0000000   0.4166667   0.4166667), wk =   0.0069444
        k(   27) = (   0.0000000   0.4166667  -0.5000000), wk =   0.0069444
        k(   28) = (   0.0000000  -0.5000000  -0.5000000), wk =   0.0017361
        k(   29) = (   0.0833333   0.0833333   0.0833333), wk =   0.0046296
        k(   30) = (   0.0833333   0.0833333   0.1666667), wk =   0.0138889
        k(   31) = (   0.0833333   0.0833333   0.2500000), wk =   0.0138889
        k(   32) = (   0.0833333   0.0833333   0.3333333), wk =   0.0138889
        k(   33) = (   0.0833333   0.0833333   0.4166667), wk =   0.0138889
        k(   34) = (   0.0833333   0.0833333  -0.5000000), wk =   0.0069444
        k(   35) = (   0.0833333   0.1666667   0.1666667), wk =   0.0138889
        k(   36) = (   0.0833333   0.1666667   0.2500000), wk =   0.0277778
        k(   37) = (   0.0833333   0.1666667   0.3333333), wk =   0.0277778
        k(   38) = (   0.0833333   0.1666667   0.4166667), wk =   0.0277778
        k(   39) = (   0.0833333   0.1666667  -0.5000000), wk =   0.0138889
        k(   40) = (   0.0833333   0.2500000   0.2500000), wk =   0.0138889
        k(   41) = (   0.0833333   0.2500000   0.3333333), wk =   0.0277778
        k(   42) = (   0.0833333   0.2500000   0.4166667), wk =   0.0277778
        k(   43) = (   0.0833333   0.2500000  -0.5000000), wk =   0.0138889
        k(   44) = (   0.0833333   0.3333333   0.3333333), wk =   0.0138889
        k(   45) = (   0.0833333   0.3333333   0.4166667), wk =   0.0277778
        k(   46) = (   0.0833333   0.3333333  -0.5000000), wk =   0.0138889
        k(   47) = (   0.0833333   0.4166667   0.4166667), wk =   0.0138889
        k(   48) = (   0.0833333   0.4166667  -0.5000000), wk =   0.0138889
        k(   49) = (   0.0833333  -0.5000000  -0.5000000), wk =   0.0034722
        k(   50) = (   0.1666667   0.1666667   0.1666667), wk =   0.0046296
        k(   51) = (   0.1666667   0.1666667   0.2500000), wk =   0.0138889
        k(   52) = (   0.1666667   0.1666667   0.3333333), wk =   0.0138889
        k(   53) = (   0.1666667   0.1666667   0.4166667), wk =   0.0138889
        k(   54) = (   0.1666667   0.1666667  -0.5000000), wk =   0.0069444
        k(   55) = (   0.1666667   0.2500000   0.2500000), wk =   0.0138889
        k(   56) = (   0.1666667   0.2500000   0.3333333), wk =   0.0277778
        k(   57) = (   0.1666667   0.2500000   0.4166667), wk =   0.0277778
        k(   58) = (   0.1666667   0.2500000  -0.5000000), wk =   0.0138889
        k(   59) = (   0.1666667   0.3333333   0.3333333), wk =   0.0138889
        k(   60) = (   0.1666667   0.3333333   0.4166667), wk =   0.0277778
        k(   61) = (   0.1666667   0.3333333  -0.5000000), wk =   0.0138889
        k(   62) = (   0.1666667   0.4166667   0.4166667), wk =   0.0138889
        k(   63) = (   0.1666667   0.4166667  -0.5000000), wk =   0.0138889
        k(   64) = (   0.1666667  -0.5000000  -0.5000000), wk =   0.0034722
        k(   65) = (   0.2500000   0.2500000   0.2500000), wk =   0.0046296
        k(   66) = (   0.2500000   0.2500000   0.3333333), wk =   0.0138889
        k(   67) = (   0.2500000   0.2500000   0.4166667), wk =   0.0138889
        k(   68) = (   0.2500000   0.2500000  -0.5000000), wk =   0.0069444
        k(   69) = (   0.2500000   0.3333333   0.3333333), wk =   0.0138889
        k(   70) = (   0.2500000   0.3333333   0.4166667), wk =   0.0277778
        k(   71) = (   0.2500000   0.3333333  -0.5000000), wk =   0.0138889
        k(   72) = (   0.2500000   0.4166667   0.4166667), wk =   0.0138889
        k(   73) = (   0.2500000   0.4166667  -0.5000000), wk =   0.0138889
        k(   74) = (   0.2500000  -0.5000000  -0.5000000), wk =   0.0034722
        k(   75) = (   0.3333333   0.3333333   0.3333333), wk =   0.0046296
        k(   76) = (   0.3333333   0.3333333   0.4166667), wk =   0.0138889
        k(   77) = (   0.3333333   0.3333333  -0.5000000), wk =   0.0069444
        k(   78) = (   0.3333333   0.4166667   0.4166667), wk =   0.0138889
        k(   79) = (   0.3333333   0.4166667  -0.5000000), wk =   0.0138889
        k(   80) = (   0.3333333  -0.5000000  -0.5000000), wk =   0.0034722
        k(   81) = (   0.4166667   0.4166667   0.4166667), wk =   0.0046296
        k(   82) = (   0.4166667   0.4166667  -0.5000000), wk =   0.0069444
        k(   83) = (   0.4166667  -0.5000000  -0.5000000), wk =   0.0034722
        k(   84) = (  -0.5000000  -0.5000000  -0.5000000), wk =   0.0005787

     Dense  grid:    37705 G-vectors     FFT dimensions: (  45,  45,  45)

     Smooth grid:    13301 G-vectors     FFT dimensions: (  30,  30,  30)

     Dynamical RAM for                 wfc:       0.97 MB

     Dynamical RAM for     wfc (w. buffer):     163.55 MB

     Dynamical RAM for           str. fact:       1.15 MB

     Dynamical RAM for           local pot:       0.00 MB

     Dynamical RAM for          nlocal pot:       2.01 MB

     Dynamical RAM for                qrad:       5.69 MB

     Dynamical RAM for          rho,v,vnew:       7.62 MB

     Dynamical RAM for               rhoin:       2.54 MB

     Dynamical RAM for            rho*nmix:      18.41 MB

     Dynamical RAM for           G-vectors:       2.26 MB

     Dynamical RAM for          h,s,v(r/c):       0.26 MB

     Dynamical RAM for          <psi|beta>:       0.05 MB

     Dynamical RAM for                 psi:       1.94 MB

     Dynamical RAM for                hpsi:       1.94 MB

     Dynamical RAM for                spsi:       1.94 MB

     Dynamical RAM for      wfcinit/wfcrot:       1.97 MB

     Dynamical RAM for           addusdens:     204.82 MB

     Dynamical RAM for          addusforce:     207.16 MB

     Dynamical RAM for         addusstress:     218.91 MB

     Estimated static dynamical RAM per process >     190.72 MB

     Estimated max dynamical RAM per process >     428.04 MB

     Atomic positions and unit cell read from directory:
     ./out/aiida.save/
 

     Check: negative core charge=   -0.000010
     Generating pointlists ...
     new r_m :   0.2917 (alat units)  2.0102 (a.u.) for type    1
     new r_m :   0.2917 (alat units)  2.0102 (a.u.) for type    2

     The initial density is read from file :
     ./out/aiida.save/charge-density


     negative rho (up, down):  5.014E-02 5.027E-02
     Starting wfcs from file

     total cpu time spent up to now is        3.0 secs

     per-process dynamical memory:   383.6 Mb

     Self-consistent Calculation
[tb_dev] Currently allocated     3.05E-05 Mbytes, locked:    0 /   2
[tb_pin] Currently allocated     0.00E+00 Mbytes, locked:    0 /   0

     iteration #  1     ecut=    45.00 Ry     beta= 0.20
     Davidson diagonalization with overlap

---- Real-time Memory Report at c_bands before calling an iterative solver
           485 MiB given to the printing process from OS
           375 MiB allocation reported by mallinfo(arena+hblkhd)
         59662 MiB available memory on the node where the printing process lives
     GPU memory used/free/total (MiB): 592 / 15688 / 16280
------------------
     ethr =  1.00E-05,  avg # of iterations =  1.0

     Threshold (ethr) on eigenvalues was too large:
     Diagonalizing with lowered threshold

     Davidson diagonalization with overlap

---- Real-time Memory Report at c_bands before calling an iterative solver
          1008 MiB given to the printing process from OS
           848 MiB allocation reported by mallinfo(arena+hblkhd)
         58597 MiB available memory on the node where the printing process lives
     GPU memory used/free/total (MiB): 1068 / 15212 / 16280
------------------
     ethr =  1.69E-08,  avg # of iterations =  1.0

     negative rho (up, down):  5.014E-02 5.027E-02

     total cpu time spent up to now is        8.8 secs

     total energy              =   -1036.63709506 Ry
     estimated scf accuracy    <       0.00001084 Ry

     total magnetization       =     1.69 Bohr mag/cell
     absolute magnetization    =     2.54 Bohr mag/cell
[tb_dev] Currently allocated     6.38E-01 Mbytes, locked:    0 /   6
[tb_pin] Currently allocated     0.00E+00 Mbytes, locked:    0 /   0

     iteration #  2     ecut=    45.00 Ry     beta= 0.20
     Davidson diagonalization with overlap

---- Real-time Memory Report at c_bands before calling an iterative solver
          1045 MiB given to the printing process from OS
           852 MiB allocation reported by mallinfo(arena+hblkhd)
         58593 MiB available memory on the node where the printing process lives
     GPU memory used/free/total (MiB): 1068 / 15212 / 16280
------------------
     ethr =  1.69E-08,  avg # of iterations =  1.0

     negative rho (up, down):  5.014E-02 5.027E-02

     total cpu time spent up to now is       11.5 secs

     total energy              =   -1036.63709698 Ry
     estimated scf accuracy    <       0.00000955 Ry

     total magnetization       =     1.68 Bohr mag/cell
     absolute magnetization    =     2.53 Bohr mag/cell
[tb_dev] Currently allocated     6.38E-01 Mbytes, locked:    0 /   6
[tb_pin] Currently allocated     0.00E+00 Mbytes, locked:    0 /   0

     iteration #  3     ecut=    45.00 Ry     beta= 0.20
     Davidson diagonalization with overlap

---- Real-time Memory Report at c_bands before calling an iterative solver
          1047 MiB given to the printing process from OS
           853 MiB allocation reported by mallinfo(arena+hblkhd)
         58595 MiB available memory on the node where the printing process lives
     GPU memory used/free/total (MiB): 1068 / 15212 / 16280
------------------
     ethr =  1.49E-08,  avg # of iterations =  1.0

     negative rho (up, down):  5.015E-02 5.027E-02

     total cpu time spent up to now is       14.3 secs

     total energy              =   -1036.63710070 Ry
     estimated scf accuracy    <       0.00000894 Ry

     total magnetization       =     1.68 Bohr mag/cell
     absolute magnetization    =     2.53 Bohr mag/cell
[tb_dev] Currently allocated     6.38E-01 Mbytes, locked:    0 /   6
[tb_pin] Currently allocated     0.00E+00 Mbytes, locked:    0 /   0

     iteration #  4     ecut=    45.00 Ry     beta= 0.20
     Davidson diagonalization with overlap

---- Real-time Memory Report at c_bands before calling an iterative solver
          1051 MiB given to the printing process from OS
           853 MiB allocation reported by mallinfo(arena+hblkhd)
         58593 MiB available memory on the node where the printing process lives
     GPU memory used/free/total (MiB): 1068 / 15212 / 16280
------------------
     ethr =  1.40E-08,  avg # of iterations =  2.2

     negative rho (up, down):  5.015E-02 5.026E-02

     total cpu time spent up to now is       17.7 secs

     total energy              =   -1036.63708975 Ry
     estimated scf accuracy    <       0.00000635 Ry

     total magnetization       =     1.66 Bohr mag/cell
     absolute magnetization    =     2.50 Bohr mag/cell
[tb_dev] Currently allocated     6.38E-01 Mbytes, locked:    0 /   6
[tb_pin] Currently allocated     0.00E+00 Mbytes, locked:    0 /   0

     iteration #  5     ecut=    45.00 Ry     beta= 0.20
     Davidson diagonalization with overlap

---- Real-time Memory Report at c_bands before calling an iterative solver
          1056 MiB given to the printing process from OS
           856 MiB allocation reported by mallinfo(arena+hblkhd)
         58588 MiB available memory on the node where the printing process lives
     GPU memory used/free/total (MiB): 1118 / 15162 / 16280
------------------
     ethr =  9.92E-09,  avg # of iterations =  4.1

     negative rho (up, down):  5.015E-02 5.026E-02

     total cpu time spent up to now is       22.8 secs

     total energy              =   -1036.63711901 Ry
     estimated scf accuracy    <       0.00000417 Ry

     total magnetization       =     1.61 Bohr mag/cell
     absolute magnetization    =     2.42 Bohr mag/cell
[tb_dev] Currently allocated     6.38E-01 Mbytes, locked:    0 /   6
[tb_pin] Currently allocated     0.00E+00 Mbytes, locked:    0 /   0

     iteration #  6     ecut=    45.00 Ry     beta= 0.20
     Davidson diagonalization with overlap

---- Real-time Memory Report at c_bands before calling an iterative solver
          1058 MiB given to the printing process from OS
           857 MiB allocation reported by mallinfo(arena+hblkhd)
         58587 MiB available memory on the node where the printing process lives
     GPU memory used/free/total (MiB): 1118 / 15162 / 16280
------------------
     ethr =  6.51E-09,  avg # of iterations =  3.4

     negative rho (up, down):  5.015E-02 5.026E-02

     total cpu time spent up to now is       27.5 secs

     total energy              =   -1036.63704931 Ry
     estimated scf accuracy    <       0.00001352 Ry

     total magnetization       =     1.58 Bohr mag/cell
     absolute magnetization    =     2.38 Bohr mag/cell
[tb_dev] Currently allocated     6.38E-01 Mbytes, locked:    0 /   6
[tb_pin] Currently allocated     0.00E+00 Mbytes, locked:    0 /   0

     iteration #  7     ecut=    45.00 Ry     beta= 0.20
     Davidson diagonalization with overlap

---- Real-time Memory Report at c_bands before calling an iterative solver
          1060 MiB given to the printing process from OS
           857 MiB allocation reported by mallinfo(arena+hblkhd)
         58584 MiB available memory on the node where the printing process lives
     GPU memory used/free/total (MiB): 1126 / 15154 / 16280
------------------
     ethr =  6.51E-09,  avg # of iterations =  5.3

     negative rho (up, down):  5.015E-02 5.026E-02

     total cpu time spent up to now is       33.6 secs

     total energy              =   -1036.63702953 Ry
     estimated scf accuracy    <       0.00000244 Ry

     total magnetization       =     1.49 Bohr mag/cell
     absolute magnetization    =     2.25 Bohr mag/cell
[tb_dev] Currently allocated     6.38E-01 Mbytes, locked:    0 /   6
[tb_pin] Currently allocated     0.00E+00 Mbytes, locked:    0 /   0

     iteration #  8     ecut=    45.00 Ry     beta= 0.20
     Davidson diagonalization with overlap

---- Real-time Memory Report at c_bands before calling an iterative solver
          1061 MiB given to the printing process from OS
           858 MiB allocation reported by mallinfo(arena+hblkhd)
         58584 MiB available memory on the node where the printing process lives
     GPU memory used/free/total (MiB): 1126 / 15154 / 16280
------------------
     ethr =  3.81E-09,  avg # of iterations =  5.6

     negative rho (up, down):  5.014E-02 5.028E-02

     total cpu time spent up to now is       40.1 secs

     total energy              =   -1036.63481899 Ry
     estimated scf accuracy    <       0.00000259 Ry

     total magnetization       =     1.58 Bohr mag/cell
     absolute magnetization    =     2.38 Bohr mag/cell
[tb_dev] Currently allocated     6.38E-01 Mbytes, locked:    0 /   6
[tb_pin] Currently allocated     0.00E+00 Mbytes, locked:    0 /   0

     iteration #  9     ecut=    45.00 Ry     beta= 0.20
     Davidson diagonalization with overlap

---- Real-time Memory Report at c_bands before calling an iterative solver
          1063 MiB given to the printing process from OS
           859 MiB allocation reported by mallinfo(arena+hblkhd)
         58583 MiB available memory on the node where the printing process lives
     GPU memory used/free/total (MiB): 1126 / 15154 / 16280
------------------
     ethr =  3.81E-09,  avg # of iterations =  7.6

     negative rho (up, down):  5.015E-02 5.026E-02

     total cpu time spent up to now is       48.3 secs

     total energy              =   -1036.63595711 Ry
     estimated scf accuracy    <       0.00040708 Ry

     total magnetization       =     1.86 Bohr mag/cell
     absolute magnetization    =     2.87 Bohr mag/cell
[tb_dev] Currently allocated     6.38E-01 Mbytes, locked:    0 /   6
[tb_pin] Currently allocated     0.00E+00 Mbytes, locked:    0 /   0

     iteration # 10     ecut=    45.00 Ry     beta= 0.20
     Davidson diagonalization with overlap

---- Real-time Memory Report at c_bands before calling an iterative solver
          1065 MiB given to the printing process from OS
           860 MiB allocation reported by mallinfo(arena+hblkhd)
         58583 MiB available memory on the node where the printing process lives
     GPU memory used/free/total (MiB): 1126 / 15154 / 16280
------------------
     ethr =  3.81E-09,  avg # of iterations =  7.4

     negative rho (up, down):  5.015E-02 5.026E-02

     total cpu time spent up to now is       56.4 secs

     total energy              =   -1036.63700538 Ry
     estimated scf accuracy    <       0.00000429 Ry

     total magnetization       =     1.63 Bohr mag/cell
     absolute magnetization    =     2.45 Bohr mag/cell
[tb_dev] Currently allocated     6.38E-01 Mbytes, locked:    0 /   6
[tb_pin] Currently allocated     0.00E+00 Mbytes, locked:    0 /   0

     iteration # 11     ecut=    45.00 Ry     beta= 0.20
     Davidson diagonalization with overlap

---- Real-time Memory Report at c_bands before calling an iterative solver
          1065 MiB given to the printing process from OS
           860 MiB allocation reported by mallinfo(arena+hblkhd)
         58583 MiB available memory on the node where the printing process lives
     GPU memory used/free/total (MiB): 1126 / 15154 / 16280
------------------
     ethr =  3.81E-09,  avg # of iterations =  5.7

     negative rho (up, down):  5.015E-02 5.026E-02

     total cpu time spent up to now is       63.1 secs

     total energy              =   -1036.63713405 Ry
     estimated scf accuracy    <       0.00000274 Ry

     total magnetization       =     1.53 Bohr mag/cell
     absolute magnetization    =     2.29 Bohr mag/cell
[tb_dev] Currently allocated     6.38E-01 Mbytes, locked:    0 /   6
[tb_pin] Currently allocated     0.00E+00 Mbytes, locked:    0 /   0

     iteration # 12     ecut=    45.00 Ry     beta= 0.20
     Davidson diagonalization with overlap

---- Real-time Memory Report at c_bands before calling an iterative solver
          1065 MiB given to the printing process from OS
           860 MiB allocation reported by mallinfo(arena+hblkhd)
         58584 MiB available memory on the node where the printing process lives
     GPU memory used/free/total (MiB): 1126 / 15154 / 16280
------------------
     ethr =  3.81E-09,  avg # of iterations =  4.4

     negative rho (up, down):  5.015E-02 5.025E-02

     total cpu time spent up to now is       68.4 secs

     total energy              =   -1036.63714543 Ry
     estimated scf accuracy    <       0.00000296 Ry

     total magnetization       =     1.49 Bohr mag/cell
     absolute magnetization    =     2.24 Bohr mag/cell
[tb_dev] Currently allocated     6.38E-01 Mbytes, locked:    0 /   6
[tb_pin] Currently allocated     0.00E+00 Mbytes, locked:    0 /   0

     iteration # 13     ecut=    45.00 Ry     beta= 0.20
     Davidson diagonalization with overlap

---- Real-time Memory Report at c_bands before calling an iterative solver
          1065 MiB given to the printing process from OS
           860 MiB allocation reported by mallinfo(arena+hblkhd)
         58584 MiB available memory on the node where the printing process lives
     GPU memory used/free/total (MiB): 1126 / 15154 / 16280
------------------
     ethr =  3.81E-09,  avg # of iterations =  4.1

     negative rho (up, down):  5.015E-02 5.025E-02

     total cpu time spent up to now is       73.5 secs

     total energy              =   -1036.63716126 Ry
     estimated scf accuracy    <       0.00000395 Ry

     total magnetization       =     1.45 Bohr mag/cell
     absolute magnetization    =     2.18 Bohr mag/cell
[tb_dev] Currently allocated     6.38E-01 Mbytes, locked:    0 /   6
[tb_pin] Currently allocated     0.00E+00 Mbytes, locked:    0 /   0

     iteration # 14     ecut=    45.00 Ry     beta= 0.20
     Davidson diagonalization with overlap

---- Real-time Memory Report at c_bands before calling an iterative solver
          1065 MiB given to the printing process from OS
           860 MiB allocation reported by mallinfo(arena+hblkhd)
         58584 MiB available memory on the node where the printing process lives
     GPU memory used/free/total (MiB): 1126 / 15154 / 16280
------------------
     ethr =  3.81E-09,  avg # of iterations =  3.3

     negative rho (up, down):  5.015E-02 5.025E-02

     total cpu time spent up to now is       77.9 secs

     total energy              =   -1036.63716636 Ry
     estimated scf accuracy    <       0.00000463 Ry

     total magnetization       =     1.43 Bohr mag/cell
     absolute magnetization    =     2.15 Bohr mag/cell
[tb_dev] Currently allocated     6.38E-01 Mbytes, locked:    0 /   6
[tb_pin] Currently allocated     0.00E+00 Mbytes, locked:    0 /   0

     iteration # 15     ecut=    45.00 Ry     beta= 0.20
     Davidson diagonalization with overlap

---- Real-time Memory Report at c_bands before calling an iterative solver
          1065 MiB given to the printing process from OS
           860 MiB allocation reported by mallinfo(arena+hblkhd)
         58584 MiB available memory on the node where the printing process lives
     GPU memory used/free/total (MiB): 1126 / 15154 / 16280
------------------
     ethr =  3.81E-09,  avg # of iterations =  3.7

     negative rho (up, down):  5.015E-02 5.025E-02

     total cpu time spent up to now is       82.7 secs

     total energy              =   -1036.63717324 Ry
     estimated scf accuracy    <       0.00000605 Ry

     total magnetization       =     1.40 Bohr mag/cell
     absolute magnetization    =     2.12 Bohr mag/cell
[tb_dev] Currently allocated     6.38E-01 Mbytes, locked:    0 /   6
[tb_pin] Currently allocated     0.00E+00 Mbytes, locked:    0 /   0

     iteration # 16     ecut=    45.00 Ry     beta= 0.20
     Davidson diagonalization with overlap

---- Real-time Memory Report at c_bands before calling an iterative solver
          1065 MiB given to the printing process from OS
           860 MiB allocation reported by mallinfo(arena+hblkhd)
         58585 MiB available memory on the node where the printing process lives
     GPU memory used/free/total (MiB): 1126 / 15154 / 16280
------------------
     ethr =  3.81E-09,  avg # of iterations =  3.8

     negative rho (up, down):  5.015E-02 5.025E-02

     total cpu time spent up to now is       87.6 secs

     total energy              =   -1036.63712952 Ry
     estimated scf accuracy    <       0.00000799 Ry

     total magnetization       =     1.37 Bohr mag/cell
     absolute magnetization    =     2.07 Bohr mag/cell
[tb_dev] Currently allocated     6.38E-01 Mbytes, locked:    0 /   6
[tb_pin] Currently allocated     0.00E+00 Mbytes, locked:    0 /   0

     iteration # 17     ecut=    45.00 Ry     beta= 0.20
     Davidson diagonalization with overlap

---- Real-time Memory Report at c_bands before calling an iterative solver
          1065 MiB given to the printing process from OS
           860 MiB allocation reported by mallinfo(arena+hblkhd)
         58585 MiB available memory on the node where the printing process lives
     GPU memory used/free/total (MiB): 1126 / 15154 / 16280
------------------
     ethr =  3.81E-09,  avg # of iterations =  4.8

     negative rho (up, down):  5.015E-02 5.025E-02

     total cpu time spent up to now is       93.3 secs

     total energy              =   -1036.63716608 Ry
     estimated scf accuracy    <       0.00000476 Ry

     total magnetization       =     1.43 Bohr mag/cell
     absolute magnetization    =     2.16 Bohr mag/cell
[tb_dev] Currently allocated     6.38E-01 Mbytes, locked:    0 /   6
[tb_pin] Currently allocated     0.00E+00 Mbytes, locked:    0 /   0

     iteration # 18     ecut=    45.00 Ry     beta= 0.20
     Davidson diagonalization with overlap

---- Real-time Memory Report at c_bands before calling an iterative solver
          1065 MiB given to the printing process from OS
           860 MiB allocation reported by mallinfo(arena+hblkhd)
         58585 MiB available memory on the node where the printing process lives
     GPU memory used/free/total (MiB): 1126 / 15154 / 16280
------------------
     ethr =  3.81E-09,  avg # of iterations =  1.0

     negative rho (up, down):  5.015E-02 5.026E-02

     total cpu time spent up to now is       96.0 secs

     total energy              =   -1036.63643298 Ry
     estimated scf accuracy    <       0.00000485 Ry

     total magnetization       =     1.43 Bohr mag/cell
     absolute magnetization    =     2.15 Bohr mag/cell
[tb_dev] Currently allocated     6.38E-01 Mbytes, locked:    0 /   6
[tb_pin] Currently allocated     0.00E+00 Mbytes, locked:    0 /   0

     iteration # 19     ecut=    45.00 Ry     beta= 0.20
     Davidson diagonalization with overlap

---- Real-time Memory Report at c_bands before calling an iterative solver
          1065 MiB given to the printing process from OS
           860 MiB allocation reported by mallinfo(arena+hblkhd)
         58585 MiB available memory on the node where the printing process lives
     GPU memory used/free/total (MiB): 1126 / 15154 / 16280
------------------
     ethr =  3.81E-09,  avg # of iterations =  6.6

     negative rho (up, down):  5.014E-02 5.027E-02

     total cpu time spent up to now is      103.3 secs

     total energy              =   -1036.63705780 Ry
     estimated scf accuracy    <       0.00000678 Ry

     total magnetization       =     1.66 Bohr mag/cell
     absolute magnetization    =     2.49 Bohr mag/cell
[tb_dev] Currently allocated     6.38E-01 Mbytes, locked:    0 /   6
[tb_pin] Currently allocated     0.00E+00 Mbytes, locked:    0 /   0

     iteration # 20     ecut=    45.00 Ry     beta= 0.20
     Davidson diagonalization with overlap

---- Real-time Memory Report at c_bands before calling an iterative solver
          1065 MiB given to the printing process from OS
           860 MiB allocation reported by mallinfo(arena+hblkhd)
         58585 MiB available memory on the node where the printing process lives
     GPU memory used/free/total (MiB): 1126 / 15154 / 16280
------------------
     ethr =  3.81E-09,  avg # of iterations =  4.8

     negative rho (up, down):  5.015E-02 5.026E-02

     total cpu time spent up to now is      109.0 secs

     total energy              =   -1036.63686156 Ry
     estimated scf accuracy    <       0.00001362 Ry

     total magnetization       =     1.70 Bohr mag/cell
     absolute magnetization    =     2.56 Bohr mag/cell
[tb_dev] Currently allocated     6.38E-01 Mbytes, locked:    0 /   6
[tb_pin] Currently allocated     0.00E+00 Mbytes, locked:    0 /   0

     iteration # 21     ecut=    45.00 Ry     beta= 0.20
     Davidson diagonalization with overlap

---- Real-time Memory Report at c_bands before calling an iterative solver
          1066 MiB given to the printing process from OS
           860 MiB allocation reported by mallinfo(arena+hblkhd)
         58585 MiB available memory on the node where the printing process lives
     GPU memory used/free/total (MiB): 1126 / 15154 / 16280
------------------
     ethr =  3.81E-09,  avg # of iterations =  6.0

     negative rho (up, down):  5.015E-02 5.026E-02

     total cpu time spent up to now is      115.7 secs

     total energy              =   -1036.63713489 Ry
     estimated scf accuracy    <       0.00000248 Ry

     total magnetization       =     1.56 Bohr mag/cell
     absolute magnetization    =     2.34 Bohr mag/cell
[tb_dev] Currently allocated     6.38E-01 Mbytes, locked:    0 /   6
[tb_pin] Currently allocated     0.00E+00 Mbytes, locked:    0 /   0

     iteration # 22     ecut=    45.00 Ry     beta= 0.20
     Davidson diagonalization with overlap

---- Real-time Memory Report at c_bands before calling an iterative solver
          1066 MiB given to the printing process from OS
           860 MiB allocation reported by mallinfo(arena+hblkhd)
         58586 MiB available memory on the node where the printing process lives
     GPU memory used/free/total (MiB): 1126 / 15154 / 16280
------------------
     ethr =  3.81E-09,  avg # of iterations =  1.0

     negative rho (up, down):  5.015E-02 5.026E-02

     total cpu time spent up to now is      118.3 secs

     total energy              =   -1036.63712791 Ry
     estimated scf accuracy    <       0.00000257 Ry

     total magnetization       =     1.56 Bohr mag/cell
     absolute magnetization    =     2.35 Bohr mag/cell
[tb_dev] Currently allocated     6.38E-01 Mbytes, locked:    0 /   6
[tb_pin] Currently allocated     0.00E+00 Mbytes, locked:    0 /   0

     iteration # 23     ecut=    45.00 Ry     beta= 0.20
     Davidson diagonalization with overlap

---- Real-time Memory Report at c_bands before calling an iterative solver
          1066 MiB given to the printing process from OS
           860 MiB allocation reported by mallinfo(arena+hblkhd)
         58584 MiB available memory on the node where the printing process lives
     GPU memory used/free/total (MiB): 1126 / 15154 / 16280
------------------
     ethr =  3.81E-09,  avg # of iterations =  2.9

     negative rho (up, down):  5.015E-02 5.026E-02

     total cpu time spent up to now is      122.3 secs

     total energy              =   -1036.63710507 Ry
     estimated scf accuracy    <       0.00000292 Ry

     total magnetization       =     1.58 Bohr mag/cell
     absolute magnetization    =     2.37 Bohr mag/cell
[tb_dev] Currently allocated     6.38E-01 Mbytes, locked:    0 /   6
[tb_pin] Currently allocated     0.00E+00 Mbytes, locked:    0 /   0

     iteration # 24     ecut=    45.00 Ry     beta= 0.20
     Davidson diagonalization with overlap

---- Real-time Memory Report at c_bands before calling an iterative solver
          1066 MiB given to the printing process from OS
           860 MiB allocation reported by mallinfo(arena+hblkhd)
         58586 MiB available memory on the node where the printing process lives
     GPU memory used/free/total (MiB): 1126 / 15154 / 16280
------------------
     ethr =  3.81E-09,  avg # of iterations =  4.9

     negative rho (up, down):  5.015E-02 5.025E-02

     total cpu time spent up to now is      128.0 secs

     total energy              =   -1036.63711584 Ry
     estimated scf accuracy    <       0.00000255 Ry

     total magnetization       =     1.52 Bohr mag/cell
     absolute magnetization    =     2.29 Bohr mag/cell
[tb_dev] Currently allocated     6.38E-01 Mbytes, locked:    0 /   6
[tb_pin] Currently allocated     0.00E+00 Mbytes, locked:    0 /   0

     iteration # 25     ecut=    45.00 Ry     beta= 0.20
     Davidson diagonalization with overlap

---- Real-time Memory Report at c_bands before calling an iterative solver
          1066 MiB given to the printing process from OS
           860 MiB allocation reported by mallinfo(arena+hblkhd)
         58587 MiB available memory on the node where the printing process lives
     GPU memory used/free/total (MiB): 1126 / 15154 / 16280
------------------
     ethr =  3.81E-09,  avg # of iterations =  5.1

     negative rho (up, down):  5.015E-02 5.025E-02

     total cpu time spent up to now is      134.4 secs

     total energy              =   -1036.63715636 Ry
     estimated scf accuracy    <       0.00000370 Ry

     total magnetization       =     1.46 Bohr mag/cell
     absolute magnetization    =     2.20 Bohr mag/cell
[tb_dev] Currently allocated     6.38E-01 Mbytes, locked:    0 /   6
[tb_pin] Currently allocated     0.00E+00 Mbytes, locked:    0 /   0

     iteration # 26     ecut=    45.00 Ry     beta= 0.20
     Davidson diagonalization with overlap

---- Real-time Memory Report at c_bands before calling an iterative solver
          1066 MiB given to the printing process from OS
           860 MiB allocation reported by mallinfo(arena+hblkhd)
         58586 MiB available memory on the node where the printing process lives
     GPU memory used/free/total (MiB): 1126 / 15154 / 16280
------------------
     ethr =  3.81E-09,  avg # of iterations =  3.6

     negative rho (up, down):  5.015E-02 5.025E-02

     total cpu time spent up to now is      139.1 secs

     total energy              =   -1036.63715441 Ry
     estimated scf accuracy    <       0.00000442 Ry

     total magnetization       =     1.44 Bohr mag/cell
     absolute magnetization    =     2.17 Bohr mag/cell
[tb_dev] Currently allocated     6.38E-01 Mbytes, locked:    0 /   6
[tb_pin] Currently allocated     0.00E+00 Mbytes, locked:    0 /   0

     iteration # 27     ecut=    45.00 Ry     beta= 0.20
     Davidson diagonalization with overlap

---- Real-time Memory Report at c_bands before calling an iterative solver
          1066 MiB given to the printing process from OS
           860 MiB allocation reported by mallinfo(arena+hblkhd)
         58586 MiB available memory on the node where the printing process lives
     GPU memory used/free/total (MiB): 1126 / 15154 / 16280
------------------
     ethr =  3.81E-09,  avg # of iterations =  3.0

     negative rho (up, down):  5.015E-02 5.025E-02

     total cpu time spent up to now is      143.2 secs

     total energy              =   -1036.63715969 Ry
     estimated scf accuracy    <       0.00000407 Ry

     total magnetization       =     1.46 Bohr mag/cell
     absolute magnetization    =     2.19 Bohr mag/cell
[tb_dev] Currently allocated     6.38E-01 Mbytes, locked:    0 /   6
[tb_pin] Currently allocated     0.00E+00 Mbytes, locked:    0 /   0

     iteration # 28     ecut=    45.00 Ry     beta= 0.20
     Davidson diagonalization with overlap

---- Real-time Memory Report at c_bands before calling an iterative solver
          1066 MiB given to the printing process from OS
           860 MiB allocation reported by mallinfo(arena+hblkhd)
         58586 MiB available memory on the node where the printing process lives
     GPU memory used/free/total (MiB): 1126 / 15154 / 16280
------------------
     ethr =  3.81E-09,  avg # of iterations =  2.5

     negative rho (up, down):  5.015E-02 5.026E-02

     total cpu time spent up to now is      147.0 secs

     total energy              =   -1036.63714576 Ry
     estimated scf accuracy    <       0.00000441 Ry

     total magnetization       =     1.44 Bohr mag/cell
     absolute magnetization    =     2.17 Bohr mag/cell
[tb_dev] Currently allocated     6.38E-01 Mbytes, locked:    0 /   6
[tb_pin] Currently allocated     0.00E+00 Mbytes, locked:    0 /   0

     iteration # 29     ecut=    45.00 Ry     beta= 0.20
     Davidson diagonalization with overlap

---- Real-time Memory Report at c_bands before calling an iterative solver
          1066 MiB given to the printing process from OS
           860 MiB allocation reported by mallinfo(arena+hblkhd)
         58586 MiB available memory on the node where the printing process lives
     GPU memory used/free/total (MiB): 1126 / 15154 / 16280
------------------
     ethr =  3.81E-09,  avg # of iterations =  3.6

     negative rho (up, down):  5.015E-02 5.026E-02

     total cpu time spent up to now is      151.7 secs

     total energy              =   -1036.63681698 Ry
     estimated scf accuracy    <       0.00000368 Ry

     total magnetization       =     1.47 Bohr mag/cell
     absolute magnetization    =     2.21 Bohr mag/cell
[tb_dev] Currently allocated     6.38E-01 Mbytes, locked:    0 /   6
[tb_pin] Currently allocated     0.00E+00 Mbytes, locked:    0 /   0

     iteration # 30     ecut=    45.00 Ry     beta= 0.20
     Davidson diagonalization with overlap

---- Real-time Memory Report at c_bands before calling an iterative solver
          1066 MiB given to the printing process from OS
           860 MiB allocation reported by mallinfo(arena+hblkhd)
         58586 MiB available memory on the node where the printing process lives
     GPU memory used/free/total (MiB): 1126 / 15154 / 16280
------------------
     ethr =  3.81E-09,  avg # of iterations =  6.0

     negative rho (up, down):  5.015E-02 5.026E-02

     total cpu time spent up to now is      158.6 secs

     total energy              =   -1036.63711466 Ry
     estimated scf accuracy    <       0.00000452 Ry

     total magnetization       =     1.63 Bohr mag/cell
     absolute magnetization    =     2.44 Bohr mag/cell
[tb_dev] Currently allocated     6.38E-01 Mbytes, locked:    0 /   6
[tb_pin] Currently allocated     0.00E+00 Mbytes, locked:    0 /   0

     iteration # 31     ecut=    45.00 Ry     beta= 0.20
     Davidson diagonalization with overlap

---- Real-time Memory Report at c_bands before calling an iterative solver
          1066 MiB given to the printing process from OS
           860 MiB allocation reported by mallinfo(arena+hblkhd)
         58586 MiB available memory on the node where the printing process lives
     GPU memory used/free/total (MiB): 1126 / 15154 / 16280
------------------
     ethr =  3.81E-09,  avg # of iterations =  3.9

     negative rho (up, down):  5.015E-02 5.026E-02

     total cpu time spent up to now is      163.6 secs

     total energy              =   -1036.63710726 Ry
     estimated scf accuracy    <       0.00000308 Ry

     total magnetization       =     1.60 Bohr mag/cell
     absolute magnetization    =     2.40 Bohr mag/cell
[tb_dev] Currently allocated     6.38E-01 Mbytes, locked:    0 /   6
[tb_pin] Currently allocated     0.00E+00 Mbytes, locked:    0 /   0

     iteration # 32     ecut=    45.00 Ry     beta= 0.20
     Davidson diagonalization with overlap

---- Real-time Memory Report at c_bands before calling an iterative solver
          1066 MiB given to the printing process from OS
           860 MiB allocation reported by mallinfo(arena+hblkhd)
         58586 MiB available memory on the node where the printing process lives
     GPU memory used/free/total (MiB): 1126 / 15154 / 16280
------------------
     ethr =  3.81E-09,  avg # of iterations =  4.9

     negative rho (up, down):  5.015E-02 5.025E-02

     total cpu time spent up to now is      169.4 secs

     total energy              =   -1036.63706715 Ry
     estimated scf accuracy    <       0.00000245 Ry

     total magnetization       =     1.55 Bohr mag/cell
     absolute magnetization    =     2.32 Bohr mag/cell
[tb_dev] Currently allocated     6.38E-01 Mbytes, locked:    0 /   6
[tb_pin] Currently allocated     0.00E+00 Mbytes, locked:    0 /   0

     iteration # 33     ecut=    45.00 Ry     beta= 0.20
     Davidson diagonalization with overlap

---- Real-time Memory Report at c_bands before calling an iterative solver
          1066 MiB given to the printing process from OS
           860 MiB allocation reported by mallinfo(arena+hblkhd)
         58587 MiB available memory on the node where the printing process lives
     GPU memory used/free/total (MiB): 1126 / 15154 / 16280
------------------
     ethr =  3.81E-09,  avg # of iterations =  5.5

     negative rho (up, down):  5.015E-02 5.025E-02

     total cpu time spent up to now is      176.2 secs

     total energy              =   -1036.63714241 Ry
     estimated scf accuracy    <       0.00000366 Ry

     total magnetization       =     1.46 Bohr mag/cell
     absolute magnetization    =     2.19 Bohr mag/cell
[tb_dev] Currently allocated     6.38E-01 Mbytes, locked:    0 /   6
[tb_pin] Currently allocated     0.00E+00 Mbytes, locked:    0 /   0

     iteration # 34     ecut=    45.00 Ry     beta= 0.20
     Davidson diagonalization with overlap

---- Real-time Memory Report at c_bands before calling an iterative solver
          1066 MiB given to the printing process from OS
           860 MiB allocation reported by mallinfo(arena+hblkhd)
         58587 MiB available memory on the node where the printing process lives
     GPU memory used/free/total (MiB): 1126 / 15154 / 16280
------------------
     ethr =  3.81E-09,  avg # of iterations =  4.7

     negative rho (up, down):  5.015E-02 5.026E-02

     total cpu time spent up to now is      181.8 secs

     total energy              =   -1036.63682844 Ry
     estimated scf accuracy    <       0.00000582 Ry

     total magnetization       =     1.40 Bohr mag/cell
     absolute magnetization    =     2.12 Bohr mag/cell
[tb_dev] Currently allocated     6.38E-01 Mbytes, locked:    0 /   6
[tb_pin] Currently allocated     0.00E+00 Mbytes, locked:    0 /   0

     iteration # 35     ecut=    45.00 Ry     beta= 0.20
     Davidson diagonalization with overlap

---- Real-time Memory Report at c_bands before calling an iterative solver
          1066 MiB given to the printing process from OS
           860 MiB allocation reported by mallinfo(arena+hblkhd)
         58587 MiB available memory on the node where the printing process lives
     GPU memory used/free/total (MiB): 1126 / 15154 / 16280
------------------
     ethr =  3.81E-09,  avg # of iterations =  6.0

     negative rho (up, down):  5.015E-02 5.026E-02

     total cpu time spent up to now is      188.4 secs

     total energy              =   -1036.63713558 Ry
     estimated scf accuracy    <       0.00000264 Ry

     total magnetization       =     1.57 Bohr mag/cell
     absolute magnetization    =     2.35 Bohr mag/cell
[tb_dev] Currently allocated     6.38E-01 Mbytes, locked:    0 /   6
[tb_pin] Currently allocated     0.00E+00 Mbytes, locked:    0 /   0

     iteration # 36     ecut=    45.00 Ry     beta= 0.20
     Davidson diagonalization with overlap

---- Real-time Memory Report at c_bands before calling an iterative solver
          1066 MiB given to the printing process from OS
           860 MiB allocation reported by mallinfo(arena+hblkhd)
         58587 MiB available memory on the node where the printing process lives
     GPU memory used/free/total (MiB): 1126 / 15154 / 16280
------------------
     ethr =  3.81E-09,  avg # of iterations =  2.1

     negative rho (up, down):  5.015E-02 5.026E-02

     total cpu time spent up to now is      192.2 secs

     total energy              =   -1036.63713020 Ry
     estimated scf accuracy    <       0.00000246 Ry

     total magnetization       =     1.55 Bohr mag/cell
     absolute magnetization    =     2.33 Bohr mag/cell
[tb_dev] Currently allocated     6.38E-01 Mbytes, locked:    0 /   6
[tb_pin] Currently allocated     0.00E+00 Mbytes, locked:    0 /   0

     iteration # 37     ecut=    45.00 Ry     beta= 0.20
     Davidson diagonalization with overlap

---- Real-time Memory Report at c_bands before calling an iterative solver
          1066 MiB given to the printing process from OS
           860 MiB allocation reported by mallinfo(arena+hblkhd)
         58587 MiB available memory on the node where the printing process lives
     GPU memory used/free/total (MiB): 1126 / 15154 / 16280
------------------
     ethr =  3.81E-09,  avg # of iterations =  4.3

     negative rho (up, down):  5.015E-02 5.026E-02

     total cpu time spent up to now is      197.5 secs

     total energy              =   -1036.63690066 Ry
     estimated scf accuracy    <       0.00000251 Ry

     total magnetization       =     1.52 Bohr mag/cell
     absolute magnetization    =     2.28 Bohr mag/cell
[tb_dev] Currently allocated     6.38E-01 Mbytes, locked:    0 /   6
[tb_pin] Currently allocated     0.00E+00 Mbytes, locked:    0 /   0

     iteration # 38     ecut=    45.00 Ry     beta= 0.20
     Davidson diagonalization with overlap

---- Real-time Memory Report at c_bands before calling an iterative solver
          1066 MiB given to the printing process from OS
           860 MiB allocation reported by mallinfo(arena+hblkhd)
         58587 MiB available memory on the node where the printing process lives
     GPU memory used/free/total (MiB): 1126 / 15154 / 16280
------------------
     ethr =  3.81E-09,  avg # of iterations =  5.8

     negative rho (up, down):  5.014E-02 5.027E-02

     total cpu time spent up to now is      204.3 secs

     total energy              =   -1036.63707425 Ry
     estimated scf accuracy    <       0.00000566 Ry

     total magnetization       =     1.64 Bohr mag/cell
     absolute magnetization    =     2.47 Bohr mag/cell
[tb_dev] Currently allocated     6.38E-01 Mbytes, locked:    0 /   6
[tb_pin] Currently allocated     0.00E+00 Mbytes, locked:    0 /   0

     iteration # 39     ecut=    45.00 Ry     beta= 0.20
     Davidson diagonalization with overlap

---- Real-time Memory Report at c_bands before calling an iterative solver
          1066 MiB given to the printing process from OS
           860 MiB allocation reported by mallinfo(arena+hblkhd)
         58587 MiB available memory on the node where the printing process lives
     GPU memory used/free/total (MiB): 1126 / 15154 / 16280
------------------
     ethr =  3.81E-09,  avg # of iterations =  4.5

     negative rho (up, down):  5.014E-02 5.027E-02

     total cpu time spent up to now is      209.8 secs

     total energy              =   -1036.63708907 Ry
     estimated scf accuracy    <       0.00001015 Ry

     total magnetization       =     1.68 Bohr mag/cell
     absolute magnetization    =     2.53 Bohr mag/cell
[tb_dev] Currently allocated     6.38E-01 Mbytes, locked:    0 /   6
[tb_pin] Currently allocated     0.00E+00 Mbytes, locked:    0 /   0

     iteration # 40     ecut=    45.00 Ry     beta= 0.20
     Davidson diagonalization with overlap

---- Real-time Memory Report at c_bands before calling an iterative solver
          1066 MiB given to the printing process from OS
           860 MiB allocation reported by mallinfo(arena+hblkhd)
         58587 MiB available memory on the node where the printing process lives
     GPU memory used/free/total (MiB): 1126 / 15154 / 16280
------------------
     ethr =  3.81E-09,  avg # of iterations =  2.2

     negative rho (up, down):  5.014E-02 5.027E-02

     total cpu time spent up to now is      213.2 secs

     total energy              =   -1036.63709462 Ry
     estimated scf accuracy    <       0.00001200 Ry

     total magnetization       =     1.69 Bohr mag/cell
     absolute magnetization    =     2.54 Bohr mag/cell
[tb_dev] Currently allocated     6.38E-01 Mbytes, locked:    0 /   6
[tb_pin] Currently allocated     0.00E+00 Mbytes, locked:    0 /   0

     iteration # 41     ecut=    45.00 Ry     beta= 0.20
     Davidson diagonalization with overlap

---- Real-time Memory Report at c_bands before calling an iterative solver
          1066 MiB given to the printing process from OS
           860 MiB allocation reported by mallinfo(arena+hblkhd)
[...]
          1066 MiB given to the printing process from OS
           860 MiB allocation reported by mallinfo(arena+hblkhd)
         58588 MiB available memory on the node where the printing process lives
     GPU memory used/free/total (MiB): 1126 / 15154 / 16280
------------------
     ethr =  3.48E-09,  avg # of iterations =  3.8

     negative rho (up, down):  5.015E-02 5.025E-02

     total cpu time spent up to now is      359.8 secs

     total energy              =   -1036.63715295 Ry
     estimated scf accuracy    <       0.00000834 Ry

     total magnetization       =     1.37 Bohr mag/cell
     absolute magnetization    =     2.06 Bohr mag/cell
[tb_dev] Currently allocated     6.38E-01 Mbytes, locked:    0 /   6
[tb_pin] Currently allocated     0.00E+00 Mbytes, locked:    0 /   0

     iteration # 66     ecut=    45.00 Ry     beta= 0.20
     Davidson diagonalization with overlap

---- Real-time Memory Report at c_bands before calling an iterative solver
          1066 MiB given to the printing process from OS
           860 MiB allocation reported by mallinfo(arena+hblkhd)
         58587 MiB available memory on the node where the printing process lives
     GPU memory used/free/total (MiB): 1126 / 15154 / 16280
------------------
     ethr =  3.48E-09,  avg # of iterations =  4.4

     negative rho (up, down):  5.015E-02 5.025E-02

     total cpu time spent up to now is      365.9 secs

     total energy              =   -1036.63717009 Ry
     estimated scf accuracy    <       0.00000578 Ry

     total magnetization       =     1.41 Bohr mag/cell
     absolute magnetization    =     2.12 Bohr mag/cell
[tb_dev] Currently allocated     6.38E-01 Mbytes, locked:    0 /   6
[tb_pin] Currently allocated     0.00E+00 Mbytes, locked:    0 /   0

     iteration # 67     ecut=    45.00 Ry     beta= 0.20
     Davidson diagonalization with overlap

---- Real-time Memory Report at c_bands before calling an iterative solver
          1066 MiB given to the printing process from OS
           860 MiB allocation reported by mallinfo(arena+hblkhd)
         58588 MiB available memory on the node where the printing process lives
     GPU memory used/free/total (MiB): 1126 / 15154 / 16280
------------------
     ethr =  3.48E-09,  avg # of iterations =  1.2

     negative rho (up, down):  5.015E-02 5.025E-02

     total cpu time spent up to now is      368.7 secs

     total energy              =   -1036.63717231 Ry
     estimated scf accuracy    <       0.00000547 Ry

     total magnetization       =     1.41 Bohr mag/cell
     absolute magnetization    =     2.13 Bohr mag/cell
[tb_dev] Currently allocated     6.38E-01 Mbytes, locked:    0 /   6
[tb_pin] Currently allocated     0.00E+00 Mbytes, locked:    0 /   0

     iteration # 68     ecut=    45.00 Ry     beta= 0.20
     Davidson diagonalization with overlap

---- Real-time Memory Report at c_bands before calling an iterative solver
          1066 MiB given to the printing process from OS
           860 MiB allocation reported by mallinfo(arena+hblkhd)
         58587 MiB available memory on the node where the printing process lives
     GPU memory used/free/total (MiB): 1126 / 15154 / 16280
------------------
     ethr =  3.48E-09,  avg # of iterations =  1.8

     negative rho (up, down):  5.014E-02 5.027E-02

     total cpu time spent up to now is      371.7 secs

     total energy              =   -1036.63590001 Ry
     estimated scf accuracy    <       0.00000582 Ry

     total magnetization       =     1.40 Bohr mag/cell
     absolute magnetization    =     2.12 Bohr mag/cell
[tb_dev] Currently allocated     6.38E-01 Mbytes, locked:    0 /   6
[tb_pin] Currently allocated     0.00E+00 Mbytes, locked:    0 /   0

     iteration # 69     ecut=    45.00 Ry     beta= 0.20
     Davidson diagonalization with overlap

---- Real-time Memory Report at c_bands before calling an iterative solver
          1066 MiB given to the printing process from OS
           860 MiB allocation reported by mallinfo(arena+hblkhd)
         58587 MiB available memory on the node where the printing process lives
     GPU memory used/free/total (MiB): 1126 / 15154 / 16280
------------------
     ethr =  3.48E-09,  avg # of iterations =  7.2

     negative rho (up, down):  5.014E-02 5.027E-02

     total cpu time spent up to now is      379.6 secs

     total energy              =   -1036.63706490 Ry
     estimated scf accuracy    <       0.00001496 Ry

     total magnetization       =     1.70 Bohr mag/cell
     absolute magnetization    =     2.56 Bohr mag/cell
[tb_dev] Currently allocated     6.38E-01 Mbytes, locked:    0 /   6
[tb_pin] Currently allocated     0.00E+00 Mbytes, locked:    0 /   0

     iteration # 70     ecut=    45.00 Ry     beta= 0.20
     Davidson diagonalization with overlap

---- Real-time Memory Report at c_bands before calling an iterative solver
          1066 MiB given to the printing process from OS
           860 MiB allocation reported by mallinfo(arena+hblkhd)
         58587 MiB available memory on the node where the printing process lives
     GPU memory used/free/total (MiB): 1126 / 15154 / 16280
------------------
     ethr =  3.48E-09,  avg # of iterations =  3.8

     negative rho (up, down):  5.015E-02 5.026E-02

     total cpu time spent up to now is      384.4 secs

     total energy              =   -1036.63664117 Ry
     estimated scf accuracy    <       0.00002058 Ry

     total magnetization       =     1.72 Bohr mag/cell
     absolute magnetization    =     2.59 Bohr mag/cell
[tb_dev] Currently allocated     6.38E-01 Mbytes, locked:    0 /   6
[tb_pin] Currently allocated     0.00E+00 Mbytes, locked:    0 /   0

     iteration # 71     ecut=    45.00 Ry     beta= 0.20
     Davidson diagonalization with overlap

---- Real-time Memory Report at c_bands before calling an iterative solver
          1066 MiB given to the printing process from OS
           860 MiB allocation reported by mallinfo(arena+hblkhd)
         58587 MiB available memory on the node where the printing process lives
     GPU memory used/free/total (MiB): 1126 / 15154 / 16280
------------------
     ethr =  3.48E-09,  avg # of iterations =  6.4

     negative rho (up, down):  5.015E-02 5.026E-02

     total cpu time spent up to now is      391.5 secs

     total energy              =   -1036.63710568 Ry
     estimated scf accuracy    <       0.00000252 Ry

     total magnetization       =     1.53 Bohr mag/cell
     absolute magnetization    =     2.30 Bohr mag/cell
[tb_dev] Currently allocated     6.38E-01 Mbytes, locked:    0 /   6
[tb_pin] Currently allocated     0.00E+00 Mbytes, locked:    0 /   0

     iteration # 72     ecut=    45.00 Ry     beta= 0.20
     Davidson diagonalization with overlap

---- Real-time Memory Report at c_bands before calling an iterative solver
          1066 MiB given to the printing process from OS
           860 MiB allocation reported by mallinfo(arena+hblkhd)
         58587 MiB available memory on the node where the printing process lives
     GPU memory used/free/total (MiB): 1126 / 15154 / 16280
------------------
     ethr =  3.48E-09,  avg # of iterations =  4.6

     negative rho (up, down):  5.015E-02 5.025E-02

     total cpu time spent up to now is      397.0 secs

     total energy              =   -1036.63687610 Ry
     estimated scf accuracy    <       0.00000289 Ry

     total magnetization       =     1.58 Bohr mag/cell
     absolute magnetization    =     2.37 Bohr mag/cell
[tb_dev] Currently allocated     6.38E-01 Mbytes, locked:    0 /   6
[tb_pin] Currently allocated     0.00E+00 Mbytes, locked:    0 /   0

     iteration # 73     ecut=    45.00 Ry     beta= 0.20
     Davidson diagonalization with overlap

---- Real-time Memory Report at c_bands before calling an iterative solver
          1066 MiB given to the printing process from OS
           860 MiB allocation reported by mallinfo(arena+hblkhd)
         58587 MiB available memory on the node where the printing process lives
     GPU memory used/free/total (MiB): 1126 / 15154 / 16280
------------------
     ethr =  3.48E-09,  avg # of iterations =  6.0

     negative rho (up, down):  5.015E-02 5.025E-02

     total cpu time spent up to now is      403.7 secs

     total energy              =   -1036.63715181 Ry
     estimated scf accuracy    <       0.00000542 Ry

     total magnetization       =     1.42 Bohr mag/cell
     absolute magnetization    =     2.13 Bohr mag/cell
[tb_dev] Currently allocated     6.38E-01 Mbytes, locked:    0 /   6
[tb_pin] Currently allocated     0.00E+00 Mbytes, locked:    0 /   0

     iteration # 74     ecut=    45.00 Ry     beta= 0.20
     Davidson diagonalization with overlap

---- Real-time Memory Report at c_bands before calling an iterative solver
          1066 MiB given to the printing process from OS
           860 MiB allocation reported by mallinfo(arena+hblkhd)
         58587 MiB available memory on the node where the printing process lives
     GPU memory used/free/total (MiB): 1126 / 15154 / 16280
------------------
     ethr =  3.48E-09,  avg # of iterations =  3.8

     negative rho (up, down):  5.015E-02 5.026E-02

     total cpu time spent up to now is      408.6 secs

     total energy              =   -1036.63715125 Ry
     estimated scf accuracy    <       0.00000420 Ry

     total magnetization       =     1.45 Bohr mag/cell
     absolute magnetization    =     2.18 Bohr mag/cell
[tb_dev] Currently allocated     6.38E-01 Mbytes, locked:    0 /   6
[tb_pin] Currently allocated     0.00E+00 Mbytes, locked:    0 /   0

     iteration # 75     ecut=    45.00 Ry     beta= 0.20
     Davidson diagonalization with overlap

---- Real-time Memory Report at c_bands before calling an iterative solver
          1066 MiB given to the printing process from OS
           860 MiB allocation reported by mallinfo(arena+hblkhd)
         58587 MiB available memory on the node where the printing process lives
     GPU memory used/free/total (MiB): 1126 / 15154 / 16280
------------------
     ethr =  3.48E-09,  avg # of iterations =  3.5

     negative rho (up, down):  5.015E-02 5.025E-02

     total cpu time spent up to now is      413.1 secs

     total energy              =   -1036.63715764 Ry
     estimated scf accuracy    <       0.00000358 Ry

     total magnetization       =     1.47 Bohr mag/cell
     absolute magnetization    =     2.21 Bohr mag/cell
[tb_dev] Currently allocated     6.38E-01 Mbytes, locked:    0 /   6
[tb_pin] Currently allocated     0.00E+00 Mbytes, locked:    0 /   0

     iteration # 76     ecut=    45.00 Ry     beta= 0.20
     Davidson diagonalization with overlap

---- Real-time Memory Report at c_bands before calling an iterative solver
          1066 MiB given to the printing process from OS
           860 MiB allocation reported by mallinfo(arena+hblkhd)
         58588 MiB available memory on the node where the printing process lives
     GPU memory used/free/total (MiB): 1126 / 15154 / 16280
------------------
     ethr =  3.48E-09,  avg # of iterations =  2.3

     negative rho (up, down):  5.015E-02 5.026E-02

     total cpu time spent up to now is      416.7 secs

     total energy              =   -1036.63715549 Ry
     estimated scf accuracy    <       0.00000377 Ry

     total magnetization       =     1.45 Bohr mag/cell
     absolute magnetization    =     2.19 Bohr mag/cell
[tb_dev] Currently allocated     6.38E-01 Mbytes, locked:    0 /   6
[tb_pin] Currently allocated     0.00E+00 Mbytes, locked:    0 /   0

     iteration # 77     ecut=    45.00 Ry     beta= 0.20
     Davidson diagonalization with overlap

---- Real-time Memory Report at c_bands before calling an iterative solver
          1066 MiB given to the printing process from OS
           860 MiB allocation reported by mallinfo(arena+hblkhd)
         58587 MiB available memory on the node where the printing process lives
     GPU memory used/free/total (MiB): 1126 / 15154 / 16280
------------------
     ethr =  3.48E-09,  avg # of iterations =  2.1

     negative rho (up, down):  5.015E-02 5.026E-02

     total cpu time spent up to now is      419.9 secs

     total energy              =   -1036.63714266 Ry
     estimated scf accuracy    <       0.00000361 Ry

     total magnetization       =     1.47 Bohr mag/cell
     absolute magnetization    =     2.20 Bohr mag/cell
[tb_dev] Currently allocated     6.38E-01 Mbytes, locked:    0 /   6
[tb_pin] Currently allocated     0.00E+00 Mbytes, locked:    0 /   0

     iteration # 78     ecut=    45.00 Ry     beta= 0.20
     Davidson diagonalization with overlap

---- Real-time Memory Report at c_bands before calling an iterative solver
          1066 MiB given to the printing process from OS
           860 MiB allocation reported by mallinfo(arena+hblkhd)
         58588 MiB available memory on the node where the printing process lives
     GPU memory used/free/total (MiB): 1126 / 15154 / 16280
------------------
     ethr =  3.48E-09,  avg # of iterations =  3.8

     negative rho (up, down):  5.015E-02 5.026E-02

     total cpu time spent up to now is      424.8 secs

     total energy              =   -1036.63714746 Ry
     estimated scf accuracy    <       0.00000301 Ry

     total magnetization       =     1.49 Bohr mag/cell
     absolute magnetization    =     2.24 Bohr mag/cell
[tb_dev] Currently allocated     6.38E-01 Mbytes, locked:    0 /   6
[tb_pin] Currently allocated     0.00E+00 Mbytes, locked:    0 /   0

     iteration # 79     ecut=    45.00 Ry     beta= 0.20
     Davidson diagonalization with overlap

---- Real-time Memory Report at c_bands before calling an iterative solver
          1066 MiB given to the printing process from OS
           860 MiB allocation reported by mallinfo(arena+hblkhd)
         58588 MiB available memory on the node where the printing process lives
     GPU memory used/free/total (MiB): 1126 / 15154 / 16280
------------------
     ethr =  3.48E-09,  avg # of iterations =  2.0

     negative rho (up, down):  5.014E-02 5.027E-02

     total cpu time spent up to now is      428.0 secs

     total energy              =   -1036.63660258 Ry
     estimated scf accuracy    <       0.00000288 Ry

     total magnetization       =     1.50 Bohr mag/cell
     absolute magnetization    =     2.26 Bohr mag/cell
[tb_dev] Currently allocated     6.38E-01 Mbytes, locked:    0 /   6
[tb_pin] Currently allocated     0.00E+00 Mbytes, locked:    0 /   0

     iteration # 80     ecut=    45.00 Ry     beta= 0.20
     Davidson diagonalization with overlap

---- Real-time Memory Report at c_bands before calling an iterative solver
          1066 MiB given to the printing process from OS
           860 MiB allocation reported by mallinfo(arena+hblkhd)
         58587 MiB available memory on the node where the printing process lives
     GPU memory used/free/total (MiB): 1126 / 15154 / 16280
------------------
     ethr =  3.48E-09,  avg # of iterations =  6.4

     negative rho (up, down):  5.015E-02 5.026E-02

     total cpu time spent up to now is      435.2 secs

     total energy              =   -1036.63663381 Ry
     estimated scf accuracy    <       0.00001180 Ry

     total magnetization       =     1.69 Bohr mag/cell
     absolute magnetization    =     2.54 Bohr mag/cell

     End of self-consistent calculation

     convergence NOT achieved after  80 iterations: stopping

     Writing config to output data dir ./out/aiida.save/
 
     init_run     :     10.01s CPU      2.26s WALL (       1 calls)
     electrons    :    538.64s CPU    432.17s WALL (       1 calls)

     Called by init_run:
     wfcinit      :      0.39s CPU      0.39s WALL (       1 calls)
                                        0.39s GPU  (       1 calls)
     potinit      :      0.36s CPU      0.10s WALL (       1 calls)
     hinit0       :      7.02s CPU      1.25s WALL (       1 calls)

     Called by electrons:
     c_bands      :    471.28s CPU    391.79s WALL (      81 calls)
     sum_band     :     29.17s CPU     36.31s WALL (      81 calls)
     v_of_rho     :      6.49s CPU      0.60s WALL (      81 calls)
     v_h          :      0.96s CPU      0.09s WALL (      81 calls)
     v_xc         :      5.52s CPU      0.51s WALL (      81 calls)
     newd         :     17.73s CPU      1.88s WALL (      81 calls)
                                        1.88s GPU  (      81 calls)
     mix_rho      :      7.37s CPU      0.73s WALL (      81 calls)

     Called by c_bands:
     init_us_2    :     30.09s CPU     28.31s WALL (   27216 calls)
     init_us_2:gp :     29.56s CPU     27.85s WALL (   27216 calls)
     cegterg      :    427.68s CPU    353.54s WALL (   13608 calls)

     Called by sum_band:
     sum_band:wei :      0.52s CPU      0.53s WALL (      81 calls)
                                        0.53s GPU  (      81 calls)
     sum_band:loo :     26.23s CPU     33.12s WALL (      81 calls)
                                       33.12s GPU  (      81 calls)
     sum_band:buf :      3.71s CPU      4.64s WALL (   13608 calls)
                                        4.56s GPU  (   13608 calls)
     sum_band:ini :     10.55s CPU     13.75s WALL (   13608 calls)
                                       13.68s GPU  (   13608 calls)
     sum_band:cal :      0.39s CPU      0.97s WALL (   13608 calls)
                                        0.89s GPU  (   13608 calls)
     sum_band:bec :      1.77s CPU      2.32s WALL (   13608 calls)
                                        2.23s GPU  (   13608 calls)
     addusdens    :      1.98s CPU      2.18s WALL (      81 calls)
                                        2.18s GPU  (      81 calls)
     addusd:skk   :      0.01s CPU      0.01s WALL (     162 calls)
                                        0.01s GPU  (     162 calls)

     Called by *egterg:
     cdiaghg      :    255.14s CPU    216.00s WALL (   71013 calls)
                                      215.52s GPU  (   71013 calls)
     cegterg:over :      8.70s CPU      7.08s WALL (   57741 calls)
     cegterg:upda :     24.11s CPU     19.64s WALL (   57741 calls)
     cegterg:last :      4.61s CPU      3.78s WALL (   36468 calls)
     h_psi        :    100.24s CPU     80.59s WALL (   71349 calls)
                                       80.21s GPU  (   71349 calls)
     s_psi        :      7.77s CPU      9.01s WALL (   71349 calls)
                                        8.49s GPU  (   71349 calls)
     g_psi        :      0.53s CPU      1.19s WALL (   57741 calls)
                                        0.83s GPU  (   57741 calls)

     Called by h_psi:
     h_psi:calbec :      2.99s CPU      5.45s WALL (   71349 calls)
                                        5.02s GPU  (   71349 calls)
     vloc_psi     :     76.01s CPU     61.27s WALL (   71349 calls)
                                       60.85s GPU  (   71349 calls)
     add_vuspsi   :      9.48s CPU      9.54s WALL (   71349 calls)
                                        9.13s GPU  (   71349 calls)

     General routines
     calbec       :      2.58s CPU      2.18s WALL (   84957 calls)
     fft          :      3.64s CPU      0.39s WALL (    2025 calls)
                                        0.23s GPU  (    1863 calls)
     ffts         :      1.05s CPU      0.11s WALL (     324 calls)
                                        0.01s GPU  (     162 calls)
     fftw         :      7.86s CPU     30.33s WALL (  321332 calls)
                                       28.55s GPU  (  321332 calls)
     interpolate  :      3.20s CPU      0.29s WALL (     162 calls)
     davcio       :      1.44s CPU      0.37s WALL (     354 calls)
 
     Parallel routines
 
     PWSCF        :   9m12.86s CPU   7m15.49s WALL

 
   This run was terminated on:  20:25:26  23Oct2023            

=------------------------------------------------------------------------------=
   JOB DONE.
=------------------------------------------------------------------------------=
