
     Program PWSCF v.7.2 starts on 28Nov2023 at 21:44:33 
        Git branch: develop
        Last git commit: 9055681be6fc8200e6fffe76ed5fda34c2696339
        Last git commit date: Wed Nov 8 16:29:39 2023 +0000
        Last git commit subject: Merge branch 'calbec_fix' into 'develop'

     This program is part of the open-source Quantum ESPRESSO suite
     for quantum simulation of materials; please cite
         "P. Giannozzi et al., J. Phys.:Condens. Matter 21 395502 (2009);
         "P. Giannozzi et al., J. Phys.:Condens. Matter 29 465901 (2017);
         "P. Giannozzi et al., J. Chem. Phys. 152 154105 (2020);
          URL http://www.quantum-espresso.org", 
     in publications or presentations arising from this work. More details at
     http://www.quantum-espresso.org/quote

     Parallel version (MPI), running on    56 processors

     MPI processes distributed on     1 nodes
     487469 MiB available memory on the printing compute node when the environment starts

     Reading input from aiida.in

     Current dimensions of program PWSCF are:
     Max number of different atomic species (ntypx) = 10
     Max number of k-points (npk) =  40000
     Max angular momentum in pseudopotentials (lmaxx) =  4
     file Ba.pbesol-spn-kjpaw_psl.1.0.0.UPF: wavefunction(s)  5S 6S renormalized
     file O.pbesol-n-kjpaw_psl.0.1.UPF: wavefunction(s)  2P renormalized
     Message from routine setup:
     using ibrav=0 with symmetry is DISCOURAGED, use correct ibrav instead

     K-points division:     npool     =       8
     R & G space division:  proc/nbgrp/npool/nimage =       7
     Subspace diagonalization in iterative solution of the eigenvalue problem:
     a serial algorithm will be used


     Parallelization info
     --------------------
     sticks:   dense  smooth     PW     G-vecs:    dense   smooth      PW
     Min         756     250     76                37176     7147    1195
     Max         758     251     77                37177     7149    1196
     Sum        5299    1755    533               260235    50033    8371

     Using Slab Decomposition



     bravais-lattice index     =            0
     lattice parameter (alat)  =      11.6178  a.u.
     unit-cell volume          =     707.0081 (a.u.)^3
     number of atoms/cell      =            8
     number of atomic types    =            3
     number of electrons       =        70.00
     number of Kohn-Sham states=           42
     kinetic-energy cutoff     =      65.0000  Ry
     charge density cutoff     =     780.0000  Ry
     scf convergence threshold =      1.6E-09
     mixing beta               =       0.4000
     number of iterations used =            8  plain     mixing
     Exchange-correlation= SLA  PW   PSX  PSC
                           (   1   4  10   8   0   0   0)

     celldm(1)=  11.617844  celldm(2)=   0.000000  celldm(3)=   0.000000
     celldm(4)=   0.000000  celldm(5)=   0.000000  celldm(6)=   0.000000

     crystal axes: (cart. coord. in units of alat)
               a(1) = (   0.000000   0.942192  -0.335074 )  
               a(2) = (   0.000000   0.942192   0.335074 )  
               a(3) = (   0.714065   0.000000   0.000000 )  

     reciprocal axes: (cart. coord. in units 2 pi/alat)
               b(1) = (  0.000000  0.530677 -1.492208 )  
               b(2) = ( -0.000000  0.530677  1.492208 )  
               b(3) = (  1.400432 -0.000000  0.000000 )  


     PseudoPot. # 1 for Ba read from file:
     ./pseudo/Ba.pbesol-spn-kjpaw_psl.1.0.0.UPF
     MD5 check sum: f28c4a63d325c1a0d00fd3a4f19b8d73
     Pseudo is Projector augmented-wave + core cor, Zval = 10.0
     Generated using "atomic" code by A. Dal Corso  v.6.0 svn rev. 13079
     Shape of augmentation charge: PSQ
     Using radial grid of 1251 points,  7 beta functions with: 
                l(1) =   0
                l(2) =   0
                l(3) =   0
                l(4) =   1
                l(5) =   1
                l(6) =   2
                l(7) =   2
     Q(r) pseudized with 0 coefficients 


     PseudoPot. # 2 for Mn read from file:
     ./pseudo/mn_pbesol_v1.5.uspp.F.UPF
     MD5 check sum: 0716d5f563e6e95a34f9080f4c78c109
     Pseudo is Ultrasoft + core correction, Zval = 15.0
     Generated by new atomic code, or converted to UPF format
     Using radial grid of  859 points,  6 beta functions with: 
                l(1) =   0
                l(2) =   0
                l(3) =   1
                l(4) =   1
                l(5) =   2
                l(6) =   2
     Q(r) pseudized with  8 coefficients,  rinner =    0.950   0.950   0.950
                                                       0.950   0.950

     PseudoPot. # 3 for O  read from file:
     ./pseudo/O.pbesol-n-kjpaw_psl.0.1.UPF
     MD5 check sum: 81d73d1479e654e5638b0319f0d6c2c7
     Pseudo is Projector augmented-wave + core cor, Zval =  6.0
     Generated using "atomic" code by A. Dal Corso  v.6.0 svn rev. 13079
     Shape of augmentation charge: BESSEL
     Using radial grid of 1095 points,  4 beta functions with: 
                l(1) =   0
                l(2) =   0
                l(3) =   1
                l(4) =   1
     Q(r) pseudized with 0 coefficients 


     atomic species   valence    mass     pseudopotential
     Ba               10.00   137.32700     Ba( 1.00)
     Mn               15.00    54.93805     Mn( 1.00)
     O                 6.00    15.99940     O ( 1.00)

     Starting magnetic structure 
     atomic species   magnetization
     Ba              0.100
     Mn              0.333
     O               0.100

      4 Sym. Ops. (no inversion) found


                                    s                        frac. trans.

      isym =  1     identity                                     

 cryst.   s( 1) = (     1          0          0      )
                  (     0          1          0      )
                  (     0          0          1      )

 cart.    s( 1) = (  1.0000000  0.0000000  0.0000000 )
                  (  0.0000000  1.0000000 -0.0000000 )
                  (  0.0000000 -0.0000000  1.0000000 )


      isym =  2     180 deg rotation - cart. axis [0,0,1]        

 cryst.   s( 2) = (     0         -1          0      )
                  (    -1          0          0      )
                  (     0          0         -1      )

 cart.    s( 2) = ( -1.0000000  0.0000000  0.0000000 )
                  (  0.0000000 -1.0000000 -0.0000000 )
                  (  0.0000000  0.0000000  1.0000000 )


      isym =  3     inv. 180 deg rotation - cart. axis [0,1,0]   

 cryst.   s( 3) = (     0         -1          0      )
                  (    -1          0          0      )
                  (     0          0          1      )

 cart.    s( 3) = (  1.0000000  0.0000000  0.0000000 )
                  (  0.0000000 -1.0000000 -0.0000000 )
                  (  0.0000000  0.0000000  1.0000000 )


      isym =  4     inv. 180 deg rotation - cart. axis [1,0,0]   

 cryst.   s( 4) = (     1          0          0      )
                  (     0          1          0      )
                  (     0          0         -1      )

 cart.    s( 4) = ( -1.0000000  0.0000000  0.0000000 )
                  (  0.0000000  1.0000000 -0.0000000 )
                  (  0.0000000 -0.0000000  1.0000000 )


   Cartesian axes

     site n.     atom                  positions (alat units)
         1        Ba     tau(   1) = (   0.3570326   0.0000000   0.3350738  )
         2        Mn     tau(   2) = (   0.0000000   1.5808095   0.0053612  )
         3        Mn     tau(   3) = (   0.0000000   1.2457661   0.3404350  )
         4        O      tau(   4) = (   0.3570326   1.5742142   0.0006701  )
         5        O      tau(   5) = (   0.3570326   1.2523614   0.3357440  )
         6        O      tau(   6) = (   0.0000000   1.2696978   0.0140731  )
         7        O      tau(   7) = (   0.0000000   1.5568778   0.3491469  )
         8        O      tau(   8) = (   0.0000000   0.0000000  -0.0000000  )

   Crystallographic axes

     site n.     atom                  positions (cryst. coord.)
         1        Ba     tau(   1) = ( -0.5000000  0.5000000  0.5000000  )
         2        Mn     tau(   2) = (  0.8309000  0.8469000  0.0000000  )
         3        Mn     tau(   3) = (  0.1531000  1.1691000  0.0000000  )
         4        O      tau(   4) = (  0.8344000  0.8364000  0.5000000  )
         5        O      tau(   5) = (  0.1636000  1.1656000  0.5000000  )
         6        O      tau(   6) = (  0.6528000  0.6948000  0.0000000  )
         7        O      tau(   7) = (  0.3052000  1.3472000  0.0000000  )
         8        O      tau(   8) = (  0.0000000  0.0000000  0.0000000  )

     number of k points=   216  Marzari-Vanderbilt smearing, width (Ry)=  0.0200
                       cart. coord. in units 2pi/alat
        k(    1) = (   0.0000000   0.0000000   0.0000000), wk =   0.0008264
        k(    2) = (   0.1400432   0.0000000   0.0000000), wk =   0.0016529
        k(    3) = (   0.2800865   0.0000000   0.0000000), wk =   0.0016529
        k(    4) = (   0.4201297   0.0000000   0.0000000), wk =   0.0016529
        k(    5) = (   0.5601730   0.0000000   0.0000000), wk =   0.0016529
        k(    6) = (  -0.7002162   0.0000000   0.0000000), wk =   0.0008264
        k(    7) = (   0.0000000   0.0482434   0.1356553), wk =   0.0033058
        k(    8) = (   0.1400432   0.0482434   0.1356553), wk =   0.0066116
        k(    9) = (   0.2800865   0.0482434   0.1356553), wk =   0.0066116
        k(   10) = (   0.4201297   0.0482434   0.1356553), wk =   0.0066116
        k(   11) = (   0.5601730   0.0482434   0.1356553), wk =   0.0066116
        k(   12) = (  -0.7002162   0.0482434   0.1356553), wk =   0.0033058
        k(   13) = (   0.0000000   0.0964868   0.2713106), wk =   0.0033058
        k(   14) = (   0.1400432   0.0964868   0.2713106), wk =   0.0066116
        k(   15) = (   0.2800865   0.0964868   0.2713106), wk =   0.0066116
        k(   16) = (   0.4201297   0.0964868   0.2713106), wk =   0.0066116
        k(   17) = (   0.5601730   0.0964868   0.2713106), wk =   0.0066116
        k(   18) = (  -0.7002162   0.0964868   0.2713106), wk =   0.0033058
        k(   19) = (   0.0000000   0.1447302   0.4069659), wk =   0.0033058
        k(   20) = (   0.1400432   0.1447302   0.4069659), wk =   0.0066116
        k(   21) = (   0.2800865   0.1447302   0.4069659), wk =   0.0066116
        k(   22) = (   0.4201297   0.1447302   0.4069659), wk =   0.0066116
        k(   23) = (   0.5601730   0.1447302   0.4069659), wk =   0.0066116
        k(   24) = (  -0.7002162   0.1447302   0.4069659), wk =   0.0033058
        k(   25) = (   0.0000000   0.1929736   0.5426212), wk =   0.0033058
        k(   26) = (   0.1400432   0.1929736   0.5426212), wk =   0.0066116
        k(   27) = (   0.2800865   0.1929736   0.5426212), wk =   0.0066116
        k(   28) = (   0.4201297   0.1929736   0.5426212), wk =   0.0066116
        k(   29) = (   0.5601730   0.1929736   0.5426212), wk =   0.0066116
        k(   30) = (  -0.7002162   0.1929736   0.5426212), wk =   0.0033058
        k(   31) = (   0.0000000   0.2412170   0.6782765), wk =   0.0033058
        k(   32) = (   0.1400432   0.2412170   0.6782765), wk =   0.0066116
        k(   33) = (   0.2800865   0.2412170   0.6782765), wk =   0.0066116
        k(   34) = (   0.4201297   0.2412170   0.6782765), wk =   0.0066116
        k(   35) = (   0.5601730   0.2412170   0.6782765), wk =   0.0066116
        k(   36) = (  -0.7002162   0.2412170   0.6782765), wk =   0.0033058
        k(   37) = (   0.0000000   0.0964868  -0.0000000), wk =   0.0016529
        k(   38) = (   0.1400432   0.0964868  -0.0000000), wk =   0.0033058
        k(   39) = (   0.2800865   0.0964868  -0.0000000), wk =   0.0033058
        k(   40) = (   0.4201297   0.0964868  -0.0000000), wk =   0.0033058
        k(   41) = (   0.5601730   0.0964868  -0.0000000), wk =   0.0033058
        k(   42) = (  -0.7002162   0.0964868  -0.0000000), wk =   0.0016529
        k(   43) = (   0.0000000   0.1447302   0.1356553), wk =   0.0033058
        k(   44) = (   0.1400432   0.1447302   0.1356553), wk =   0.0066116
        k(   45) = (   0.2800865   0.1447302   0.1356553), wk =   0.0066116
        k(   46) = (   0.4201297   0.1447302   0.1356553), wk =   0.0066116
        k(   47) = (   0.5601730   0.1447302   0.1356553), wk =   0.0066116
        k(   48) = (  -0.7002162   0.1447302   0.1356553), wk =   0.0033058
        k(   49) = (   0.0000000   0.1929736   0.2713106), wk =   0.0033058
        k(   50) = (   0.1400432   0.1929736   0.2713106), wk =   0.0066116
        k(   51) = (   0.2800865   0.1929736   0.2713106), wk =   0.0066116
        k(   52) = (   0.4201297   0.1929736   0.2713106), wk =   0.0066116
        k(   53) = (   0.5601730   0.1929736   0.2713106), wk =   0.0066116
        k(   54) = (  -0.7002162   0.1929736   0.2713106), wk =   0.0033058
        k(   55) = (   0.0000000   0.2412170   0.4069659), wk =   0.0033058
        k(   56) = (   0.1400432   0.2412170   0.4069659), wk =   0.0066116
        k(   57) = (   0.2800865   0.2412170   0.4069659), wk =   0.0066116
        k(   58) = (   0.4201297   0.2412170   0.4069659), wk =   0.0066116
        k(   59) = (   0.5601730   0.2412170   0.4069659), wk =   0.0066116
        k(   60) = (  -0.7002162   0.2412170   0.4069659), wk =   0.0033058
        k(   61) = (   0.0000000   0.2894604   0.5426212), wk =   0.0033058
        k(   62) = (   0.1400432   0.2894604   0.5426212), wk =   0.0066116
        k(   63) = (   0.2800865   0.2894604   0.5426212), wk =   0.0066116
        k(   64) = (   0.4201297   0.2894604   0.5426212), wk =   0.0066116
        k(   65) = (   0.5601730   0.2894604   0.5426212), wk =   0.0066116
        k(   66) = (  -0.7002162   0.2894604   0.5426212), wk =   0.0033058
        k(   67) = (   0.0000000  -0.1929736  -0.8139318), wk =   0.0033058
        k(   68) = (   0.1400432  -0.1929736  -0.8139318), wk =   0.0066116
        k(   69) = (   0.2800865  -0.1929736  -0.8139318), wk =   0.0066116
        k(   70) = (   0.4201297  -0.1929736  -0.8139318), wk =   0.0066116
        k(   71) = (   0.5601730  -0.1929736  -0.8139318), wk =   0.0066116
        k(   72) = (  -0.7002162  -0.1929736  -0.8139318), wk =   0.0033058
        k(   73) = (   0.0000000  -0.1447302  -0.6782765), wk =   0.0033058
        k(   74) = (   0.1400432  -0.1447302  -0.6782765), wk =   0.0066116
        k(   75) = (   0.2800865  -0.1447302  -0.6782765), wk =   0.0066116
        k(   76) = (   0.4201297  -0.1447302  -0.6782765), wk =   0.0066116
        k(   77) = (   0.5601730  -0.1447302  -0.6782765), wk =   0.0066116
        k(   78) = (  -0.7002162  -0.1447302  -0.6782765), wk =   0.0033058
        k(   79) = (   0.0000000  -0.0964868  -0.5426212), wk =   0.0033058
        k(   80) = (   0.1400432  -0.0964868  -0.5426212), wk =   0.0066116
        k(   81) = (   0.2800865  -0.0964868  -0.5426212), wk =   0.0066116
        k(   82) = (   0.4201297  -0.0964868  -0.5426212), wk =   0.0066116
        k(   83) = (   0.5601730  -0.0964868  -0.5426212), wk =   0.0066116
        k(   84) = (  -0.7002162  -0.0964868  -0.5426212), wk =   0.0033058
        k(   85) = (   0.0000000  -0.0482434  -0.4069659), wk =   0.0033058
        k(   86) = (   0.1400432  -0.0482434  -0.4069659), wk =   0.0066116
        k(   87) = (   0.2800865  -0.0482434  -0.4069659), wk =   0.0066116
        k(   88) = (   0.4201297  -0.0482434  -0.4069659), wk =   0.0066116
        k(   89) = (   0.5601730  -0.0482434  -0.4069659), wk =   0.0066116
        k(   90) = (  -0.7002162  -0.0482434  -0.4069659), wk =   0.0033058
        k(   91) = (   0.0000000  -0.0000000  -0.2713106), wk =   0.0016529
        k(   92) = (   0.1400432  -0.0000000  -0.2713106), wk =   0.0033058
        k(   93) = (   0.2800865  -0.0000000  -0.2713106), wk =   0.0033058
        k(   94) = (   0.4201297  -0.0000000  -0.2713106), wk =   0.0033058
        k(   95) = (   0.5601730  -0.0000000  -0.2713106), wk =   0.0033058
        k(   96) = (  -0.7002162  -0.0000000  -0.2713106), wk =   0.0016529
        k(   97) = (   0.0000000   0.1929736  -0.0000000), wk =   0.0016529
        k(   98) = (   0.1400432   0.1929736  -0.0000000), wk =   0.0033058
        k(   99) = (   0.2800865   0.1929736  -0.0000000), wk =   0.0033058
        k(  100) = (   0.4201297   0.1929736  -0.0000000), wk =   0.0033058
        k(  101) = (   0.5601730   0.1929736  -0.0000000), wk =   0.0033058
        k(  102) = (  -0.7002162   0.1929736  -0.0000000), wk =   0.0016529
        k(  103) = (   0.0000000   0.2412170   0.1356553), wk =   0.0033058
        k(  104) = (   0.1400432   0.2412170   0.1356553), wk =   0.0066116
        k(  105) = (   0.2800865   0.2412170   0.1356553), wk =   0.0066116
        k(  106) = (   0.4201297   0.2412170   0.1356553), wk =   0.0066116
        k(  107) = (   0.5601730   0.2412170   0.1356553), wk =   0.0066116
        k(  108) = (  -0.7002162   0.2412170   0.1356553), wk =   0.0033058
        k(  109) = (   0.0000000   0.2894604   0.2713106), wk =   0.0033058
        k(  110) = (   0.1400432   0.2894604   0.2713106), wk =   0.0066116
        k(  111) = (   0.2800865   0.2894604   0.2713106), wk =   0.0066116
        k(  112) = (   0.4201297   0.2894604   0.2713106), wk =   0.0066116
        k(  113) = (   0.5601730   0.2894604   0.2713106), wk =   0.0066116
        k(  114) = (  -0.7002162   0.2894604   0.2713106), wk =   0.0033058
        k(  115) = (   0.0000000   0.3377038   0.4069659), wk =   0.0033058
        k(  116) = (   0.1400432   0.3377038   0.4069659), wk =   0.0066116
        k(  117) = (   0.2800865   0.3377038   0.4069659), wk =   0.0066116
        k(  118) = (   0.4201297   0.3377038   0.4069659), wk =   0.0066116
        k(  119) = (   0.5601730   0.3377038   0.4069659), wk =   0.0066116
        k(  120) = (  -0.7002162   0.3377038   0.4069659), wk =   0.0033058
        k(  121) = (   0.0000000  -0.1447302  -0.9495872), wk =   0.0033058
        k(  122) = (   0.1400432  -0.1447302  -0.9495872), wk =   0.0066116
        k(  123) = (   0.2800865  -0.1447302  -0.9495872), wk =   0.0066116
        k(  124) = (   0.4201297  -0.1447302  -0.9495872), wk =   0.0066116
        k(  125) = (   0.5601730  -0.1447302  -0.9495872), wk =   0.0066116
        k(  126) = (  -0.7002162  -0.1447302  -0.9495872), wk =   0.0033058
        k(  127) = (   0.0000000  -0.0964868  -0.8139318), wk =   0.0033058
        k(  128) = (   0.1400432  -0.0964868  -0.8139318), wk =   0.0066116
        k(  129) = (   0.2800865  -0.0964868  -0.8139318), wk =   0.0066116
        k(  130) = (   0.4201297  -0.0964868  -0.8139318), wk =   0.0066116
        k(  131) = (   0.5601730  -0.0964868  -0.8139318), wk =   0.0066116
        k(  132) = (  -0.7002162  -0.0964868  -0.8139318), wk =   0.0033058
        k(  133) = (   0.0000000  -0.0482434  -0.6782765), wk =   0.0033058
        k(  134) = (   0.1400432  -0.0482434  -0.6782765), wk =   0.0066116
        k(  135) = (   0.2800865  -0.0482434  -0.6782765), wk =   0.0066116
        k(  136) = (   0.4201297  -0.0482434  -0.6782765), wk =   0.0066116
        k(  137) = (   0.5601730  -0.0482434  -0.6782765), wk =   0.0066116
        k(  138) = (  -0.7002162  -0.0482434  -0.6782765), wk =   0.0033058
        k(  139) = (   0.0000000   0.0000000  -0.5426212), wk =   0.0016529
        k(  140) = (   0.1400432   0.0000000  -0.5426212), wk =   0.0033058
        k(  141) = (   0.2800865   0.0000000  -0.5426212), wk =   0.0033058
        k(  142) = (   0.4201297   0.0000000  -0.5426212), wk =   0.0033058
        k(  143) = (   0.5601730   0.0000000  -0.5426212), wk =   0.0033058
        k(  144) = (  -0.7002162   0.0000000  -0.5426212), wk =   0.0016529
        k(  145) = (   0.0000000   0.2894604  -0.0000000), wk =   0.0016529
        k(  146) = (   0.1400432   0.2894604  -0.0000000), wk =   0.0033058
        k(  147) = (   0.2800865   0.2894604  -0.0000000), wk =   0.0033058
        k(  148) = (   0.4201297   0.2894604  -0.0000000), wk =   0.0033058
        k(  149) = (   0.5601730   0.2894604  -0.0000000), wk =   0.0033058
        k(  150) = (  -0.7002162   0.2894604  -0.0000000), wk =   0.0016529
        k(  151) = (   0.0000000   0.3377038   0.1356553), wk =   0.0033058
        k(  152) = (   0.1400432   0.3377038   0.1356553), wk =   0.0066116
        k(  153) = (   0.2800865   0.3377038   0.1356553), wk =   0.0066116
        k(  154) = (   0.4201297   0.3377038   0.1356553), wk =   0.0066116
        k(  155) = (   0.5601730   0.3377038   0.1356553), wk =   0.0066116
        k(  156) = (  -0.7002162   0.3377038   0.1356553), wk =   0.0033058
        k(  157) = (   0.0000000   0.3859473   0.2713106), wk =   0.0033058
        k(  158) = (   0.1400432   0.3859473   0.2713106), wk =   0.0066116
        k(  159) = (   0.2800865   0.3859473   0.2713106), wk =   0.0066116
        k(  160) = (   0.4201297   0.3859473   0.2713106), wk =   0.0066116
        k(  161) = (   0.5601730   0.3859473   0.2713106), wk =   0.0066116
        k(  162) = (  -0.7002162   0.3859473   0.2713106), wk =   0.0033058
        k(  163) = (   0.0000000  -0.0964868  -1.0852425), wk =   0.0033058
        k(  164) = (   0.1400432  -0.0964868  -1.0852425), wk =   0.0066116
        k(  165) = (   0.2800865  -0.0964868  -1.0852425), wk =   0.0066116
        k(  166) = (   0.4201297  -0.0964868  -1.0852425), wk =   0.0066116
        k(  167) = (   0.5601730  -0.0964868  -1.0852425), wk =   0.0066116
        k(  168) = (  -0.7002162  -0.0964868  -1.0852425), wk =   0.0033058
        k(  169) = (   0.0000000  -0.0482434  -0.9495872), wk =   0.0033058
        k(  170) = (   0.1400432  -0.0482434  -0.9495872), wk =   0.0066116
        k(  171) = (   0.2800865  -0.0482434  -0.9495872), wk =   0.0066116
        k(  172) = (   0.4201297  -0.0482434  -0.9495872), wk =   0.0066116
        k(  173) = (   0.5601730  -0.0482434  -0.9495872), wk =   0.0066116
        k(  174) = (  -0.7002162  -0.0482434  -0.9495872), wk =   0.0033058
        k(  175) = (   0.0000000   0.0000000  -0.8139318), wk =   0.0016529
        k(  176) = (   0.1400432   0.0000000  -0.8139318), wk =   0.0033058
        k(  177) = (   0.2800865   0.0000000  -0.8139318), wk =   0.0033058
        k(  178) = (   0.4201297   0.0000000  -0.8139318), wk =   0.0033058
        k(  179) = (   0.5601730   0.0000000  -0.8139318), wk =   0.0033058
        k(  180) = (  -0.7002162   0.0000000  -0.8139318), wk =   0.0016529
        k(  181) = (   0.0000000   0.3859473  -0.0000000), wk =   0.0016529
        k(  182) = (   0.1400432   0.3859473  -0.0000000), wk =   0.0033058
        k(  183) = (   0.2800865   0.3859473  -0.0000000), wk =   0.0033058
        k(  184) = (   0.4201297   0.3859473  -0.0000000), wk =   0.0033058
        k(  185) = (   0.5601730   0.3859473  -0.0000000), wk =   0.0033058
        k(  186) = (  -0.7002162   0.3859473  -0.0000000), wk =   0.0016529
        k(  187) = (   0.0000000   0.4341907   0.1356553), wk =   0.0033058
        k(  188) = (   0.1400432   0.4341907   0.1356553), wk =   0.0066116
        k(  189) = (   0.2800865   0.4341907   0.1356553), wk =   0.0066116
        k(  190) = (   0.4201297   0.4341907   0.1356553), wk =   0.0066116
        k(  191) = (   0.5601730   0.4341907   0.1356553), wk =   0.0066116
        k(  192) = (  -0.7002162   0.4341907   0.1356553), wk =   0.0033058
        k(  193) = (   0.0000000  -0.0482434  -1.2208978), wk =   0.0033058
        k(  194) = (   0.1400432  -0.0482434  -1.2208978), wk =   0.0066116
        k(  195) = (   0.2800865  -0.0482434  -1.2208978), wk =   0.0066116
        k(  196) = (   0.4201297  -0.0482434  -1.2208978), wk =   0.0066116
        k(  197) = (   0.5601730  -0.0482434  -1.2208978), wk =   0.0066116
        k(  198) = (  -0.7002162  -0.0482434  -1.2208978), wk =   0.0033058
        k(  199) = (   0.0000000  -0.0000000  -1.0852425), wk =   0.0016529
        k(  200) = (   0.1400432  -0.0000000  -1.0852425), wk =   0.0033058
        k(  201) = (   0.2800865  -0.0000000  -1.0852425), wk =   0.0033058
        k(  202) = (   0.4201297  -0.0000000  -1.0852425), wk =   0.0033058
        k(  203) = (   0.5601730  -0.0000000  -1.0852425), wk =   0.0033058
        k(  204) = (  -0.7002162  -0.0000000  -1.0852425), wk =   0.0016529
        k(  205) = (   0.0000000   0.4824341  -0.0000000), wk =   0.0016529
        k(  206) = (   0.1400432   0.4824341  -0.0000000), wk =   0.0033058
        k(  207) = (   0.2800865   0.4824341  -0.0000000), wk =   0.0033058
        k(  208) = (   0.4201297   0.4824341  -0.0000000), wk =   0.0033058
        k(  209) = (   0.5601730   0.4824341  -0.0000000), wk =   0.0033058
        k(  210) = (  -0.7002162   0.4824341  -0.0000000), wk =   0.0016529
        k(  211) = (   0.0000000  -0.0000000  -1.3565531), wk =   0.0016529
        k(  212) = (   0.1400432  -0.0000000  -1.3565531), wk =   0.0033058
        k(  213) = (   0.2800865  -0.0000000  -1.3565531), wk =   0.0033058
        k(  214) = (   0.4201297  -0.0000000  -1.3565531), wk =   0.0033058
        k(  215) = (   0.5601730  -0.0000000  -1.3565531), wk =   0.0033058
        k(  216) = (  -0.7002162  -0.0000000  -1.3565531), wk =   0.0016529

                       cryst. coord.
        k(    1) = (   0.0000000   0.0000000   0.0000000), wk =   0.0008264
        k(    2) = (   0.0000000   0.0000000   0.1000000), wk =   0.0016529
        k(    3) = (   0.0000000   0.0000000   0.2000000), wk =   0.0016529
        k(    4) = (   0.0000000   0.0000000   0.3000000), wk =   0.0016529
        k(    5) = (   0.0000000   0.0000000   0.4000000), wk =   0.0016529
        k(    6) = (   0.0000000   0.0000000  -0.5000000), wk =   0.0008264
        k(    7) = (   0.0000000   0.0909091   0.0000000), wk =   0.0033058
        k(    8) = (   0.0000000   0.0909091   0.1000000), wk =   0.0066116
        k(    9) = (   0.0000000   0.0909091   0.2000000), wk =   0.0066116
        k(   10) = (   0.0000000   0.0909091   0.3000000), wk =   0.0066116
        k(   11) = (   0.0000000   0.0909091   0.4000000), wk =   0.0066116
        k(   12) = (   0.0000000   0.0909091  -0.5000000), wk =   0.0033058
        k(   13) = (   0.0000000   0.1818182   0.0000000), wk =   0.0033058
        k(   14) = (   0.0000000   0.1818182   0.1000000), wk =   0.0066116
        k(   15) = (   0.0000000   0.1818182   0.2000000), wk =   0.0066116
        k(   16) = (   0.0000000   0.1818182   0.3000000), wk =   0.0066116
        k(   17) = (   0.0000000   0.1818182   0.4000000), wk =   0.0066116
        k(   18) = (   0.0000000   0.1818182  -0.5000000), wk =   0.0033058
        k(   19) = (   0.0000000   0.2727273   0.0000000), wk =   0.0033058
        k(   20) = (   0.0000000   0.2727273   0.1000000), wk =   0.0066116
        k(   21) = (   0.0000000   0.2727273   0.2000000), wk =   0.0066116
        k(   22) = (   0.0000000   0.2727273   0.3000000), wk =   0.0066116
        k(   23) = (   0.0000000   0.2727273   0.4000000), wk =   0.0066116
        k(   24) = (   0.0000000   0.2727273  -0.5000000), wk =   0.0033058
        k(   25) = (   0.0000000   0.3636364   0.0000000), wk =   0.0033058
        k(   26) = (   0.0000000   0.3636364   0.1000000), wk =   0.0066116
        k(   27) = (   0.0000000   0.3636364   0.2000000), wk =   0.0066116
        k(   28) = (   0.0000000   0.3636364   0.3000000), wk =   0.0066116
        k(   29) = (   0.0000000   0.3636364   0.4000000), wk =   0.0066116
        k(   30) = (   0.0000000   0.3636364  -0.5000000), wk =   0.0033058
        k(   31) = (   0.0000000   0.4545455   0.0000000), wk =   0.0033058
        k(   32) = (   0.0000000   0.4545455   0.1000000), wk =   0.0066116
        k(   33) = (   0.0000000   0.4545455   0.2000000), wk =   0.0066116
        k(   34) = (   0.0000000   0.4545455   0.3000000), wk =   0.0066116
        k(   35) = (   0.0000000   0.4545455   0.4000000), wk =   0.0066116
        k(   36) = (   0.0000000   0.4545455  -0.5000000), wk =   0.0033058
        k(   37) = (   0.0909091   0.0909091   0.0000000), wk =   0.0016529
        k(   38) = (   0.0909091   0.0909091   0.1000000), wk =   0.0033058
        k(   39) = (   0.0909091   0.0909091   0.2000000), wk =   0.0033058
        k(   40) = (   0.0909091   0.0909091   0.3000000), wk =   0.0033058
        k(   41) = (   0.0909091   0.0909091   0.4000000), wk =   0.0033058
        k(   42) = (   0.0909091   0.0909091  -0.5000000), wk =   0.0016529
        k(   43) = (   0.0909091   0.1818182   0.0000000), wk =   0.0033058
        k(   44) = (   0.0909091   0.1818182   0.1000000), wk =   0.0066116
        k(   45) = (   0.0909091   0.1818182   0.2000000), wk =   0.0066116
        k(   46) = (   0.0909091   0.1818182   0.3000000), wk =   0.0066116
        k(   47) = (   0.0909091   0.1818182   0.4000000), wk =   0.0066116
        k(   48) = (   0.0909091   0.1818182  -0.5000000), wk =   0.0033058
        k(   49) = (   0.0909091   0.2727273   0.0000000), wk =   0.0033058
        k(   50) = (   0.0909091   0.2727273   0.1000000), wk =   0.0066116
        k(   51) = (   0.0909091   0.2727273   0.2000000), wk =   0.0066116
        k(   52) = (   0.0909091   0.2727273   0.3000000), wk =   0.0066116
        k(   53) = (   0.0909091   0.2727273   0.4000000), wk =   0.0066116
        k(   54) = (   0.0909091   0.2727273  -0.5000000), wk =   0.0033058
        k(   55) = (   0.0909091   0.3636364   0.0000000), wk =   0.0033058
        k(   56) = (   0.0909091   0.3636364   0.1000000), wk =   0.0066116
        k(   57) = (   0.0909091   0.3636364   0.2000000), wk =   0.0066116
        k(   58) = (   0.0909091   0.3636364   0.3000000), wk =   0.0066116
        k(   59) = (   0.0909091   0.3636364   0.4000000), wk =   0.0066116
        k(   60) = (   0.0909091   0.3636364  -0.5000000), wk =   0.0033058
        k(   61) = (   0.0909091   0.4545455   0.0000000), wk =   0.0033058
        k(   62) = (   0.0909091   0.4545455   0.1000000), wk =   0.0066116
        k(   63) = (   0.0909091   0.4545455   0.2000000), wk =   0.0066116
        k(   64) = (   0.0909091   0.4545455   0.3000000), wk =   0.0066116
        k(   65) = (   0.0909091   0.4545455   0.4000000), wk =   0.0066116
        k(   66) = (   0.0909091   0.4545455  -0.5000000), wk =   0.0033058
        k(   67) = (   0.0909091  -0.4545455   0.0000000), wk =   0.0033058
        k(   68) = (   0.0909091  -0.4545455   0.1000000), wk =   0.0066116
        k(   69) = (   0.0909091  -0.4545455   0.2000000), wk =   0.0066116
        k(   70) = (   0.0909091  -0.4545455   0.3000000), wk =   0.0066116
        k(   71) = (   0.0909091  -0.4545455   0.4000000), wk =   0.0066116
        k(   72) = (   0.0909091  -0.4545455  -0.5000000), wk =   0.0033058
        k(   73) = (   0.0909091  -0.3636364   0.0000000), wk =   0.0033058
        k(   74) = (   0.0909091  -0.3636364   0.1000000), wk =   0.0066116
        k(   75) = (   0.0909091  -0.3636364   0.2000000), wk =   0.0066116
        k(   76) = (   0.0909091  -0.3636364   0.3000000), wk =   0.0066116
        k(   77) = (   0.0909091  -0.3636364   0.4000000), wk =   0.0066116
        k(   78) = (   0.0909091  -0.3636364  -0.5000000), wk =   0.0033058
        k(   79) = (   0.0909091  -0.2727273   0.0000000), wk =   0.0033058
        k(   80) = (   0.0909091  -0.2727273   0.1000000), wk =   0.0066116
        k(   81) = (   0.0909091  -0.2727273   0.2000000), wk =   0.0066116
        k(   82) = (   0.0909091  -0.2727273   0.3000000), wk =   0.0066116
        k(   83) = (   0.0909091  -0.2727273   0.4000000), wk =   0.0066116
        k(   84) = (   0.0909091  -0.2727273  -0.5000000), wk =   0.0033058
        k(   85) = (   0.0909091  -0.1818182   0.0000000), wk =   0.0033058
        k(   86) = (   0.0909091  -0.1818182   0.1000000), wk =   0.0066116
        k(   87) = (   0.0909091  -0.1818182   0.2000000), wk =   0.0066116
        k(   88) = (   0.0909091  -0.1818182   0.3000000), wk =   0.0066116
        k(   89) = (   0.0909091  -0.1818182   0.4000000), wk =   0.0066116
        k(   90) = (   0.0909091  -0.1818182  -0.5000000), wk =   0.0033058
        k(   91) = (   0.0909091  -0.0909091   0.0000000), wk =   0.0016529
        k(   92) = (   0.0909091  -0.0909091   0.1000000), wk =   0.0033058
        k(   93) = (   0.0909091  -0.0909091   0.2000000), wk =   0.0033058
        k(   94) = (   0.0909091  -0.0909091   0.3000000), wk =   0.0033058
        k(   95) = (   0.0909091  -0.0909091   0.4000000), wk =   0.0033058
        k(   96) = (   0.0909091  -0.0909091  -0.5000000), wk =   0.0016529
        k(   97) = (   0.1818182   0.1818182   0.0000000), wk =   0.0016529
        k(   98) = (   0.1818182   0.1818182   0.1000000), wk =   0.0033058
        k(   99) = (   0.1818182   0.1818182   0.2000000), wk =   0.0033058
        k(  100) = (   0.1818182   0.1818182   0.3000000), wk =   0.0033058
        k(  101) = (   0.1818182   0.1818182   0.4000000), wk =   0.0033058
        k(  102) = (   0.1818182   0.1818182  -0.5000000), wk =   0.0016529
        k(  103) = (   0.1818182   0.2727273   0.0000000), wk =   0.0033058
        k(  104) = (   0.1818182   0.2727273   0.1000000), wk =   0.0066116
        k(  105) = (   0.1818182   0.2727273   0.2000000), wk =   0.0066116
        k(  106) = (   0.1818182   0.2727273   0.3000000), wk =   0.0066116
        k(  107) = (   0.1818182   0.2727273   0.4000000), wk =   0.0066116
        k(  108) = (   0.1818182   0.2727273  -0.5000000), wk =   0.0033058
        k(  109) = (   0.1818182   0.3636364   0.0000000), wk =   0.0033058
        k(  110) = (   0.1818182   0.3636364   0.1000000), wk =   0.0066116
        k(  111) = (   0.1818182   0.3636364   0.2000000), wk =   0.0066116
        k(  112) = (   0.1818182   0.3636364   0.3000000), wk =   0.0066116
        k(  113) = (   0.1818182   0.3636364   0.4000000), wk =   0.0066116
        k(  114) = (   0.1818182   0.3636364  -0.5000000), wk =   0.0033058
        k(  115) = (   0.1818182   0.4545455   0.0000000), wk =   0.0033058
        k(  116) = (   0.1818182   0.4545455   0.1000000), wk =   0.0066116
        k(  117) = (   0.1818182   0.4545455   0.2000000), wk =   0.0066116
        k(  118) = (   0.1818182   0.4545455   0.3000000), wk =   0.0066116
        k(  119) = (   0.1818182   0.4545455   0.4000000), wk =   0.0066116
        k(  120) = (   0.1818182   0.4545455  -0.5000000), wk =   0.0033058
        k(  121) = (   0.1818182  -0.4545455   0.0000000), wk =   0.0033058
        k(  122) = (   0.1818182  -0.4545455   0.1000000), wk =   0.0066116
        k(  123) = (   0.1818182  -0.4545455   0.2000000), wk =   0.0066116
        k(  124) = (   0.1818182  -0.4545455   0.3000000), wk =   0.0066116
        k(  125) = (   0.1818182  -0.4545455   0.4000000), wk =   0.0066116
        k(  126) = (   0.1818182  -0.4545455  -0.5000000), wk =   0.0033058
        k(  127) = (   0.1818182  -0.3636364   0.0000000), wk =   0.0033058
        k(  128) = (   0.1818182  -0.3636364   0.1000000), wk =   0.0066116
        k(  129) = (   0.1818182  -0.3636364   0.2000000), wk =   0.0066116
        k(  130) = (   0.1818182  -0.3636364   0.3000000), wk =   0.0066116
        k(  131) = (   0.1818182  -0.3636364   0.4000000), wk =   0.0066116
        k(  132) = (   0.1818182  -0.3636364  -0.5000000), wk =   0.0033058
        k(  133) = (   0.1818182  -0.2727273   0.0000000), wk =   0.0033058
        k(  134) = (   0.1818182  -0.2727273   0.1000000), wk =   0.0066116
        k(  135) = (   0.1818182  -0.2727273   0.2000000), wk =   0.0066116
        k(  136) = (   0.1818182  -0.2727273   0.3000000), wk =   0.0066116
        k(  137) = (   0.1818182  -0.2727273   0.4000000), wk =   0.0066116
        k(  138) = (   0.1818182  -0.2727273  -0.5000000), wk =   0.0033058
        k(  139) = (   0.1818182  -0.1818182   0.0000000), wk =   0.0016529
        k(  140) = (   0.1818182  -0.1818182   0.1000000), wk =   0.0033058
        k(  141) = (   0.1818182  -0.1818182   0.2000000), wk =   0.0033058
        k(  142) = (   0.1818182  -0.1818182   0.3000000), wk =   0.0033058
        k(  143) = (   0.1818182  -0.1818182   0.4000000), wk =   0.0033058
        k(  144) = (   0.1818182  -0.1818182  -0.5000000), wk =   0.0016529
        k(  145) = (   0.2727273   0.2727273   0.0000000), wk =   0.0016529
        k(  146) = (   0.2727273   0.2727273   0.1000000), wk =   0.0033058
        k(  147) = (   0.2727273   0.2727273   0.2000000), wk =   0.0033058
        k(  148) = (   0.2727273   0.2727273   0.3000000), wk =   0.0033058
        k(  149) = (   0.2727273   0.2727273   0.4000000), wk =   0.0033058
        k(  150) = (   0.2727273   0.2727273  -0.5000000), wk =   0.0016529
        k(  151) = (   0.2727273   0.3636364   0.0000000), wk =   0.0033058
        k(  152) = (   0.2727273   0.3636364   0.1000000), wk =   0.0066116
        k(  153) = (   0.2727273   0.3636364   0.2000000), wk =   0.0066116
        k(  154) = (   0.2727273   0.3636364   0.3000000), wk =   0.0066116
        k(  155) = (   0.2727273   0.3636364   0.4000000), wk =   0.0066116
        k(  156) = (   0.2727273   0.3636364  -0.5000000), wk =   0.0033058
        k(  157) = (   0.2727273   0.4545455   0.0000000), wk =   0.0033058
        k(  158) = (   0.2727273   0.4545455   0.1000000), wk =   0.0066116
        k(  159) = (   0.2727273   0.4545455   0.2000000), wk =   0.0066116
        k(  160) = (   0.2727273   0.4545455   0.3000000), wk =   0.0066116
        k(  161) = (   0.2727273   0.4545455   0.4000000), wk =   0.0066116
        k(  162) = (   0.2727273   0.4545455  -0.5000000), wk =   0.0033058
        k(  163) = (   0.2727273  -0.4545455   0.0000000), wk =   0.0033058
        k(  164) = (   0.2727273  -0.4545455   0.1000000), wk =   0.0066116
        k(  165) = (   0.2727273  -0.4545455   0.2000000), wk =   0.0066116
        k(  166) = (   0.2727273  -0.4545455   0.3000000), wk =   0.0066116
        k(  167) = (   0.2727273  -0.4545455   0.4000000), wk =   0.0066116
        k(  168) = (   0.2727273  -0.4545455  -0.5000000), wk =   0.0033058
        k(  169) = (   0.2727273  -0.3636364   0.0000000), wk =   0.0033058
        k(  170) = (   0.2727273  -0.3636364   0.1000000), wk =   0.0066116
        k(  171) = (   0.2727273  -0.3636364   0.2000000), wk =   0.0066116
        k(  172) = (   0.2727273  -0.3636364   0.3000000), wk =   0.0066116
        k(  173) = (   0.2727273  -0.3636364   0.4000000), wk =   0.0066116
        k(  174) = (   0.2727273  -0.3636364  -0.5000000), wk =   0.0033058
        k(  175) = (   0.2727273  -0.2727273   0.0000000), wk =   0.0016529
        k(  176) = (   0.2727273  -0.2727273   0.1000000), wk =   0.0033058
        k(  177) = (   0.2727273  -0.2727273   0.2000000), wk =   0.0033058
        k(  178) = (   0.2727273  -0.2727273   0.3000000), wk =   0.0033058
        k(  179) = (   0.2727273  -0.2727273   0.4000000), wk =   0.0033058
        k(  180) = (   0.2727273  -0.2727273  -0.5000000), wk =   0.0016529
        k(  181) = (   0.3636364   0.3636364   0.0000000), wk =   0.0016529
        k(  182) = (   0.3636364   0.3636364   0.1000000), wk =   0.0033058
        k(  183) = (   0.3636364   0.3636364   0.2000000), wk =   0.0033058
        k(  184) = (   0.3636364   0.3636364   0.3000000), wk =   0.0033058
        k(  185) = (   0.3636364   0.3636364   0.4000000), wk =   0.0033058
        k(  186) = (   0.3636364   0.3636364  -0.5000000), wk =   0.0016529
        k(  187) = (   0.3636364   0.4545455   0.0000000), wk =   0.0033058
        k(  188) = (   0.3636364   0.4545455   0.1000000), wk =   0.0066116
        k(  189) = (   0.3636364   0.4545455   0.2000000), wk =   0.0066116
        k(  190) = (   0.3636364   0.4545455   0.3000000), wk =   0.0066116
        k(  191) = (   0.3636364   0.4545455   0.4000000), wk =   0.0066116
        k(  192) = (   0.3636364   0.4545455  -0.5000000), wk =   0.0033058
        k(  193) = (   0.3636364  -0.4545455   0.0000000), wk =   0.0033058
        k(  194) = (   0.3636364  -0.4545455   0.1000000), wk =   0.0066116
        k(  195) = (   0.3636364  -0.4545455   0.2000000), wk =   0.0066116
        k(  196) = (   0.3636364  -0.4545455   0.3000000), wk =   0.0066116
        k(  197) = (   0.3636364  -0.4545455   0.4000000), wk =   0.0066116
        k(  198) = (   0.3636364  -0.4545455  -0.5000000), wk =   0.0033058
        k(  199) = (   0.3636364  -0.3636364   0.0000000), wk =   0.0016529
        k(  200) = (   0.3636364  -0.3636364   0.1000000), wk =   0.0033058
        k(  201) = (   0.3636364  -0.3636364   0.2000000), wk =   0.0033058
        k(  202) = (   0.3636364  -0.3636364   0.3000000), wk =   0.0033058
        k(  203) = (   0.3636364  -0.3636364   0.4000000), wk =   0.0033058
        k(  204) = (   0.3636364  -0.3636364  -0.5000000), wk =   0.0016529
        k(  205) = (   0.4545455   0.4545455   0.0000000), wk =   0.0016529
        k(  206) = (   0.4545455   0.4545455   0.1000000), wk =   0.0033058
        k(  207) = (   0.4545455   0.4545455   0.2000000), wk =   0.0033058
        k(  208) = (   0.4545455   0.4545455   0.3000000), wk =   0.0033058
        k(  209) = (   0.4545455   0.4545455   0.4000000), wk =   0.0033058
        k(  210) = (   0.4545455   0.4545455  -0.5000000), wk =   0.0016529
        k(  211) = (   0.4545455  -0.4545455   0.0000000), wk =   0.0016529
        k(  212) = (   0.4545455  -0.4545455   0.1000000), wk =   0.0033058
        k(  213) = (   0.4545455  -0.4545455   0.2000000), wk =   0.0033058
        k(  214) = (   0.4545455  -0.4545455   0.3000000), wk =   0.0033058
        k(  215) = (   0.4545455  -0.4545455   0.4000000), wk =   0.0033058
        k(  216) = (   0.4545455  -0.4545455  -0.5000000), wk =   0.0016529

     Dense  grid:   260235 G-vectors     FFT dimensions: ( 108, 108,  75)

     Smooth grid:    50033 G-vectors     FFT dimensions: (  60,  60,  45)

     Dynamical RAM for                 wfc:       0.57 MB

     Dynamical RAM for     wfc (w. buffer):      31.48 MB

     Dynamical RAM for           str. fact:       1.70 MB

     Dynamical RAM for           local pot:       0.00 MB

     Dynamical RAM for          nlocal pot:       1.29 MB

     Dynamical RAM for                qrad:       8.96 MB

     Dynamical RAM for          rho,v,vnew:       9.28 MB

     Dynamical RAM for               rhoin:       3.09 MB

     Dynamical RAM for            rho*nmix:      18.15 MB

     Dynamical RAM for           G-vectors:       2.18 MB

     Dynamical RAM for          h,s,v(r/c):       0.32 MB

     Dynamical RAM for          <psi|beta>:       0.06 MB

     Dynamical RAM for                 psi:       1.14 MB

     Dynamical RAM for                hpsi:       1.14 MB

     Dynamical RAM for                spsi:       1.14 MB

     Dynamical RAM for      wfcinit/wfcrot:       1.45 MB

     Dynamical RAM for           addusdens:      15.95 MB

     Dynamical RAM for          addusforce:      16.07 MB

     Dynamical RAM for         addusstress:      16.20 MB

     Estimated static dynamical RAM per process >      66.13 MB

     Estimated max dynamical RAM per process >     100.48 MB

     Estimated total dynamical RAM >       4.63 GB

     Check: negative core charge=   -0.000008
     Generating pointlists ...
     new r_m :   0.1881 (alat units)  2.1858 (a.u.) for type    1
     new r_m :   0.1252 (alat units)  1.4551 (a.u.) for type    2
     new r_m :   0.1252 (alat units)  1.4551 (a.u.) for type    3

     Initial potential from superposition of free atoms

     starting charge      68.9842, renormalised to      70.0000
     Starting wfcs are   51 randomized atomic wfcs
     Checking if some PAW data can be deallocated... 
       PAW data deallocated on   49 nodes for type:  1
       PAW data deallocated on   21 nodes for type:  3

     total cpu time spent up to now is        4.6 secs

     per-process dynamical memory:    82.3 Mb

     Self-consistent Calculation

     iteration #  1     ecut=    65.00 Ry     beta= 0.40
     Davidson diagonalization with overlap

---- Real-time Memory Report at c_bands before calling an iterative solver
           114 MiB given to the printing process from OS
            82 MiB allocation reported by mallinfo(arena+hblkhd)
        482981 MiB available memory on the node where the printing process lives
------------------
     ethr =  1.00E-02,  avg # of iterations =  3.3

     negative rho (up, down):  5.929E-01 9.290E-02

     total cpu time spent up to now is       10.9 secs

     total energy              =   -1055.50800039 Ry
     estimated scf accuracy    <      12.52466233 Ry

     total magnetization       =     6.00 Bohr mag/cell
     absolute magnetization    =    10.99 Bohr mag/cell

     iteration #  2     ecut=    65.00 Ry     beta= 0.40
     Davidson diagonalization with overlap

---- Real-time Memory Report at c_bands before calling an iterative solver
           147 MiB given to the printing process from OS
           104 MiB allocation reported by mallinfo(arena+hblkhd)
        481295 MiB available memory on the node where the printing process lives
------------------
     ethr =  1.00E-02,  avg # of iterations =  2.5

     negative rho (up, down):  6.478E-01 1.039E-01

     total cpu time spent up to now is       17.7 secs

     total energy              =   -1051.82779643 Ry
     estimated scf accuracy    <      51.44875021 Ry

     total magnetization       =     1.56 Bohr mag/cell
     absolute magnetization    =     5.13 Bohr mag/cell

     iteration #  3     ecut=    65.00 Ry     beta= 0.40
     Davidson diagonalization with overlap

---- Real-time Memory Report at c_bands before calling an iterative solver
           148 MiB given to the printing process from OS
           105 MiB allocation reported by mallinfo(arena+hblkhd)
        481288 MiB available memory on the node where the printing process lives
------------------
     ethr =  1.00E-02,  avg # of iterations =  2.1

     negative rho (up, down):  8.147E-01 1.282E-01

     total cpu time spent up to now is       23.6 secs

     total energy              =   -1057.99773834 Ry
     estimated scf accuracy    <       3.12385975 Ry

     total magnetization       =     6.00 Bohr mag/cell
     absolute magnetization    =     9.25 Bohr mag/cell

     iteration #  4     ecut=    65.00 Ry     beta= 0.40
     Davidson diagonalization with overlap

---- Real-time Memory Report at c_bands before calling an iterative solver
           149 MiB given to the printing process from OS
           105 MiB allocation reported by mallinfo(arena+hblkhd)
        481268 MiB available memory on the node where the printing process lives
------------------
     ethr =  4.46E-03,  avg # of iterations =  2.0

     negative rho (up, down):  6.644E-01 1.157E-01

     total cpu time spent up to now is       29.3 secs

     total energy              =   -1057.96117186 Ry
     estimated scf accuracy    <       2.55430912 Ry

     total magnetization       =     6.00 Bohr mag/cell
     absolute magnetization    =     7.55 Bohr mag/cell

     iteration #  5     ecut=    65.00 Ry     beta= 0.40
     Davidson diagonalization with overlap

---- Real-time Memory Report at c_bands before calling an iterative solver
           150 MiB given to the printing process from OS
           106 MiB allocation reported by mallinfo(arena+hblkhd)
        481247 MiB available memory on the node where the printing process lives
------------------
     ethr =  3.65E-03,  avg # of iterations =  2.1

     negative rho (up, down):  7.017E-01 1.015E-01

     total cpu time spent up to now is       35.1 secs

     total energy              =   -1057.85315392 Ry
     estimated scf accuracy    <       0.94380272 Ry

     total magnetization       =     6.00 Bohr mag/cell
     absolute magnetization    =     9.06 Bohr mag/cell

     iteration #  6     ecut=    65.00 Ry     beta= 0.40
     Davidson diagonalization with overlap

---- Real-time Memory Report at c_bands before calling an iterative solver
           151 MiB given to the printing process from OS
           106 MiB allocation reported by mallinfo(arena+hblkhd)
        481233 MiB available memory on the node where the printing process lives
------------------
     ethr =  1.35E-03,  avg # of iterations =  1.5

     negative rho (up, down):  6.996E-01 8.689E-02

     total cpu time spent up to now is       40.5 secs

     total energy              =   -1057.90659303 Ry
     estimated scf accuracy    <       0.07389117 Ry

     total magnetization       =     6.40 Bohr mag/cell
     absolute magnetization    =     8.91 Bohr mag/cell

     iteration #  7     ecut=    65.00 Ry     beta= 0.40
     Davidson diagonalization with overlap

---- Real-time Memory Report at c_bands before calling an iterative solver
           152 MiB given to the printing process from OS
           107 MiB allocation reported by mallinfo(arena+hblkhd)
        481213 MiB available memory on the node where the printing process lives
------------------
     ethr =  1.06E-04,  avg # of iterations =  2.9

     negative rho (up, down):  6.792E-01 7.475E-02

     total cpu time spent up to now is       46.8 secs

     total energy              =   -1057.92056423 Ry
     estimated scf accuracy    <       0.37745693 Ry

     total magnetization       =     5.85 Bohr mag/cell
     absolute magnetization    =     8.04 Bohr mag/cell

     iteration #  8     ecut=    65.00 Ry     beta= 0.40
     Davidson diagonalization with overlap

---- Real-time Memory Report at c_bands before calling an iterative solver
           153 MiB given to the printing process from OS
           107 MiB allocation reported by mallinfo(arena+hblkhd)
        481201 MiB available memory on the node where the printing process lives
------------------
     ethr =  1.06E-04,  avg # of iterations =  3.1

     negative rho (up, down):  6.344E-01 2.969E-02

     total cpu time spent up to now is       52.5 secs

     total energy              =   -1057.93628863 Ry
     estimated scf accuracy    <       0.06624388 Ry

     total magnetization       =     5.98 Bohr mag/cell
     absolute magnetization    =     8.68 Bohr mag/cell

     iteration #  9     ecut=    65.00 Ry     beta= 0.40
     Davidson diagonalization with overlap

---- Real-time Memory Report at c_bands before calling an iterative solver
           153 MiB given to the printing process from OS
           108 MiB allocation reported by mallinfo(arena+hblkhd)
        481190 MiB available memory on the node where the printing process lives
------------------
     ethr =  9.46E-05,  avg # of iterations =  3.6

     negative rho (up, down):  6.457E-01 2.650E-02

     total cpu time spent up to now is       58.4 secs

     total energy              =   -1057.93769215 Ry
     estimated scf accuracy    <       0.16082074 Ry

     total magnetization       =     5.85 Bohr mag/cell
     absolute magnetization    =     9.17 Bohr mag/cell

     iteration # 10     ecut=    65.00 Ry     beta= 0.40
     Davidson diagonalization with overlap

---- Real-time Memory Report at c_bands before calling an iterative solver
           154 MiB given to the printing process from OS
           108 MiB allocation reported by mallinfo(arena+hblkhd)
        481177 MiB available memory on the node where the printing process lives
------------------
     ethr =  9.46E-05,  avg # of iterations =  3.7

     negative rho (up, down):  6.384E-01 1.167E-02

     total cpu time spent up to now is       64.3 secs

     total energy              =   -1057.93854995 Ry
     estimated scf accuracy    <       0.04250304 Ry

     total magnetization       =     5.85 Bohr mag/cell
     absolute magnetization    =     9.07 Bohr mag/cell

     iteration # 11     ecut=    65.00 Ry     beta= 0.40
     Davidson diagonalization with overlap

---- Real-time Memory Report at c_bands before calling an iterative solver
           154 MiB given to the printing process from OS
           108 MiB allocation reported by mallinfo(arena+hblkhd)
        481169 MiB available memory on the node where the printing process lives
------------------
     ethr =  6.07E-05,  avg # of iterations =  2.5

     negative rho (up, down):  6.404E-01 8.986E-03

     total cpu time spent up to now is       70.2 secs

     total energy              =   -1057.94291268 Ry
     estimated scf accuracy    <       0.16509924 Ry

     total magnetization       =     5.86 Bohr mag/cell
     absolute magnetization    =     8.88 Bohr mag/cell

     iteration # 12     ecut=    65.00 Ry     beta= 0.40
     Davidson diagonalization with overlap

---- Real-time Memory Report at c_bands before calling an iterative solver
           154 MiB given to the printing process from OS
           108 MiB allocation reported by mallinfo(arena+hblkhd)
        481161 MiB available memory on the node where the printing process lives
------------------
     ethr =  6.07E-05,  avg # of iterations =  2.4

     negative rho (up, down):  6.456E-01 7.568E-03

     total cpu time spent up to now is       76.0 secs

     total energy              =   -1057.94389711 Ry
     estimated scf accuracy    <       0.06988573 Ry

     total magnetization       =     5.86 Bohr mag/cell
     absolute magnetization    =     9.16 Bohr mag/cell

     iteration # 13     ecut=    65.00 Ry     beta= 0.40
     Davidson diagonalization with overlap

---- Real-time Memory Report at c_bands before calling an iterative solver
           154 MiB given to the printing process from OS
           108 MiB allocation reported by mallinfo(arena+hblkhd)
        481154 MiB available memory on the node where the printing process lives
------------------
     ethr =  6.07E-05,  avg # of iterations =  1.0

     negative rho (up, down):  6.538E-01 5.968E-03

     total cpu time spent up to now is       81.0 secs

     total energy              =   -1057.94272688 Ry
     estimated scf accuracy    <       0.09150543 Ry

     total magnetization       =     5.86 Bohr mag/cell
     absolute magnetization    =     9.31 Bohr mag/cell

     iteration # 14     ecut=    65.00 Ry     beta= 0.40
     Davidson diagonalization with overlap

---- Real-time Memory Report at c_bands before calling an iterative solver
           155 MiB given to the printing process from OS
           108 MiB allocation reported by mallinfo(arena+hblkhd)
        481149 MiB available memory on the node where the printing process lives
------------------
     ethr =  6.07E-05,  avg # of iterations =  1.5

     negative rho (up, down):  6.351E-01 6.732E-04

     total cpu time spent up to now is       86.5 secs

     total energy              =   -1057.94270380 Ry
     estimated scf accuracy    <       0.08240815 Ry

     total magnetization       =     5.90 Bohr mag/cell
     absolute magnetization    =     9.23 Bohr mag/cell

     iteration # 15     ecut=    65.00 Ry     beta= 0.40
     Davidson diagonalization with overlap

---- Real-time Memory Report at c_bands before calling an iterative solver
           155 MiB given to the printing process from OS
           108 MiB allocation reported by mallinfo(arena+hblkhd)
        481145 MiB available memory on the node where the printing process lives
------------------
     ethr =  6.07E-05,  avg # of iterations =  4.2

     negative rho (up, down):  6.359E-01 1.348E-04

     total cpu time spent up to now is       92.6 secs

     total energy              =   -1057.94571219 Ry
     estimated scf accuracy    <       0.08062677 Ry

     total magnetization       =     5.96 Bohr mag/cell
     absolute magnetization    =     9.54 Bohr mag/cell

     iteration # 16     ecut=    65.00 Ry     beta= 0.40
     Davidson diagonalization with overlap

---- Real-time Memory Report at c_bands before calling an iterative solver
           155 MiB given to the printing process from OS
           108 MiB allocation reported by mallinfo(arena+hblkhd)
        481138 MiB available memory on the node where the printing process lives
------------------
     ethr =  6.07E-05,  avg # of iterations =  1.3

     negative rho (up, down):  6.502E-01 3.621E-05

     total cpu time spent up to now is       97.9 secs

     total energy              =   -1057.94397132 Ry
     estimated scf accuracy    <       0.04988737 Ry

     total magnetization       =     5.97 Bohr mag/cell
     absolute magnetization    =     9.61 Bohr mag/cell

     iteration # 17     ecut=    65.00 Ry     beta= 0.40
     Davidson diagonalization with overlap

---- Real-time Memory Report at c_bands before calling an iterative solver
           155 MiB given to the printing process from OS
           108 MiB allocation reported by mallinfo(arena+hblkhd)
        481132 MiB available memory on the node where the printing process lives
------------------
     ethr =  6.07E-05,  avg # of iterations =  2.3

     negative rho (up, down):  6.594E-01 1.619E-05

     total cpu time spent up to now is      103.6 secs

     total energy              =   -1057.94485923 Ry
     estimated scf accuracy    <       0.01032363 Ry

     total magnetization       =     5.98 Bohr mag/cell
     absolute magnetization    =     9.58 Bohr mag/cell

     iteration # 18     ecut=    65.00 Ry     beta= 0.40
     Davidson diagonalization with overlap

---- Real-time Memory Report at c_bands before calling an iterative solver
           155 MiB given to the printing process from OS
           108 MiB allocation reported by mallinfo(arena+hblkhd)
        481127 MiB available memory on the node where the printing process lives
------------------
     ethr =  1.47E-05,  avg # of iterations =  4.0

     negative rho (up, down):  6.584E-01 5.888E-05

     total cpu time spent up to now is      109.5 secs

     total energy              =   -1057.94428252 Ry
     estimated scf accuracy    <       0.07654572 Ry

     total magnetization       =     5.99 Bohr mag/cell
     absolute magnetization    =     9.20 Bohr mag/cell

     iteration # 19     ecut=    65.00 Ry     beta= 0.40
     Davidson diagonalization with overlap

---- Real-time Memory Report at c_bands before calling an iterative solver
           155 MiB given to the printing process from OS
           108 MiB allocation reported by mallinfo(arena+hblkhd)
        481125 MiB available memory on the node where the printing process lives
------------------
     ethr =  1.47E-05,  avg # of iterations =  2.7

     negative rho (up, down):  6.601E-01 2.173E-05

     total cpu time spent up to now is      115.5 secs

     total energy              =   -1057.94451999 Ry
     estimated scf accuracy    <       0.03508112 Ry

     total magnetization       =     5.99 Bohr mag/cell
     absolute magnetization    =     9.42 Bohr mag/cell

     iteration # 20     ecut=    65.00 Ry     beta= 0.40
     Davidson diagonalization with overlap

---- Real-time Memory Report at c_bands before calling an iterative solver
           155 MiB given to the printing process from OS
           108 MiB allocation reported by mallinfo(arena+hblkhd)
        481120 MiB available memory on the node where the printing process lives
------------------
     ethr =  1.47E-05,  avg # of iterations =  1.5

     negative rho (up, down):  6.590E-01 1.837E-05

     total cpu time spent up to now is      120.9 secs

     total energy              =   -1057.94480004 Ry
     estimated scf accuracy    <       0.03520872 Ry

     total magnetization       =     5.99 Bohr mag/cell
     absolute magnetization    =     9.47 Bohr mag/cell

     iteration # 21     ecut=    65.00 Ry     beta= 0.40
     Davidson diagonalization with overlap

---- Real-time Memory Report at c_bands before calling an iterative solver
           155 MiB given to the printing process from OS
           108 MiB allocation reported by mallinfo(arena+hblkhd)
        481115 MiB available memory on the node where the printing process lives
------------------
     ethr =  1.47E-05,  avg # of iterations =  1.0

     negative rho (up, down):  6.578E-01 1.812E-05

     total cpu time spent up to now is      125.9 secs

     total energy              =   -1057.94499089 Ry
     estimated scf accuracy    <       0.03740776 Ry

     total magnetization       =     5.99 Bohr mag/cell
     absolute magnetization    =     9.44 Bohr mag/cell

     iteration # 22     ecut=    65.00 Ry     beta= 0.40
     Davidson diagonalization with overlap

---- Real-time Memory Report at c_bands before calling an iterative solver
           155 MiB given to the printing process from OS
           108 MiB allocation reported by mallinfo(arena+hblkhd)
        481114 MiB available memory on the node where the printing process lives
------------------
     ethr =  1.47E-05,  avg # of iterations =  1.5

     negative rho (up, down):  6.605E-01 1.885E-05

     total cpu time spent up to now is      131.2 secs

     total energy              =   -1057.94513529 Ry
     estimated scf accuracy    <       0.04160785 Ry

     total magnetization       =     5.99 Bohr mag/cell
     absolute magnetization    =     9.40 Bohr mag/cell

     iteration # 23     ecut=    65.00 Ry     beta= 0.40
     Davidson diagonalization with overlap

---- Real-time Memory Report at c_bands before calling an iterative solver
           155 MiB given to the printing process from OS
           108 MiB allocation reported by mallinfo(arena+hblkhd)
        481112 MiB available memory on the node where the printing process lives
------------------
     ethr =  1.47E-05,  avg # of iterations =  2.5

     negative rho (up, down):  6.586E-01 8.979E-05

     total cpu time spent up to now is      137.0 secs

     total energy              =   -1057.94542917 Ry
     estimated scf accuracy    <       0.06867827 Ry

     total magnetization       =     5.99 Bohr mag/cell
     absolute magnetization    =     9.26 Bohr mag/cell

     iteration # 24     ecut=    65.00 Ry     beta= 0.40
     Davidson diagonalization with overlap

---- Real-time Memory Report at c_bands before calling an iterative solver
           155 MiB given to the printing process from OS
           108 MiB allocation reported by mallinfo(arena+hblkhd)
        481110 MiB available memory on the node where the printing process lives
------------------
     ethr =  1.47E-05,  avg # of iterations =  1.0

     negative rho (up, down):  6.518E-01 9.624E-04

     total cpu time spent up to now is      142.0 secs

     total energy              =   -1057.94649818 Ry
     estimated scf accuracy    <       0.07138203 Ry

     total magnetization       =     5.99 Bohr mag/cell
     absolute magnetization    =     9.24 Bohr mag/cell

     iteration # 25     ecut=    65.00 Ry     beta= 0.40
     Davidson diagonalization with overlap

---- Real-time Memory Report at c_bands before calling an iterative solver
           155 MiB given to the printing process from OS
           108 MiB allocation reported by mallinfo(arena+hblkhd)
        481108 MiB available memory on the node where the printing process lives
------------------
     ethr =  1.47E-05,  avg # of iterations =  2.5

     negative rho (up, down):  6.584E-01 1.796E-05

     total cpu time spent up to now is      148.0 secs

     total energy              =   -1057.94311766 Ry
     estimated scf accuracy    <       0.13917340 Ry

     total magnetization       =     5.99 Bohr mag/cell
     absolute magnetization    =     9.03 Bohr mag/cell

     iteration # 26     ecut=    65.00 Ry     beta= 0.40
     Davidson diagonalization with overlap

---- Real-time Memory Report at c_bands before calling an iterative solver
           156 MiB given to the printing process from OS
           108 MiB allocation reported by mallinfo(arena+hblkhd)
        481102 MiB available memory on the node where the printing process lives
------------------
     ethr =  1.47E-05,  avg # of iterations =  3.5

     negative rho (up, down):  6.574E-01 1.723E-05

     total cpu time spent up to now is      154.3 secs

     total energy              =   -1057.94466426 Ry
     estimated scf accuracy    <       0.07564138 Ry

     total magnetization       =     5.99 Bohr mag/cell
     absolute magnetization    =     9.54 Bohr mag/cell

     iteration # 27     ecut=    65.00 Ry     beta= 0.40
     Davidson diagonalization with overlap

---- Real-time Memory Report at c_bands before calling an iterative solver
           156 MiB given to the printing process from OS
           108 MiB allocation reported by mallinfo(arena+hblkhd)
        481100 MiB available memory on the node where the printing process lives
------------------
     ethr =  1.47E-05,  avg # of iterations =  2.0

     negative rho (up, down):  6.501E-01 1.894E-05

     total cpu time spent up to now is      159.7 secs

     total energy              =   -1057.94432371 Ry
     estimated scf accuracy    <       0.05182331 Ry

     total magnetization       =     5.99 Bohr mag/cell
     absolute magnetization    =     9.55 Bohr mag/cell

     iteration # 28     ecut=    65.00 Ry     beta= 0.40
     Davidson diagonalization with overlap

---- Real-time Memory Report at c_bands before calling an iterative solver
           156 MiB given to the printing process from OS
           108 MiB allocation reported by mallinfo(arena+hblkhd)
        481097 MiB available memory on the node where the printing process lives
------------------
     ethr =  1.47E-05,  avg # of iterations =  3.9

     negative rho (up, down):  6.471E-01 1.910E-05

     total cpu time spent up to now is      165.6 secs

     total energy              =   -1057.94527498 Ry
     estimated scf accuracy    <       0.00892434 Ry

     total magnetization       =     5.99 Bohr mag/cell
     absolute magnetization    =     9.67 Bohr mag/cell

     iteration # 29     ecut=    65.00 Ry     beta= 0.40
     Davidson diagonalization with overlap

---- Real-time Memory Report at c_bands before calling an iterative solver
           156 MiB given to the printing process from OS
           108 MiB allocation reported by mallinfo(arena+hblkhd)
        481097 MiB available memory on the node where the printing process lives
------------------
     ethr =  1.27E-05,  avg # of iterations =  1.5

     negative rho (up, down):  6.487E-01 1.922E-05

     total cpu time spent up to now is      171.1 secs

     total energy              =   -1057.94509535 Ry
     estimated scf accuracy    <       0.01343351 Ry

     total magnetization       =     5.99 Bohr mag/cell
     absolute magnetization    =     9.64 Bohr mag/cell

     iteration # 30     ecut=    65.00 Ry     beta= 0.40
     Davidson diagonalization with overlap

---- Real-time Memory Report at c_bands before calling an iterative solver
           156 MiB given to the printing process from OS
           108 MiB allocation reported by mallinfo(arena+hblkhd)
        481093 MiB available memory on the node where the printing process lives
------------------
     ethr =  1.27E-05,  avg # of iterations =  1.0

     negative rho (up, down):  6.624E-01 1.841E-05

     total cpu time spent up to now is      176.1 secs

     total energy              =   -1057.94392629 Ry
     estimated scf accuracy    <       0.01333868 Ry

     total magnetization       =     5.99 Bohr mag/cell
     absolute magnetization    =     9.66 Bohr mag/cell

     iteration # 31     ecut=    65.00 Ry     beta= 0.40
     Davidson diagonalization with overlap

---- Real-time Memory Report at c_bands before calling an iterative solver
           156 MiB given to the printing process from OS
           108 MiB allocation reported by mallinfo(arena+hblkhd)
        481093 MiB available memory on the node where the printing process lives
------------------
     ethr =  1.27E-05,  avg # of iterations =  3.5

     negative rho (up, down):  6.799E-01 1.054E-03

     total cpu time spent up to now is      182.2 secs

     total energy              =   -1057.94415011 Ry
     estimated scf accuracy    <       0.05047750 Ry

     total magnetization       =     5.99 Bohr mag/cell
     absolute magnetization    =     9.42 Bohr mag/cell

     iteration # 32     ecut=    65.00 Ry     beta= 0.40
     Davidson diagonalization with overlap

---- Real-time Memory Report at c_bands before calling an iterative solver
           156 MiB given to the printing process from OS
           108 MiB allocation reported by mallinfo(arena+hblkhd)
        481092 MiB available memory on the node where the printing process lives
------------------
     ethr =  1.27E-05,  avg # of iterations =  1.5

     negative rho (up, down):  6.791E-01 6.796E-04

     total cpu time spent up to now is      187.7 secs

     total energy              =   -1057.94433111 Ry
     estimated scf accuracy    <       0.08321286 Ry

     total magnetization       =     5.99 Bohr mag/cell
     absolute magnetization    =     9.37 Bohr mag/cell

     iteration # 33     ecut=    65.00 Ry     beta= 0.40
     Davidson diagonalization with overlap

---- Real-time Memory Report at c_bands before calling an iterative solver
           156 MiB given to the printing process from OS
           108 MiB allocation reported by mallinfo(arena+hblkhd)
        481091 MiB available memory on the node where the printing process lives
------------------
     ethr =  1.27E-05,  avg # of iterations =  1.0

     negative rho (up, down):  6.781E-01 7.249E-04

     total cpu time spent up to now is      192.7 secs

     total energy              =   -1057.94427718 Ry
     estimated scf accuracy    <       0.07574756 Ry

     total magnetization       =     5.99 Bohr mag/cell
     absolute magnetization    =     9.39 Bohr mag/cell

     iteration # 34     ecut=    65.00 Ry     beta= 0.40
     Davidson diagonalization with overlap

---- Real-time Memory Report at c_bands before calling an iterative solver
           156 MiB given to the printing process from OS
           108 MiB allocation reported by mallinfo(arena+hblkhd)
        481091 MiB available memory on the node where the printing process lives
------------------
     ethr =  1.27E-05,  avg # of iterations =  1.0

     negative rho (up, down):  6.581E-01 2.068E-05

     total cpu time spent up to now is      197.7 secs

     total energy              =   -1057.94666383 Ry
     estimated scf accuracy    <       0.07277353 Ry

     total magnetization       =     5.99 Bohr mag/cell
     absolute magnetization    =     9.39 Bohr mag/cell

     iteration # 35     ecut=    65.00 Ry     beta= 0.40
     Davidson diagonalization with overlap

---- Real-time Memory Report at c_bands before calling an iterative solver
           156 MiB given to the printing process from OS
           108 MiB allocation reported by mallinfo(arena+hblkhd)
        481086 MiB available memory on the node where the printing process lives
------------------
     ethr =  1.27E-05,  avg # of iterations =  3.5

     negative rho (up, down):  6.519E-01 1.761E-05

     total cpu time spent up to now is      204.0 secs

     total energy              =   -1057.94492430 Ry
     estimated scf accuracy    <       0.18526296 Ry

     total magnetization       =     5.99 Bohr mag/cell
     absolute magnetization    =     9.01 Bohr mag/cell

     iteration # 36     ecut=    65.00 Ry     beta= 0.40
     Davidson diagonalization with overlap

---- Real-time Memory Report at c_bands before calling an iterative solver
           156 MiB given to the printing process from OS
           108 MiB allocation reported by mallinfo(arena+hblkhd)
        481085 MiB available memory on the node where the printing process lives
------------------
     ethr =  1.27E-05,  avg # of iterations =  3.0

     negative rho (up, down):  6.447E-01 1.881E-05

     total cpu time spent up to now is      210.1 secs

     total energy              =   -1057.94811640 Ry
     estimated scf accuracy    <       0.05708957 Ry

     total magnetization       =     5.99 Bohr mag/cell
     absolute magnetization    =     9.34 Bohr mag/cell

     iteration # 37     ecut=    65.00 Ry     beta= 0.40
     Davidson diagonalization with overlap

---- Real-time Memory Report at c_bands before calling an iterative solver
           156 MiB given to the printing process from OS
           108 MiB allocation reported by mallinfo(arena+hblkhd)
        481083 MiB available memory on the node where the printing process lives
------------------
     ethr =  1.27E-05,  avg # of iterations =  3.5

     negative rho (up, down):  6.482E-01 1.881E-05

     total cpu time spent up to now is      216.3 secs

     total energy              =   -1057.94880065 Ry
     estimated scf accuracy    <       0.20583917 Ry

     total magnetization       =     5.99 Bohr mag/cell
     absolute magnetization    =     8.94 Bohr mag/cell

     iteration # 38     ecut=    65.00 Ry     beta= 0.40
     Davidson diagonalization with overlap

---- Real-time Memory Report at c_bands before calling an iterative solver
           156 MiB given to the printing process from OS
           108 MiB allocation reported by mallinfo(arena+hblkhd)
        481083 MiB available memory on the node where the printing process lives
------------------
     ethr =  1.27E-05,  avg # of iterations =  1.5

     negative rho (up, down):  6.476E-01 1.933E-05

     total cpu time spent up to now is      221.7 secs

     total energy              =   -1057.94581911 Ry
     estimated scf accuracy    <       0.20262478 Ry

     total magnetization       =     5.99 Bohr mag/cell
     absolute magnetization    =     8.99 Bohr mag/cell

     iteration # 39     ecut=    65.00 Ry     beta= 0.40
     Davidson diagonalization with overlap

---- Real-time Memory Report at c_bands before calling an iterative solver
           156 MiB given to the printing process from OS
           108 MiB allocation reported by mallinfo(arena+hblkhd)
        481083 MiB available memory on the node where the printing process lives
------------------
     ethr =  1.27E-05,  avg # of iterations =  3.0

     negative rho (up, down):  6.560E-01 1.858E-05

     total cpu time spent up to now is      227.9 secs

     total energy              =   -1057.94751915 Ry
     estimated scf accuracy    <       0.04550087 Ry

     total magnetization       =     5.99 Bohr mag/cell
     absolute magnetization    =     9.31 Bohr mag/cell

     iteration # 40     ecut=    65.00 Ry     beta= 0.40
     Davidson diagonalization with overlap

---- Real-time Memory Report at c_bands before calling an iterative solver
           156 MiB given to the printing process from OS
           108 MiB allocation reported by mallinfo(arena+hblkhd)
        481081 MiB available memory on the node where the printing process lives
------------------
     ethr =  1.27E-05,  avg # of iterations =  4.1

     negative rho (up, down):  6.603E-01 1.811E-05

     total cpu time spent up to now is      234.1 secs

     total energy              =   -1057.94527372 Ry
     estimated scf accuracy    <       0.24554861 Ry

     total magnetization       =     5.99 Bohr mag/cell
     absolute magnetization    =     9.04 Bohr mag/cell

     iteration # 41     ecut=    65.00 Ry     beta= 0.40
     Davidson diagonalization with overlap

---- Real-time Memory Report at c_bands before calling an iterative solver
           156 MiB given to the printing process from OS
           108 MiB allocation reported by mallinfo(arena+hblkhd)
        481080 MiB available memory on the node where the printing process lives
------------------
     ethr =  1.27E-05,  avg # of iterations =  2.9

     negative rho (up, down):  6.680E-01 1.742E-05

     total cpu time spent up to now is      240.2 secs

     total energy              =   -1057.94404198 Ry
     estimated scf accuracy    <       0.11203041 Ry

     total magnetization       =     5.99 Bohr mag/cell
     absolute magnetization    =     9.28 Bohr mag/cell

     iteration # 42     ecut=    65.00 Ry     beta= 0.40
     Davidson diagonalization with overlap

---- Real-time Memory Report at c_bands before calling an iterative solver
           156 MiB given to the printing process from OS
           108 MiB allocation reported by mallinfo(arena+hblkhd)
        481079 MiB available memory on the node where the printing process lives
------------------
     ethr =  1.27E-05,  avg # of iterations =  2.7

     negative rho (up, down):  6.668E-01 1.747E-05

     total cpu time spent up to now is      246.0 secs

     total energy              =   -1057.94439924 Ry
     estimated scf accuracy    <       0.05217540 Ry

     total magnetization       =     5.99 Bohr mag/cell
     absolute magnetization    =     9.42 Bohr mag/cell

     iteration # 43     ecut=    65.00 Ry     beta= 0.40
     Davidson diagonalization with overlap

---- Real-time Memory Report at c_bands before calling an iterative solver
           156 MiB given to the printing process from OS
           108 MiB allocation reported by mallinfo(arena+hblkhd)
        481078 MiB available memory on the node where the printing process lives
------------------
     ethr =  1.27E-05,  avg # of iterations =  1.0

     negative rho (up, down):  6.674E-01 1.761E-05

     total cpu time spent up to now is      251.0 secs

     total energy              =   -1057.94434046 Ry
     estimated scf accuracy    <       0.05191103 Ry

     total magnetization       =     5.99 Bohr mag/cell
     absolute magnetization    =     9.42 Bohr mag/cell

     iteration # 44     ecut=    65.00 Ry     beta= 0.40
     Davidson diagonalization with overlap

---- Real-time Memory Report at c_bands before calling an iterative solver
           156 MiB given to the printing process from OS
           108 MiB allocation reported by mallinfo(arena+hblkhd)
        481077 MiB available memory on the node where the printing process lives
------------------
     ethr =  1.27E-05,  avg # of iterations =  1.0

     negative rho (up, down):  6.690E-01 1.753E-05

     total cpu time spent up to now is      256.0 secs

     total energy              =   -1057.94415577 Ry
     estimated scf accuracy    <       0.05239393 Ry

     total magnetization       =     5.99 Bohr mag/cell
     absolute magnetization    =     9.41 Bohr mag/cell

     iteration # 45     ecut=    65.00 Ry     beta= 0.40
     Davidson diagonalization with overlap

---- Real-time Memory Report at c_bands before calling an iterative solver
           156 MiB given to the printing process from OS
           108 MiB allocation reported by mallinfo(arena+hblkhd)
        481077 MiB available memory on the node where the printing process lives
------------------
     ethr =  1.27E-05,  avg # of iterations =  1.0

     negative rho (up, down):  7.085E-01 1.152E-04

     total cpu time spent up to now is      261.0 secs

     total energy              =   -1057.94378677 Ry
     estimated scf accuracy    <       0.05301824 Ry

     total magnetization       =     5.99 Bohr mag/cell
     absolute magnetization    =     9.43 Bohr mag/cell

     iteration # 46     ecut=    65.00 Ry     beta= 0.40
     Davidson diagonalization with overlap

---- Real-time Memory Report at c_bands before calling an iterative solver
           156 MiB given to the printing process from OS
           108 MiB allocation reported by mallinfo(arena+hblkhd)
        481082 MiB available memory on the node where the printing process lives
------------------
     ethr =  1.27E-05,  avg # of iterations =  4.6

     negative rho (up, down):  7.171E-01 7.801E-04

     total cpu time spent up to now is      267.9 secs

     total energy              =   -1057.95310963 Ry
     estimated scf accuracy    <       0.32584620 Ry

     total magnetization       =     5.99 Bohr mag/cell
     absolute magnetization    =     8.94 Bohr mag/cell

     iteration # 47     ecut=    65.00 Ry     beta= 0.40
     Davidson diagonalization with overlap

---- Real-time Memory Report at c_bands before calling an iterative solver
           156 MiB given to the printing process from OS
           108 MiB allocation reported by mallinfo(arena+hblkhd)
[...]
           108 MiB allocation reported by mallinfo(arena+hblkhd)
        481421 MiB available memory on the node where the printing process lives
------------------
     ethr =  8.27E-08,  avg # of iterations =  4.0

     negative rho (up, down):  3.663E-01 1.211E-01

     total cpu time spent up to now is     2904.6 secs

     total energy              =   -1057.95627694 Ry
     estimated scf accuracy    <       0.00169088 Ry

     total magnetization       =     5.99 Bohr mag/cell
     absolute magnetization    =     8.57 Bohr mag/cell

     iteration #481     ecut=    65.00 Ry     beta= 0.40
     Davidson diagonalization with overlap

---- Real-time Memory Report at c_bands before calling an iterative solver
           158 MiB given to the printing process from OS
           108 MiB allocation reported by mallinfo(arena+hblkhd)
        481421 MiB available memory on the node where the printing process lives
------------------
     ethr =  8.27E-08,  avg # of iterations =  2.1

     negative rho (up, down):  3.663E-01 1.200E-01

     total cpu time spent up to now is     2910.1 secs

     total energy              =   -1057.95630032 Ry
     estimated scf accuracy    <       0.00169626 Ry

     total magnetization       =     5.99 Bohr mag/cell
     absolute magnetization    =     8.57 Bohr mag/cell

     iteration #482     ecut=    65.00 Ry     beta= 0.40
     Davidson diagonalization with overlap

---- Real-time Memory Report at c_bands before calling an iterative solver
           158 MiB given to the printing process from OS
           108 MiB allocation reported by mallinfo(arena+hblkhd)
        481420 MiB available memory on the node where the printing process lives
------------------
     ethr =  8.27E-08,  avg # of iterations =  4.0

     negative rho (up, down):  3.672E-01 1.231E-01

     total cpu time spent up to now is     2916.0 secs

     total energy              =   -1057.95626853 Ry
     estimated scf accuracy    <       0.00234998 Ry

     total magnetization       =     5.99 Bohr mag/cell
     absolute magnetization    =     8.56 Bohr mag/cell

     iteration #483     ecut=    65.00 Ry     beta= 0.40
     Davidson diagonalization with overlap

---- Real-time Memory Report at c_bands before calling an iterative solver
           158 MiB given to the printing process from OS
           108 MiB allocation reported by mallinfo(arena+hblkhd)
        481419 MiB available memory on the node where the printing process lives
------------------
     ethr =  8.27E-08,  avg # of iterations =  5.0

     negative rho (up, down):  3.672E-01 1.212E-01

     total cpu time spent up to now is     2922.3 secs

     total energy              =   -1057.95625983 Ry
     estimated scf accuracy    <       0.00202770 Ry

     total magnetization       =     5.99 Bohr mag/cell
     absolute magnetization    =     8.56 Bohr mag/cell

     iteration #484     ecut=    65.00 Ry     beta= 0.40
     Davidson diagonalization with overlap

---- Real-time Memory Report at c_bands before calling an iterative solver
           158 MiB given to the printing process from OS
           108 MiB allocation reported by mallinfo(arena+hblkhd)
        481421 MiB available memory on the node where the printing process lives
------------------
     ethr =  8.27E-08,  avg # of iterations =  3.7

     negative rho (up, down):  3.652E-01 1.195E-01

     total cpu time spent up to now is     2928.1 secs

     total energy              =   -1057.95630608 Ry
     estimated scf accuracy    <       0.00240813 Ry

     total magnetization       =     5.99 Bohr mag/cell
     absolute magnetization    =     8.55 Bohr mag/cell

     iteration #485     ecut=    65.00 Ry     beta= 0.40
     Davidson diagonalization with overlap

---- Real-time Memory Report at c_bands before calling an iterative solver
           158 MiB given to the printing process from OS
           108 MiB allocation reported by mallinfo(arena+hblkhd)
        481422 MiB available memory on the node where the printing process lives
------------------
     ethr =  8.27E-08,  avg # of iterations =  5.4

     negative rho (up, down):  3.645E-01 1.241E-01

     total cpu time spent up to now is     2934.9 secs

     total energy              =   -1057.95618350 Ry
     estimated scf accuracy    <       0.00243889 Ry

     total magnetization       =     5.99 Bohr mag/cell
     absolute magnetization    =     8.59 Bohr mag/cell

     iteration #486     ecut=    65.00 Ry     beta= 0.40
     Davidson diagonalization with overlap

---- Real-time Memory Report at c_bands before calling an iterative solver
           158 MiB given to the printing process from OS
           108 MiB allocation reported by mallinfo(arena+hblkhd)
        481421 MiB available memory on the node where the printing process lives
------------------
     ethr =  8.27E-08,  avg # of iterations =  5.4

     negative rho (up, down):  3.635E-01 1.244E-01

     total cpu time spent up to now is     2941.8 secs

     total energy              =   -1057.95626547 Ry
     estimated scf accuracy    <       0.00162633 Ry

     total magnetization       =     5.99 Bohr mag/cell
     absolute magnetization    =     8.55 Bohr mag/cell

     iteration #487     ecut=    65.00 Ry     beta= 0.40
     Davidson diagonalization with overlap

---- Real-time Memory Report at c_bands before calling an iterative solver
           158 MiB given to the printing process from OS
           108 MiB allocation reported by mallinfo(arena+hblkhd)
        481424 MiB available memory on the node where the printing process lives
------------------
     ethr =  8.27E-08,  avg # of iterations =  5.0

     negative rho (up, down):  3.649E-01 1.106E-01

     total cpu time spent up to now is     2948.9 secs

     total energy              =   -1057.95615281 Ry
     estimated scf accuracy    <       0.00631603 Ry

     total magnetization       =     5.99 Bohr mag/cell
     absolute magnetization    =     8.48 Bohr mag/cell

     iteration #488     ecut=    65.00 Ry     beta= 0.40
     Davidson diagonalization with overlap

---- Real-time Memory Report at c_bands before calling an iterative solver
           158 MiB given to the printing process from OS
           108 MiB allocation reported by mallinfo(arena+hblkhd)
        481423 MiB available memory on the node where the printing process lives
------------------
     ethr =  8.27E-08,  avg # of iterations =  6.5

     negative rho (up, down):  3.670E-01 1.085E-01

     total cpu time spent up to now is     2957.6 secs

     total energy              =   -1057.95680310 Ry
     estimated scf accuracy    <       0.04182645 Ry

     total magnetization       =     5.99 Bohr mag/cell
     absolute magnetization    =     8.70 Bohr mag/cell

     iteration #489     ecut=    65.00 Ry     beta= 0.40
     Davidson diagonalization with overlap

---- Real-time Memory Report at c_bands before calling an iterative solver
           158 MiB given to the printing process from OS
           108 MiB allocation reported by mallinfo(arena+hblkhd)
        481424 MiB available memory on the node where the printing process lives
------------------
     ethr =  8.27E-08,  avg # of iterations =  3.1

     negative rho (up, down):  3.683E-01 1.122E-01

     total cpu time spent up to now is     2963.6 secs

     total energy              =   -1057.95650338 Ry
     estimated scf accuracy    <       0.04573678 Ry

     total magnetization       =     5.99 Bohr mag/cell
     absolute magnetization    =     8.72 Bohr mag/cell

     iteration #490     ecut=    65.00 Ry     beta= 0.40
     Davidson diagonalization with overlap

---- Real-time Memory Report at c_bands before calling an iterative solver
           158 MiB given to the printing process from OS
           108 MiB allocation reported by mallinfo(arena+hblkhd)
        481423 MiB available memory on the node where the printing process lives
------------------
     ethr =  8.27E-08,  avg # of iterations =  5.5

     negative rho (up, down):  3.658E-01 1.212E-01

     total cpu time spent up to now is     2970.5 secs

     total energy              =   -1057.95581278 Ry
     estimated scf accuracy    <       0.02925526 Ry

     total magnetization       =     5.99 Bohr mag/cell
     absolute magnetization    =     8.68 Bohr mag/cell

     iteration #491     ecut=    65.00 Ry     beta= 0.40
     Davidson diagonalization with overlap

---- Real-time Memory Report at c_bands before calling an iterative solver
           158 MiB given to the printing process from OS
           108 MiB allocation reported by mallinfo(arena+hblkhd)
        481422 MiB available memory on the node where the printing process lives
------------------
     ethr =  8.27E-08,  avg # of iterations =  6.6

     negative rho (up, down):  3.660E-01 1.199E-01

     total cpu time spent up to now is     2979.0 secs

     total energy              =   -1057.95631170 Ry
     estimated scf accuracy    <       0.00054753 Ry

     total magnetization       =     5.99 Bohr mag/cell
     absolute magnetization    =     8.60 Bohr mag/cell

     iteration #492     ecut=    65.00 Ry     beta= 0.40
     Davidson diagonalization with overlap

---- Real-time Memory Report at c_bands before calling an iterative solver
           158 MiB given to the printing process from OS
           108 MiB allocation reported by mallinfo(arena+hblkhd)
        481422 MiB available memory on the node where the printing process lives
------------------
     ethr =  8.27E-08,  avg # of iterations =  4.0

     negative rho (up, down):  3.661E-01 1.204E-01

     total cpu time spent up to now is     2984.9 secs

     total energy              =   -1057.95629107 Ry
     estimated scf accuracy    <       0.00142785 Ry

     total magnetization       =     5.99 Bohr mag/cell
     absolute magnetization    =     8.58 Bohr mag/cell

     iteration #493     ecut=    65.00 Ry     beta= 0.40
     Davidson diagonalization with overlap

---- Real-time Memory Report at c_bands before calling an iterative solver
           158 MiB given to the printing process from OS
           108 MiB allocation reported by mallinfo(arena+hblkhd)
        481421 MiB available memory on the node where the printing process lives
------------------
     ethr =  8.27E-08,  avg # of iterations =  1.5

     negative rho (up, down):  3.661E-01 1.204E-01

     total cpu time spent up to now is     2990.3 secs

     total energy              =   -1057.95629332 Ry
     estimated scf accuracy    <       0.00139013 Ry

     total magnetization       =     5.99 Bohr mag/cell
     absolute magnetization    =     8.58 Bohr mag/cell

     iteration #494     ecut=    65.00 Ry     beta= 0.40
     Davidson diagonalization with overlap

---- Real-time Memory Report at c_bands before calling an iterative solver
           158 MiB given to the printing process from OS
           108 MiB allocation reported by mallinfo(arena+hblkhd)
        481421 MiB available memory on the node where the printing process lives
------------------
     ethr =  8.27E-08,  avg # of iterations =  1.0

     negative rho (up, down):  3.662E-01 1.195E-01

     total cpu time spent up to now is     2995.3 secs

     total energy              =   -1057.95628339 Ry
     estimated scf accuracy    <       0.00148404 Ry

     total magnetization       =     5.99 Bohr mag/cell
     absolute magnetization    =     8.58 Bohr mag/cell

     iteration #495     ecut=    65.00 Ry     beta= 0.40
     Davidson diagonalization with overlap

---- Real-time Memory Report at c_bands before calling an iterative solver
           158 MiB given to the printing process from OS
           108 MiB allocation reported by mallinfo(arena+hblkhd)
        481420 MiB available memory on the node where the printing process lives
------------------
     ethr =  8.27E-08,  avg # of iterations =  2.5

     negative rho (up, down):  3.664E-01 1.188E-01

     total cpu time spent up to now is     3001.2 secs

     total energy              =   -1057.95626859 Ry
     estimated scf accuracy    <       0.00093392 Ry

     total magnetization       =     5.99 Bohr mag/cell
     absolute magnetization    =     8.60 Bohr mag/cell

     iteration #496     ecut=    65.00 Ry     beta= 0.40
     Davidson diagonalization with overlap

---- Real-time Memory Report at c_bands before calling an iterative solver
           158 MiB given to the printing process from OS
           108 MiB allocation reported by mallinfo(arena+hblkhd)
        481419 MiB available memory on the node where the printing process lives
------------------
     ethr =  8.27E-08,  avg # of iterations =  3.1

     negative rho (up, down):  3.650E-01 1.213E-01

     total cpu time spent up to now is     3007.3 secs

     total energy              =   -1057.95616370 Ry
     estimated scf accuracy    <       0.00068414 Ry

     total magnetization       =     5.99 Bohr mag/cell
     absolute magnetization    =     8.62 Bohr mag/cell

     iteration #497     ecut=    65.00 Ry     beta= 0.40
     Davidson diagonalization with overlap

---- Real-time Memory Report at c_bands before calling an iterative solver
           158 MiB given to the printing process from OS
           108 MiB allocation reported by mallinfo(arena+hblkhd)
        481419 MiB available memory on the node where the printing process lives
------------------
     ethr =  8.27E-08,  avg # of iterations =  5.1

     negative rho (up, down):  3.631E-01 1.210E-01

     total cpu time spent up to now is     3014.1 secs

     total energy              =   -1057.95616237 Ry
     estimated scf accuracy    <       0.00029726 Ry

     total magnetization       =     5.99 Bohr mag/cell
     absolute magnetization    =     8.65 Bohr mag/cell

     iteration #498     ecut=    65.00 Ry     beta= 0.40
     Davidson diagonalization with overlap

---- Real-time Memory Report at c_bands before calling an iterative solver
           158 MiB given to the printing process from OS
           108 MiB allocation reported by mallinfo(arena+hblkhd)
        481419 MiB available memory on the node where the printing process lives
------------------
     ethr =  8.27E-08,  avg # of iterations =  5.3

     negative rho (up, down):  3.624E-01 1.242E-01

     total cpu time spent up to now is     3022.3 secs

     total energy              =   -1057.95630135 Ry
     estimated scf accuracy    <       0.01085468 Ry

     total magnetization       =     5.99 Bohr mag/cell
     absolute magnetization    =     8.50 Bohr mag/cell

     iteration #499     ecut=    65.00 Ry     beta= 0.40
     Davidson diagonalization with overlap

---- Real-time Memory Report at c_bands before calling an iterative solver
           158 MiB given to the printing process from OS
           108 MiB allocation reported by mallinfo(arena+hblkhd)
        481418 MiB available memory on the node where the printing process lives
------------------
     ethr =  8.27E-08,  avg # of iterations =  5.0

     negative rho (up, down):  3.685E-01 1.186E-01

     total cpu time spent up to now is     3030.4 secs

     total energy              =   -1057.95602089 Ry
     estimated scf accuracy    <       0.00078110 Ry

     total magnetization       =     5.99 Bohr mag/cell
     absolute magnetization    =     8.60 Bohr mag/cell

     iteration #500     ecut=    65.00 Ry     beta= 0.40
     Davidson diagonalization with overlap

---- Real-time Memory Report at c_bands before calling an iterative solver
           158 MiB given to the printing process from OS
           108 MiB allocation reported by mallinfo(arena+hblkhd)
        481420 MiB available memory on the node where the printing process lives
------------------
     ethr =  8.27E-08,  avg # of iterations =  4.5

     negative rho (up, down):  3.762E-01 1.153E-01

     total cpu time spent up to now is     3037.4 secs

     total energy              =   -1057.95593567 Ry
     estimated scf accuracy    <       0.00152553 Ry

     total magnetization       =     5.99 Bohr mag/cell
     absolute magnetization    =     8.61 Bohr mag/cell

     End of self-consistent calculation

     convergence NOT achieved after 500 iterations: stopping

     Writing config to output data dir ./out/aiida.save/ :
     XML data file, charge density

     init_run     :      3.48s CPU      3.90s WALL (       1 calls)
     electrons    :   2862.29s CPU   3032.88s WALL (       1 calls)

     Called by init_run:
     wfcinit      :      2.11s CPU      2.45s WALL (       1 calls)
     wfcinit:atom :      0.03s CPU      0.03s WALL (      54 calls)
     wfcinit:wfcr :      1.92s CPU      2.26s WALL (      54 calls)
     potinit      :      0.63s CPU      0.68s WALL (       1 calls)
     hinit0       :      0.58s CPU      0.60s WALL (       1 calls)

     Called by electrons:
     c_bands      :   2254.16s CPU   2385.64s WALL (     500 calls)
     sum_band     :    423.80s CPU    452.47s WALL (     500 calls)
     v_of_rho     :     84.82s CPU     90.82s WALL (     501 calls)
     v_h          :      2.12s CPU      2.98s WALL (     501 calls)
     v_xc         :     82.70s CPU     87.84s WALL (     501 calls)
     newd         :     26.00s CPU     26.17s WALL (     501 calls)
     PAW_pot      :     51.96s CPU     55.21s WALL (     501 calls)
     mix_rho      :      7.38s CPU      7.62s WALL (     500 calls)

     Called by c_bands:
     init_us_2    :     28.91s CPU     29.91s WALL (   54054 calls)
     init_us_2:cp :     28.75s CPU     29.75s WALL (   54054 calls)
     cegterg      :   2092.68s CPU   2209.64s WALL (   27000 calls)

     Called by sum_band:
     sum_band:wei :      1.53s CPU      1.61s WALL (     500 calls)
     sum_band:loo :    370.13s CPU    396.12s WALL (     500 calls)
     sum_band:buf :      5.80s CPU      5.94s WALL (   27000 calls)
     sum_band:ini :     13.27s CPU     13.44s WALL (   27000 calls)
     sum_band:cal :     36.47s CPU     37.23s WALL (   27000 calls)
     sum_band:bec :      1.09s CPU      1.12s WALL (   27000 calls)
     addusdens    :     37.11s CPU     37.68s WALL (     500 calls)
                                        0.00s GPU  (     500 calls)
     addusd:skk   :      0.10s CPU      0.10s WALL (    1500 calls)
                                        0.00s GPU  (    1500 calls)

     Called by *egterg:
     cdiaghg      :    205.65s CPU    207.55s WALL (  115969 calls)
     cegterg:over :     85.10s CPU     86.22s WALL (   88969 calls)
     cegterg:upda :     59.89s CPU     60.43s WALL (   88969 calls)
     cegterg:last :     91.78s CPU     92.11s WALL (   47184 calls)
     h_psi        :   1519.13s CPU   1630.71s WALL (  116023 calls)
     s_psi        :     71.62s CPU     72.05s WALL (  116023 calls)
     g_psi        :      3.54s CPU      3.63s WALL (   88969 calls)

     Called by h_psi:
     h_psi:calbec :    116.32s CPU    119.81s WALL (  116023 calls)
     vloc_psi     :   1311.56s CPU   1417.83s WALL (  116023 calls)
     add_vuspsi   :     79.17s CPU     80.53s WALL (  116023 calls)

     General routines
     calbec       :    152.42s CPU    156.60s WALL (  143023 calls)
     fft          :     24.21s CPU     26.71s WALL (   12523 calls)
     ffts         :      1.09s CPU      1.19s WALL (    2002 calls)
     fftw         :   1180.22s CPU   1290.99s WALL ( 6170896 calls)
     interpolate  :      3.56s CPU      3.81s WALL (    1002 calls)
     davcio       :      0.00s CPU      0.05s WALL (      72 calls)

     Parallel routines

     PAW routines
     PAW_pot      :     51.96s CPU     55.21s WALL (     501 calls)
     PAW_symme    :      0.15s CPU      0.17s WALL (    1001 calls)

     PWSCF        :  47m47.44s CPU  50m39.11s WALL


   This run was terminated on:  22:35:12  28Nov2023            

=------------------------------------------------------------------------------=
   JOB DONE.
=------------------------------------------------------------------------------=
