
     Program PWSCF v.7.2 starts on 23Oct2023 at 17:47:57 

     This program is part of the open-source Quantum ESPRESSO suite
     for quantum simulation of materials; please cite
         "P. Giannozzi et al., J. Phys.:Condens. Matter 21 395502 (2009);
         "P. Giannozzi et al., J. Phys.:Condens. Matter 29 465901 (2017);
         "P. Giannozzi et al., J. Chem. Phys. 152 154105 (2020);
          URL http://www.quantum-espresso.org", 
     in publications or presentations arising from this work. More details at
     http://www.quantum-espresso.org/quote

     Parallel version (MPI & OpenMP), running on      12 processor cores
     Number of MPI processes:                 1
     Threads/MPI process:                    12

     MPI processes distributed on     1 nodes
     60336 MiB available memory on the printing compute node when the environment starts
 
     Reading input from aiida.in

     Current dimensions of program PWSCF are:
     Max number of different atomic species (ntypx) = 10
     Max number of k-points (npk) =  40000
     Max angular momentum in pseudopotentials (lmaxx) =  4
     file In.pbesol-dn-rrkjus_psl.0.2.2.UPF: wavefunction(s)  5S renormalized
     Message from routine setup:
     using ibrav=0 with symmetry is DISCOURAGED, use correct ibrav instead
 
     Subspace diagonalization in iterative solution of the eigenvalue problem:
     a serial algorithm will be used

 
     G-vector sticks info
     --------------------
     sticks:   dense  smooth     PW     G-vecs:    dense   smooth      PW
     Sum        1735     859    253                95033    33545    5299
 
     Using Slab Decomposition
 


     bravais-lattice index     =            0
     lattice parameter (alat)  =       7.9217  a.u.
     unit-cell volume          =     702.8777 (a.u.)^3
     number of atoms/cell      =            4
     number of atomic types    =            2
     number of electrons       =        36.00
     number of Kohn-Sham states=           22
     kinetic-energy cutoff     =      50.0000  Ry
     charge density cutoff     =     400.0000  Ry
     scf convergence threshold =      8.0E-10
     mixing beta               =       0.2000
     number of iterations used =            8  plain     mixing
     Exchange-correlation= PBESOL
                           (   1   4  10   8   0   0   0)

     GPU acceleration is ACTIVE.


     GPU used by master process:

        Device Number: 0
        Device name: Tesla P100-PCIE-16GB
        Compute capability : 60
        Ratio of single to double precision performance  : 2
        Memory Clock Rate (KHz): 715000
        Memory Bus Width (bits): 4096
        Peak Memory Bandwidth (GB/s): 732.16

     celldm(1)=   7.921732  celldm(2)=   0.000000  celldm(3)=   0.000000
     celldm(4)=   0.000000  celldm(5)=   0.000000  celldm(6)=   0.000000

     crystal axes: (cart. coord. in units of alat)
               a(1) = (   1.000000   0.000000   0.000000 )  
               a(2) = (  -0.500000   0.866025   0.000000 )  
               a(3) = (   0.000000   0.000000   1.632634 )  

     reciprocal axes: (cart. coord. in units 2 pi/alat)
               b(1) = (  1.000000  0.577350 -0.000000 )  
               b(2) = (  0.000000  1.154701  0.000000 )  
               b(3) = (  0.000000 -0.000000  0.612507 )  


     PseudoPot. # 1 for As read from file:
     ./pseudo/As.pbesol-n-rrkjus_psl.0.2.UPF
     MD5 check sum: 1aa86e6aa4f77befd3aa87cac6788838
     Pseudo is Ultrasoft + core correction, Zval =  5.0
     Generated using "atomic" code by A. Dal Corso  v.6.0 svn rev. 13079
     Using radial grid of 1209 points,  4 beta functions with: 
                l(1) =   0
                l(2) =   0
                l(3) =   1
                l(4) =   1
     Q(r) pseudized with 0 coefficients 


     PseudoPot. # 2 for In read from file:
     ./pseudo/In.pbesol-dn-rrkjus_psl.0.2.2.UPF
     MD5 check sum: 2a3399a31491503da6b8c7d8e01e9843
     Pseudo is Ultrasoft + core correction, Zval = 13.0
     Generated using "atomic" code by A. Dal Corso  v.6.0 svn rev. 13079
     Using radial grid of 1241 points,  6 beta functions with: 
                l(1) =   0
                l(2) =   0
                l(3) =   1
                l(4) =   1
                l(5) =   2
                l(6) =   2
     Q(r) pseudized with 0 coefficients 


     atomic species   valence    mass     pseudopotential
        As             5.00    74.92160     As( 1.00)
        In            13.00   114.81800     In( 1.00)

     Starting magnetic structure 
     atomic species   magnetization
        As           0.100
        In           0.100

     12 Sym. Ops. (no inversion) found ( 6 have fractional translation)


                                    s                        frac. trans.

      isym =  1     identity                                     

 cryst.   s( 1) = (     1          0          0      )
                  (     0          1          0      )
                  (     0          0          1      )

 cart.    s( 1) = (  1.0000000  0.0000000  0.0000000 )
                  (  0.0000000  1.0000000  0.0000000 )
                  (  0.0000000  0.0000000  1.0000000 )


      isym =  2     180 deg rotation - cart. axis [0,0,1]        

 cryst.   s( 2) = (    -1          0          0      )    f =(  0.0000000 )
                  (     0         -1          0      )       (  0.0000000 )
                  (     0          0          1      )       ( -0.5000000 )

 cart.    s( 2) = ( -1.0000000  0.0000000  0.0000000 )    f =(  0.0000000 )
                  (  0.0000000 -1.0000000  0.0000000 )       (  0.0000000 )
                  (  0.0000000  0.0000000  1.0000000 )       ( -0.8163168 )


      isym =  3      60 deg rotation - cryst. axis [0,0,1]       

 cryst.   s( 3) = (     1          1          0      )    f =(  0.0000000 )
                  (    -1          0          0      )       (  0.0000000 )
                  (     0          0          1      )       ( -0.5000000 )

 cart.    s( 3) = (  0.5000000 -0.8660254  0.0000000 )    f =(  0.0000000 )
                  (  0.8660254  0.5000000  0.0000000 )       (  0.0000000 )
                  (  0.0000000  0.0000000  1.0000000 )       ( -0.8163168 )


      isym =  4      60 deg rotation - cryst. axis [0,0,-1]      

 cryst.   s( 4) = (     0         -1          0      )    f =( -0.0000000 )
                  (     1          1          0      )       (  0.0000000 )
                  (     0          0          1      )       ( -0.5000000 )

 cart.    s( 4) = (  0.5000000  0.8660254  0.0000000 )    f =( -0.0000000 )
                  ( -0.8660254  0.5000000  0.0000000 )       (  0.0000000 )
                  (  0.0000000  0.0000000  1.0000000 )       ( -0.8163168 )


      isym =  5     120 deg rotation - cryst. axis [0,0,1]       

 cryst.   s( 5) = (     0          1          0      )
                  (    -1         -1          0      )
                  (     0          0          1      )

 cart.    s( 5) = ( -0.5000000 -0.8660254  0.0000000 )
                  (  0.8660254 -0.5000000  0.0000000 )
                  (  0.0000000  0.0000000  1.0000000 )


      isym =  6     120 deg rotation - cryst. axis [0,0,-1]      

 cryst.   s( 6) = (    -1         -1          0      )
                  (     1          0          0      )
                  (     0          0          1      )

 cart.    s( 6) = ( -0.5000000  0.8660254  0.0000000 )
                  ( -0.8660254 -0.5000000  0.0000000 )
                  (  0.0000000  0.0000000  1.0000000 )


      isym =  7     inv. 180 deg rotation - cart. axis [0,1,0]   

 cryst.   s( 7) = (     1          0          0      )    f =(  0.0000000 )
                  (    -1         -1          0      )       (  0.0000000 )
                  (     0          0          1      )       ( -0.5000000 )

 cart.    s( 7) = (  1.0000000  0.0000000  0.0000000 )    f =(  0.0000000 )
                  (  0.0000000 -1.0000000  0.0000000 )       (  0.0000000 )
                  (  0.0000000  0.0000000  1.0000000 )       ( -0.8163168 )


      isym =  8     inv. 180 deg rotation - cart. axis [1,0,0]   

 cryst.   s( 8) = (    -1          0          0      )
                  (     1          1          0      )
                  (     0          0          1      )

 cart.    s( 8) = ( -1.0000000  0.0000000  0.0000000 )
                  (  0.0000000  1.0000000  0.0000000 )
                  (  0.0000000  0.0000000  1.0000000 )


      isym =  9     inv. 180 deg rotation - cryst. axis [1,-1,0] 

 cryst.   s( 9) = (     0          1          0      )    f =( -0.0000000 )
                  (     1          0          0      )       (  0.0000000 )
                  (     0          0          1      )       ( -0.5000000 )

 cart.    s( 9) = ( -0.5000000  0.8660254  0.0000000 )    f =( -0.0000000 )
                  (  0.8660254  0.5000000  0.0000000 )       (  0.0000000 )
                  (  0.0000000  0.0000000  1.0000000 )       ( -0.8163168 )


      isym = 10     inv. 180 deg rotation - cryst. axis [2,1,0]  

 cryst.   s(10) = (    -1         -1          0      )    f =(  0.0000000 )
                  (     0          1          0      )       (  0.0000000 )
                  (     0          0          1      )       ( -0.5000000 )

 cart.    s(10) = ( -0.5000000 -0.8660254  0.0000000 )    f =(  0.0000000 )
                  ( -0.8660254  0.5000000  0.0000000 )       (  0.0000000 )
                  (  0.0000000  0.0000000  1.0000000 )       ( -0.8163168 )


      isym = 11     inv. 180 deg rotation - cryst. axis [0,1,0]  

 cryst.   s(11) = (     1          1          0      )
                  (     0         -1          0      )
                  (     0          0          1      )

 cart.    s(11) = (  0.5000000  0.8660254  0.0000000 )
                  (  0.8660254 -0.5000000  0.0000000 )
                  (  0.0000000  0.0000000  1.0000000 )


      isym = 12     inv. 180 deg rotation - cryst. axis [1,1,0]  

 cryst.   s(12) = (     0         -1          0      )
                  (    -1          0          0      )
                  (     0          0          1      )

 cart.    s(12) = (  0.5000000 -0.8660254  0.0000000 )
                  ( -0.8660254 -0.5000000  0.0000000 )
                  (  0.0000000  0.0000000  1.0000000 )


   Cartesian axes

     site n.     atom                  positions (alat units)
         1           In  tau(   1) = (   0.5000000   0.2886751   0.8163168  )
         2           In  tau(   2) = (   0.0000000   0.5773503   0.0000000  )
         3           As  tau(   3) = (   0.5000000   0.2886751   1.4293707  )
         4           As  tau(   4) = (   0.0000000   0.5773503   0.6130539  )

   Crystallographic axes

     site n.     atom                  positions (cryst. coord.)
         1           In  tau(   1) = (  0.6666667  0.3333333  0.5000000  )
         2           In  tau(   2) = (  0.3333333  0.6666667  0.0000000  )
         3           As  tau(   3) = (  0.6666667  0.3333333  0.8755000  )
         4           As  tau(   4) = (  0.3333333  0.6666667  0.3755000  )

     number of k points=    76  Marzari-Vanderbilt smearing, width (Ry)=  0.0100
                       cart. coord. in units 2pi/alat
        k(    1) = (   0.0000000   0.0000000   0.0000000), wk =   0.0009921
        k(    2) = (   0.0000000   0.0000000   0.0875010), wk =   0.0019841
        k(    3) = (   0.0000000   0.0000000   0.1750021), wk =   0.0019841
        k(    4) = (   0.0000000   0.0000000   0.2625031), wk =   0.0019841
        k(    5) = (   0.0000000   0.0962250   0.0000000), wk =   0.0059524
        k(    6) = (   0.0000000   0.0962250   0.0875010), wk =   0.0119048
        k(    7) = (   0.0000000   0.0962250   0.1750021), wk =   0.0119048
        k(    8) = (   0.0000000   0.0962250   0.2625031), wk =   0.0119048
        k(    9) = (   0.0000000   0.1924501   0.0000000), wk =   0.0059524
        k(   10) = (   0.0000000   0.1924501   0.0875010), wk =   0.0119048
        k(   11) = (   0.0000000   0.1924501   0.1750021), wk =   0.0119048
        k(   12) = (   0.0000000   0.1924501   0.2625031), wk =   0.0119048
        k(   13) = (   0.0000000   0.2886751   0.0000000), wk =   0.0059524
        k(   14) = (   0.0000000   0.2886751   0.0875010), wk =   0.0119048
        k(   15) = (   0.0000000   0.2886751   0.1750021), wk =   0.0119048
        k(   16) = (   0.0000000   0.2886751   0.2625031), wk =   0.0119048
        k(   17) = (   0.0000000   0.3849002   0.0000000), wk =   0.0059524
        k(   18) = (   0.0000000   0.3849002   0.0875010), wk =   0.0119048
        k(   19) = (   0.0000000   0.3849002   0.1750021), wk =   0.0119048
        k(   20) = (   0.0000000   0.3849002   0.2625031), wk =   0.0119048
        k(   21) = (   0.0000000   0.4811252   0.0000000), wk =   0.0059524
        k(   22) = (   0.0000000   0.4811252   0.0875010), wk =   0.0119048
        k(   23) = (   0.0000000   0.4811252   0.1750021), wk =   0.0119048
        k(   24) = (   0.0000000   0.4811252   0.2625031), wk =   0.0119048
        k(   25) = (   0.0000000  -0.5773503   0.0000000), wk =   0.0029762
        k(   26) = (   0.0000000  -0.5773503   0.0875010), wk =   0.0059524
        k(   27) = (   0.0000000  -0.5773503   0.1750021), wk =   0.0059524
        k(   28) = (   0.0000000  -0.5773503   0.2625031), wk =   0.0059524
        k(   29) = (   0.0833333   0.1443376   0.0000000), wk =   0.0059524
        k(   30) = (   0.0833333   0.1443376   0.0875010), wk =   0.0119048
        k(   31) = (   0.0833333   0.1443376   0.1750021), wk =   0.0119048
        k(   32) = (   0.0833333   0.1443376   0.2625031), wk =   0.0119048
        k(   33) = (   0.0833333   0.2405626   0.0000000), wk =   0.0119048
        k(   34) = (   0.0833333   0.2405626   0.0875010), wk =   0.0238095
        k(   35) = (   0.0833333   0.2405626   0.1750021), wk =   0.0238095
        k(   36) = (   0.0833333   0.2405626   0.2625031), wk =   0.0238095
        k(   37) = (   0.0833333   0.3367877   0.0000000), wk =   0.0119048
        k(   38) = (   0.0833333   0.3367877   0.0875010), wk =   0.0238095
        k(   39) = (   0.0833333   0.3367877   0.1750021), wk =   0.0238095
        k(   40) = (   0.0833333   0.3367877   0.2625031), wk =   0.0238095
        k(   41) = (   0.0833333   0.4330127   0.0000000), wk =   0.0119048
        k(   42) = (   0.0833333   0.4330127   0.0875010), wk =   0.0238095
        k(   43) = (   0.0833333   0.4330127   0.1750021), wk =   0.0238095
        k(   44) = (   0.0833333   0.4330127   0.2625031), wk =   0.0238095
        k(   45) = (   0.0833333   0.5292377   0.0000000), wk =   0.0119048
        k(   46) = (   0.0833333   0.5292377   0.0875010), wk =   0.0238095
        k(   47) = (   0.0833333   0.5292377   0.1750021), wk =   0.0238095
        k(   48) = (   0.0833333   0.5292377   0.2625031), wk =   0.0238095
        k(   49) = (   0.1666667   0.2886751   0.0000000), wk =   0.0059524
        k(   50) = (   0.1666667   0.2886751   0.0875010), wk =   0.0119048
        k(   51) = (   0.1666667   0.2886751   0.1750021), wk =   0.0119048
        k(   52) = (   0.1666667   0.2886751   0.2625031), wk =   0.0119048
        k(   53) = (   0.1666667   0.3849002   0.0000000), wk =   0.0119048
        k(   54) = (   0.1666667   0.3849002   0.0875010), wk =   0.0238095
        k(   55) = (   0.1666667   0.3849002   0.1750021), wk =   0.0238095
        k(   56) = (   0.1666667   0.3849002   0.2625031), wk =   0.0238095
        k(   57) = (   0.1666667   0.4811252   0.0000000), wk =   0.0119048
        k(   58) = (   0.1666667   0.4811252   0.0875010), wk =   0.0238095
        k(   59) = (   0.1666667   0.4811252   0.1750021), wk =   0.0238095
        k(   60) = (   0.1666667   0.4811252   0.2625031), wk =   0.0238095
        k(   61) = (   0.1666667   0.5773503   0.0000000), wk =   0.0059524
        k(   62) = (   0.1666667   0.5773503   0.0875010), wk =   0.0119048
        k(   63) = (   0.1666667   0.5773503   0.1750021), wk =   0.0119048
        k(   64) = (   0.1666667   0.5773503   0.2625031), wk =   0.0119048
        k(   65) = (   0.2500000   0.4330127   0.0000000), wk =   0.0059524
        k(   66) = (   0.2500000   0.4330127   0.0875010), wk =   0.0119048
        k(   67) = (   0.2500000   0.4330127   0.1750021), wk =   0.0119048
        k(   68) = (   0.2500000   0.4330127   0.2625031), wk =   0.0119048
        k(   69) = (   0.2500000   0.5292377   0.0000000), wk =   0.0119048
        k(   70) = (   0.2500000   0.5292377   0.0875010), wk =   0.0238095
        k(   71) = (   0.2500000   0.5292377   0.1750021), wk =   0.0238095
        k(   72) = (   0.2500000   0.5292377   0.2625031), wk =   0.0238095
        k(   73) = (   0.3333333   0.5773503   0.0000000), wk =   0.0019841
        k(   74) = (   0.3333333   0.5773503   0.0875010), wk =   0.0039683
        k(   75) = (   0.3333333   0.5773503   0.1750021), wk =   0.0039683
        k(   76) = (   0.3333333   0.5773503   0.2625031), wk =   0.0039683

                       cryst. coord.
        k(    1) = (   0.0000000   0.0000000   0.0000000), wk =   0.0009921
        k(    2) = (   0.0000000   0.0000000   0.1428571), wk =   0.0019841
        k(    3) = (   0.0000000   0.0000000   0.2857143), wk =   0.0019841
        k(    4) = (   0.0000000   0.0000000   0.4285714), wk =   0.0019841
        k(    5) = (   0.0000000   0.0833333   0.0000000), wk =   0.0059524
        k(    6) = (   0.0000000   0.0833333   0.1428571), wk =   0.0119048
        k(    7) = (   0.0000000   0.0833333   0.2857143), wk =   0.0119048
        k(    8) = (   0.0000000   0.0833333   0.4285714), wk =   0.0119048
        k(    9) = (   0.0000000   0.1666667   0.0000000), wk =   0.0059524
        k(   10) = (   0.0000000   0.1666667   0.1428571), wk =   0.0119048
        k(   11) = (   0.0000000   0.1666667   0.2857143), wk =   0.0119048
        k(   12) = (   0.0000000   0.1666667   0.4285714), wk =   0.0119048
        k(   13) = (   0.0000000   0.2500000   0.0000000), wk =   0.0059524
        k(   14) = (   0.0000000   0.2500000   0.1428571), wk =   0.0119048
        k(   15) = (   0.0000000   0.2500000   0.2857143), wk =   0.0119048
        k(   16) = (   0.0000000   0.2500000   0.4285714), wk =   0.0119048
        k(   17) = (   0.0000000   0.3333333   0.0000000), wk =   0.0059524
        k(   18) = (   0.0000000   0.3333333   0.1428571), wk =   0.0119048
        k(   19) = (   0.0000000   0.3333333   0.2857143), wk =   0.0119048
        k(   20) = (   0.0000000   0.3333333   0.4285714), wk =   0.0119048
        k(   21) = (   0.0000000   0.4166667   0.0000000), wk =   0.0059524
        k(   22) = (   0.0000000   0.4166667   0.1428571), wk =   0.0119048
        k(   23) = (   0.0000000   0.4166667   0.2857143), wk =   0.0119048
        k(   24) = (   0.0000000   0.4166667   0.4285714), wk =   0.0119048
        k(   25) = (   0.0000000  -0.5000000   0.0000000), wk =   0.0029762
        k(   26) = (   0.0000000  -0.5000000   0.1428571), wk =   0.0059524
        k(   27) = (   0.0000000  -0.5000000   0.2857143), wk =   0.0059524
        k(   28) = (   0.0000000  -0.5000000   0.4285714), wk =   0.0059524
        k(   29) = (   0.0833333   0.0833333   0.0000000), wk =   0.0059524
        k(   30) = (   0.0833333   0.0833333   0.1428571), wk =   0.0119048
        k(   31) = (   0.0833333   0.0833333   0.2857143), wk =   0.0119048
        k(   32) = (   0.0833333   0.0833333   0.4285714), wk =   0.0119048
        k(   33) = (   0.0833333   0.1666667   0.0000000), wk =   0.0119048
        k(   34) = (   0.0833333   0.1666667   0.1428571), wk =   0.0238095
        k(   35) = (   0.0833333   0.1666667   0.2857143), wk =   0.0238095
        k(   36) = (   0.0833333   0.1666667   0.4285714), wk =   0.0238095
        k(   37) = (   0.0833333   0.2500000   0.0000000), wk =   0.0119048
        k(   38) = (   0.0833333   0.2500000   0.1428571), wk =   0.0238095
        k(   39) = (   0.0833333   0.2500000   0.2857143), wk =   0.0238095
        k(   40) = (   0.0833333   0.2500000   0.4285714), wk =   0.0238095
        k(   41) = (   0.0833333   0.3333333   0.0000000), wk =   0.0119048
        k(   42) = (   0.0833333   0.3333333   0.1428571), wk =   0.0238095
        k(   43) = (   0.0833333   0.3333333   0.2857143), wk =   0.0238095
        k(   44) = (   0.0833333   0.3333333   0.4285714), wk =   0.0238095
        k(   45) = (   0.0833333   0.4166667   0.0000000), wk =   0.0119048
        k(   46) = (   0.0833333   0.4166667   0.1428571), wk =   0.0238095
        k(   47) = (   0.0833333   0.4166667   0.2857143), wk =   0.0238095
        k(   48) = (   0.0833333   0.4166667   0.4285714), wk =   0.0238095
        k(   49) = (   0.1666667   0.1666667   0.0000000), wk =   0.0059524
        k(   50) = (   0.1666667   0.1666667   0.1428571), wk =   0.0119048
        k(   51) = (   0.1666667   0.1666667   0.2857143), wk =   0.0119048
        k(   52) = (   0.1666667   0.1666667   0.4285714), wk =   0.0119048
        k(   53) = (   0.1666667   0.2500000   0.0000000), wk =   0.0119048
        k(   54) = (   0.1666667   0.2500000   0.1428571), wk =   0.0238095
        k(   55) = (   0.1666667   0.2500000   0.2857143), wk =   0.0238095
        k(   56) = (   0.1666667   0.2500000   0.4285714), wk =   0.0238095
        k(   57) = (   0.1666667   0.3333333   0.0000000), wk =   0.0119048
        k(   58) = (   0.1666667   0.3333333   0.1428571), wk =   0.0238095
        k(   59) = (   0.1666667   0.3333333   0.2857143), wk =   0.0238095
        k(   60) = (   0.1666667   0.3333333   0.4285714), wk =   0.0238095
        k(   61) = (   0.1666667   0.4166667   0.0000000), wk =   0.0059524
        k(   62) = (   0.1666667   0.4166667   0.1428571), wk =   0.0119048
        k(   63) = (   0.1666667   0.4166667   0.2857143), wk =   0.0119048
        k(   64) = (   0.1666667   0.4166667   0.4285714), wk =   0.0119048
        k(   65) = (   0.2500000   0.2500000   0.0000000), wk =   0.0059524
        k(   66) = (   0.2500000   0.2500000   0.1428571), wk =   0.0119048
        k(   67) = (   0.2500000   0.2500000   0.2857143), wk =   0.0119048
        k(   68) = (   0.2500000   0.2500000   0.4285714), wk =   0.0119048
        k(   69) = (   0.2500000   0.3333333   0.0000000), wk =   0.0119048
        k(   70) = (   0.2500000   0.3333333   0.1428571), wk =   0.0238095
        k(   71) = (   0.2500000   0.3333333   0.2857143), wk =   0.0238095
        k(   72) = (   0.2500000   0.3333333   0.4285714), wk =   0.0238095
        k(   73) = (   0.3333333   0.3333333   0.0000000), wk =   0.0019841
        k(   74) = (   0.3333333   0.3333333   0.1428571), wk =   0.0039683
        k(   75) = (   0.3333333   0.3333333   0.2857143), wk =   0.0039683
        k(   76) = (   0.3333333   0.3333333   0.4285714), wk =   0.0039683

     Dense  grid:    95033 G-vectors     FFT dimensions: (  54,  54,  90)

     Smooth grid:    33545 G-vectors     FFT dimensions: (  36,  36,  60)

     Dynamical RAM for                 wfc:       1.41 MB

     Dynamical RAM for     wfc (w. buffer):     215.51 MB

     Dynamical RAM for           str. fact:       2.90 MB

     Dynamical RAM for           local pot:       0.00 MB

     Dynamical RAM for          nlocal pot:       3.33 MB

     Dynamical RAM for                qrad:       3.21 MB

     Dynamical RAM for          rho,v,vnew:      20.71 MB

     Dynamical RAM for               rhoin:       6.90 MB

     Dynamical RAM for            rho*nmix:      46.40 MB

     Dynamical RAM for           G-vectors:       5.69 MB

     Dynamical RAM for          h,s,v(r/c):       0.09 MB

     Dynamical RAM for          <psi|beta>:       0.02 MB

     Dynamical RAM for                 psi:       2.82 MB

     Dynamical RAM for                hpsi:       2.82 MB

     Dynamical RAM for                spsi:       2.82 MB

     Dynamical RAM for      wfcinit/wfcrot:       2.83 MB

     Dynamical RAM for           addusdens:     274.07 MB

     Dynamical RAM for          addusforce:     276.98 MB

     Dynamical RAM for         addusstress:     293.64 MB

     Estimated static dynamical RAM per process >     274.63 MB

     Estimated max dynamical RAM per process >     614.67 MB

     Atomic positions and unit cell read from directory:
     ./out/aiida.save/
 
     Generating pointlists ...
     new r_m :   0.2525 (alat units)  2.0001 (a.u.) for type    1
     new r_m :   0.2525 (alat units)  2.0001 (a.u.) for type    2

     The initial density is read from file :
     ./out/aiida.save/charge-density


     starting charge      36.0009, renormalised to      36.0000
     Starting wfcs from file

     total cpu time spent up to now is        2.4 secs

     per-process dynamical memory:   428.5 Mb

     Self-consistent Calculation
[tb_dev] Currently allocated     3.05E-05 Mbytes, locked:    0 /   2
[tb_pin] Currently allocated     0.00E+00 Mbytes, locked:    0 /   0

     iteration #  1     ecut=    50.00 Ry     beta= 0.20
     Davidson diagonalization with overlap

---- Real-time Memory Report at c_bands before calling an iterative solver
           557 MiB given to the printing process from OS
           423 MiB allocation reported by mallinfo(arena+hblkhd)
         59673 MiB available memory on the node where the printing process lives
     GPU memory used/free/total (MiB): 760 / 15520 / 16280
------------------
     ethr =  1.00E-05,  avg # of iterations =  1.0

     Threshold (ethr) on eigenvalues was too large:
     Diagonalizing with lowered threshold

     Davidson diagonalization with overlap

---- Real-time Memory Report at c_bands before calling an iterative solver
          1125 MiB given to the printing process from OS
           946 MiB allocation reported by mallinfo(arena+hblkhd)
         58505 MiB available memory on the node where the printing process lives
     GPU memory used/free/total (MiB): 1236 / 15044 / 16280
------------------
     ethr =  5.15E-10,  avg # of iterations =  1.0

     total cpu time spent up to now is        7.2 secs

     total energy              =    -325.18838850 Ry
     estimated scf accuracy    <       0.00000020 Ry

     total magnetization       =    -0.00 Bohr mag/cell
     absolute magnetization    =     0.00 Bohr mag/cell
[tb_dev] Currently allocated     1.77E+00 Mbytes, locked:    0 /   8
[tb_pin] Currently allocated     0.00E+00 Mbytes, locked:    0 /   0

     iteration #  2     ecut=    50.00 Ry     beta= 0.20
     Davidson diagonalization with overlap

---- Real-time Memory Report at c_bands before calling an iterative solver
          1148 MiB given to the printing process from OS
           939 MiB allocation reported by mallinfo(arena+hblkhd)
         58492 MiB available memory on the node where the printing process lives
     GPU memory used/free/total (MiB): 1240 / 15040 / 16280
------------------
     ethr =  5.57E-10,  avg # of iterations =  1.0

     total cpu time spent up to now is        9.2 secs

     WARNING: integrated charge=    36.00021910, expected=    36.00000000

     total energy              =    -325.18735067 Ry
     estimated scf accuracy    <       0.00000019 Ry

     total magnetization       =    -0.00 Bohr mag/cell
     absolute magnetization    =     0.00 Bohr mag/cell
[tb_dev] Currently allocated     1.77E+00 Mbytes, locked:    0 /   8
[tb_pin] Currently allocated     0.00E+00 Mbytes, locked:    0 /   0

     iteration #  3     ecut=    50.00 Ry     beta= 0.20
     Davidson diagonalization with overlap

---- Real-time Memory Report at c_bands before calling an iterative solver
          1152 MiB given to the printing process from OS
           942 MiB allocation reported by mallinfo(arena+hblkhd)
         58490 MiB available memory on the node where the printing process lives
     GPU memory used/free/total (MiB): 1240 / 15040 / 16280
------------------
     ethr =  5.16E-10,  avg # of iterations =  1.0

     total cpu time spent up to now is       11.1 secs

     WARNING: integrated charge=    36.00044764, expected=    36.00000000

     total energy              =    -325.18838845 Ry
     estimated scf accuracy    <       0.00000006 Ry

     total magnetization       =    -0.00 Bohr mag/cell
     absolute magnetization    =     0.00 Bohr mag/cell
[tb_dev] Currently allocated     1.77E+00 Mbytes, locked:    0 /   8
[tb_pin] Currently allocated     0.00E+00 Mbytes, locked:    0 /   0

     iteration #  4     ecut=    50.00 Ry     beta= 0.20
     Davidson diagonalization with overlap

---- Real-time Memory Report at c_bands before calling an iterative solver
          1154 MiB given to the printing process from OS
           944 MiB allocation reported by mallinfo(arena+hblkhd)
         58491 MiB available memory on the node where the printing process lives
     GPU memory used/free/total (MiB): 1240 / 15040 / 16280
------------------
     ethr =  1.72E-10,  avg # of iterations =  2.0

     total cpu time spent up to now is       13.7 secs

     WARNING: integrated charge=    36.00058023, expected=    36.00000000

     total energy              =    -325.18735063 Ry
     estimated scf accuracy    <       0.00000006 Ry

     total magnetization       =    -0.00 Bohr mag/cell
     absolute magnetization    =     0.00 Bohr mag/cell
[tb_dev] Currently allocated     1.77E+00 Mbytes, locked:    0 /   8
[tb_pin] Currently allocated     0.00E+00 Mbytes, locked:    0 /   0

     iteration #  5     ecut=    50.00 Ry     beta= 0.20
     Davidson diagonalization with overlap

---- Real-time Memory Report at c_bands before calling an iterative solver
          1158 MiB given to the printing process from OS
           947 MiB allocation reported by mallinfo(arena+hblkhd)
         58489 MiB available memory on the node where the printing process lives
     GPU memory used/free/total (MiB): 1244 / 15036 / 16280
------------------
     ethr =  1.64E-10,  avg # of iterations =  1.0

     total cpu time spent up to now is       15.7 secs

     WARNING: integrated charge=    36.00076763, expected=    36.00000000

     total energy              =    -325.18735062 Ry
     estimated scf accuracy    <       0.00000004 Ry

     total magnetization       =    -0.00 Bohr mag/cell
     absolute magnetization    =     0.00 Bohr mag/cell
[tb_dev] Currently allocated     1.77E+00 Mbytes, locked:    0 /   8
[tb_pin] Currently allocated     0.00E+00 Mbytes, locked:    0 /   0

     iteration #  6     ecut=    50.00 Ry     beta= 0.20
     Davidson diagonalization with overlap

---- Real-time Memory Report at c_bands before calling an iterative solver
          1159 MiB given to the printing process from OS
           948 MiB allocation reported by mallinfo(arena+hblkhd)
         58488 MiB available memory on the node where the printing process lives
     GPU memory used/free/total (MiB): 1244 / 15036 / 16280
------------------
     ethr =  1.18E-10,  avg # of iterations =  1.0

     total cpu time spent up to now is       17.6 secs

     WARNING: integrated charge=    36.00077045, expected=    36.00000000

     total energy              =    -325.18838848 Ry
     estimated scf accuracy    <       0.00000003 Ry

     total magnetization       =    -0.00 Bohr mag/cell
     absolute magnetization    =     0.00 Bohr mag/cell
[tb_dev] Currently allocated     1.77E+00 Mbytes, locked:    0 /   8
[tb_pin] Currently allocated     0.00E+00 Mbytes, locked:    0 /   0

     iteration #  7     ecut=    50.00 Ry     beta= 0.20
     Davidson diagonalization with overlap

---- Real-time Memory Report at c_bands before calling an iterative solver
          1161 MiB given to the printing process from OS
           950 MiB allocation reported by mallinfo(arena+hblkhd)
         58487 MiB available memory on the node where the printing process lives
     GPU memory used/free/total (MiB): 1244 / 15036 / 16280
------------------
     ethr =  7.72E-11,  avg # of iterations =  1.0

     total cpu time spent up to now is       19.6 secs

     WARNING: integrated charge=    36.00090292, expected=    36.00000000

     total energy              =    -325.18735063 Ry
     estimated scf accuracy    <       0.00000004 Ry

     total magnetization       =    -0.00 Bohr mag/cell
     absolute magnetization    =     0.00 Bohr mag/cell
[tb_dev] Currently allocated     1.77E+00 Mbytes, locked:    0 /   8
[tb_pin] Currently allocated     0.00E+00 Mbytes, locked:    0 /   0

     iteration #  8     ecut=    50.00 Ry     beta= 0.20
     Davidson diagonalization with overlap

---- Real-time Memory Report at c_bands before calling an iterative solver
          1164 MiB given to the printing process from OS
           952 MiB allocation reported by mallinfo(arena+hblkhd)
         58486 MiB available memory on the node where the printing process lives
     GPU memory used/free/total (MiB): 1244 / 15036 / 16280
------------------
     ethr =  7.72E-11,  avg # of iterations =  1.0

     total cpu time spent up to now is       21.5 secs

     WARNING: integrated charge=    36.00090741, expected=    36.00000000

     total energy              =    -325.18838848 Ry
     estimated scf accuracy    <       0.00000003 Ry

     total magnetization       =     0.00 Bohr mag/cell
     absolute magnetization    =     0.00 Bohr mag/cell
[tb_dev] Currently allocated     1.77E+00 Mbytes, locked:    0 /   8
[tb_pin] Currently allocated     0.00E+00 Mbytes, locked:    0 /   0

     iteration #  9     ecut=    50.00 Ry     beta= 0.20
     Davidson diagonalization with overlap

---- Real-time Memory Report at c_bands before calling an iterative solver
          1166 MiB given to the printing process from OS
           954 MiB allocation reported by mallinfo(arena+hblkhd)
         58483 MiB available memory on the node where the printing process lives
     GPU memory used/free/total (MiB): 1244 / 15036 / 16280
------------------
     ethr =  7.23E-11,  avg # of iterations =  1.0

     total cpu time spent up to now is       23.5 secs

     WARNING: integrated charge=    36.00091605, expected=    36.00000000

     total energy              =    -325.18838848 Ry
     estimated scf accuracy    <       0.00000003 Ry

     total magnetization       =    -0.00 Bohr mag/cell
     absolute magnetization    =     0.00 Bohr mag/cell
[tb_dev] Currently allocated     1.77E+00 Mbytes, locked:    0 /   8
[tb_pin] Currently allocated     0.00E+00 Mbytes, locked:    0 /   0

     iteration # 10     ecut=    50.00 Ry     beta= 0.20
     Davidson diagonalization with overlap

---- Real-time Memory Report at c_bands before calling an iterative solver
          1169 MiB given to the printing process from OS
           958 MiB allocation reported by mallinfo(arena+hblkhd)
         58481 MiB available memory on the node where the printing process lives
     GPU memory used/free/total (MiB): 1244 / 15036 / 16280
------------------
     ethr =  7.23E-11,  avg # of iterations =  1.0

     total cpu time spent up to now is       25.5 secs

     WARNING: integrated charge=    36.00092463, expected=    36.00000000

     total energy              =    -325.18735063 Ry
     estimated scf accuracy    <       0.00000003 Ry

     total magnetization       =     0.00 Bohr mag/cell
     absolute magnetization    =     0.00 Bohr mag/cell
[tb_dev] Currently allocated     1.77E+00 Mbytes, locked:    0 /   8
[tb_pin] Currently allocated     0.00E+00 Mbytes, locked:    0 /   0

     iteration # 11     ecut=    50.00 Ry     beta= 0.20
     Davidson diagonalization with overlap

---- Real-time Memory Report at c_bands before calling an iterative solver
          1169 MiB given to the printing process from OS
           958 MiB allocation reported by mallinfo(arena+hblkhd)
         58481 MiB available memory on the node where the printing process lives
     GPU memory used/free/total (MiB): 1244 / 15036 / 16280
------------------
     ethr =  7.23E-11,  avg # of iterations =  1.0

     total cpu time spent up to now is       27.4 secs

     WARNING: integrated charge=    36.00090902, expected=    36.00000000

     total energy              =    -325.18838848 Ry
     estimated scf accuracy    <       0.00000002 Ry

     total magnetization       =    -0.00 Bohr mag/cell
     absolute magnetization    =     0.00 Bohr mag/cell
[tb_dev] Currently allocated     1.77E+00 Mbytes, locked:    0 /   8
[tb_pin] Currently allocated     0.00E+00 Mbytes, locked:    0 /   0

     iteration # 12     ecut=    50.00 Ry     beta= 0.20
     Davidson diagonalization with overlap

---- Real-time Memory Report at c_bands before calling an iterative solver
          1169 MiB given to the printing process from OS
           958 MiB allocation reported by mallinfo(arena+hblkhd)
         58481 MiB available memory on the node where the printing process lives
     GPU memory used/free/total (MiB): 1244 / 15036 / 16280
------------------
     ethr =  6.94E-11,  avg # of iterations =  1.0

     total cpu time spent up to now is       29.4 secs

     WARNING: integrated charge=    36.00090612, expected=    36.00000000

     total energy              =    -325.18735063 Ry
     estimated scf accuracy    <       0.00000003 Ry

     total magnetization       =     0.00 Bohr mag/cell
     absolute magnetization    =     0.00 Bohr mag/cell
[tb_dev] Currently allocated     1.77E+00 Mbytes, locked:    0 /   8
[tb_pin] Currently allocated     0.00E+00 Mbytes, locked:    0 /   0

     iteration # 13     ecut=    50.00 Ry     beta= 0.20
     Davidson diagonalization with overlap

---- Real-time Memory Report at c_bands before calling an iterative solver
          1169 MiB given to the printing process from OS
           958 MiB allocation reported by mallinfo(arena+hblkhd)
         58480 MiB available memory on the node where the printing process lives
     GPU memory used/free/total (MiB): 1244 / 15036 / 16280
------------------
     ethr =  6.94E-11,  avg # of iterations =  1.0

     total cpu time spent up to now is       31.4 secs

     WARNING: integrated charge=    36.00090614, expected=    36.00000000

     total energy              =    -325.18735063 Ry
     estimated scf accuracy    <       0.00000003 Ry

     total magnetization       =     0.00 Bohr mag/cell
     absolute magnetization    =     0.00 Bohr mag/cell
[tb_dev] Currently allocated     1.77E+00 Mbytes, locked:    0 /   8
[tb_pin] Currently allocated     0.00E+00 Mbytes, locked:    0 /   0

     iteration # 14     ecut=    50.00 Ry     beta= 0.20
     Davidson diagonalization with overlap

---- Real-time Memory Report at c_bands before calling an iterative solver
          1169 MiB given to the printing process from OS
           958 MiB allocation reported by mallinfo(arena+hblkhd)
         58480 MiB available memory on the node where the printing process lives
     GPU memory used/free/total (MiB): 1244 / 15036 / 16280
------------------
     ethr =  6.94E-11,  avg # of iterations =  1.0

     total cpu time spent up to now is       33.3 secs

     WARNING: integrated charge=    36.00090794, expected=    36.00000000

     total energy              =    -325.18735063 Ry
     estimated scf accuracy    <       0.00000003 Ry

     total magnetization       =     0.00 Bohr mag/cell
     absolute magnetization    =     0.00 Bohr mag/cell
[tb_dev] Currently allocated     1.77E+00 Mbytes, locked:    0 /   8
[tb_pin] Currently allocated     0.00E+00 Mbytes, locked:    0 /   0

     iteration # 15     ecut=    50.00 Ry     beta= 0.20
     Davidson diagonalization with overlap

---- Real-time Memory Report at c_bands before calling an iterative solver
          1169 MiB given to the printing process from OS
           958 MiB allocation reported by mallinfo(arena+hblkhd)
         58480 MiB available memory on the node where the printing process lives
     GPU memory used/free/total (MiB): 1244 / 15036 / 16280
------------------
     ethr =  6.94E-11,  avg # of iterations =  1.0

     total cpu time spent up to now is       35.3 secs

     WARNING: integrated charge=    36.00093775, expected=    36.00000000

     total energy              =    -325.18735063 Ry
     estimated scf accuracy    <       0.00000003 Ry

     total magnetization       =     0.00 Bohr mag/cell
     absolute magnetization    =     0.00 Bohr mag/cell
[tb_dev] Currently allocated     1.77E+00 Mbytes, locked:    0 /   8
[tb_pin] Currently allocated     0.00E+00 Mbytes, locked:    0 /   0

     iteration # 16     ecut=    50.00 Ry     beta= 0.20
     Davidson diagonalization with overlap

---- Real-time Memory Report at c_bands before calling an iterative solver
          1169 MiB given to the printing process from OS
           958 MiB allocation reported by mallinfo(arena+hblkhd)
         58481 MiB available memory on the node where the printing process lives
     GPU memory used/free/total (MiB): 1244 / 15036 / 16280
------------------
     ethr =  6.94E-11,  avg # of iterations =  1.0

     total cpu time spent up to now is       37.3 secs

     WARNING: integrated charge=    36.00094074, expected=    36.00000000

     total energy              =    -325.18838848 Ry
     estimated scf accuracy    <       0.00000003 Ry

     total magnetization       =    -0.00 Bohr mag/cell
     absolute magnetization    =     0.00 Bohr mag/cell
[tb_dev] Currently allocated     1.77E+00 Mbytes, locked:    0 /   8
[tb_pin] Currently allocated     0.00E+00 Mbytes, locked:    0 /   0

     iteration # 17     ecut=    50.00 Ry     beta= 0.20
     Davidson diagonalization with overlap

---- Real-time Memory Report at c_bands before calling an iterative solver
          1169 MiB given to the printing process from OS
           958 MiB allocation reported by mallinfo(arena+hblkhd)
         58481 MiB available memory on the node where the printing process lives
     GPU memory used/free/total (MiB): 1244 / 15036 / 16280
------------------
     ethr =  6.94E-11,  avg # of iterations =  1.0

     total cpu time spent up to now is       39.2 secs

     WARNING: integrated charge=    36.00092913, expected=    36.00000000

     total energy              =    -325.18838848 Ry
     estimated scf accuracy    <       0.00000003 Ry

     total magnetization       =    -0.00 Bohr mag/cell
     absolute magnetization    =     0.00 Bohr mag/cell
[tb_dev] Currently allocated     1.77E+00 Mbytes, locked:    0 /   8
[tb_pin] Currently allocated     0.00E+00 Mbytes, locked:    0 /   0

     iteration # 18     ecut=    50.00 Ry     beta= 0.20
     Davidson diagonalization with overlap

---- Real-time Memory Report at c_bands before calling an iterative solver
          1169 MiB given to the printing process from OS
           958 MiB allocation reported by mallinfo(arena+hblkhd)
         58482 MiB available memory on the node where the printing process lives
     GPU memory used/free/total (MiB): 1244 / 15036 / 16280
------------------
     ethr =  6.94E-11,  avg # of iterations =  1.0

     total cpu time spent up to now is       41.2 secs

     WARNING: integrated charge=    36.00093382, expected=    36.00000000

     total energy              =    -325.18838848 Ry
     estimated scf accuracy    <       0.00000002 Ry

     total magnetization       =    -0.00 Bohr mag/cell
     absolute magnetization    =     0.00 Bohr mag/cell
[tb_dev] Currently allocated     1.77E+00 Mbytes, locked:    0 /   8
[tb_pin] Currently allocated     0.00E+00 Mbytes, locked:    0 /   0

     iteration # 19     ecut=    50.00 Ry     beta= 0.20
     Davidson diagonalization with overlap

---- Real-time Memory Report at c_bands before calling an iterative solver
          1169 MiB given to the printing process from OS
           958 MiB allocation reported by mallinfo(arena+hblkhd)
         58482 MiB available memory on the node where the printing process lives
     GPU memory used/free/total (MiB): 1244 / 15036 / 16280
------------------
     ethr =  6.87E-11,  avg # of iterations =  1.0

     total cpu time spent up to now is       43.2 secs

     WARNING: integrated charge=    36.00093113, expected=    36.00000000

     total energy              =    -325.18838848 Ry
     estimated scf accuracy    <       0.00000002 Ry

     total magnetization       =    -0.00 Bohr mag/cell
     absolute magnetization    =     0.00 Bohr mag/cell
[tb_dev] Currently allocated     1.77E+00 Mbytes, locked:    0 /   8
[tb_pin] Currently allocated     0.00E+00 Mbytes, locked:    0 /   0

     iteration # 20     ecut=    50.00 Ry     beta= 0.20
     Davidson diagonalization with overlap

---- Real-time Memory Report at c_bands before calling an iterative solver
          1169 MiB given to the printing process from OS
           958 MiB allocation reported by mallinfo(arena+hblkhd)
         58482 MiB available memory on the node where the printing process lives
     GPU memory used/free/total (MiB): 1244 / 15036 / 16280
------------------
     ethr =  6.87E-11,  avg # of iterations =  1.0

     total cpu time spent up to now is       45.1 secs

     WARNING: integrated charge=    36.00093486, expected=    36.00000000

     total energy              =    -325.18838848 Ry
     estimated scf accuracy    <       0.00000002 Ry

     total magnetization       =    -0.00 Bohr mag/cell
     absolute magnetization    =     0.00 Bohr mag/cell
[tb_dev] Currently allocated     1.77E+00 Mbytes, locked:    0 /   8
[tb_pin] Currently allocated     0.00E+00 Mbytes, locked:    0 /   0

     iteration # 21     ecut=    50.00 Ry     beta= 0.20
     Davidson diagonalization with overlap

---- Real-time Memory Report at c_bands before calling an iterative solver
          1169 MiB given to the printing process from OS
           958 MiB allocation reported by mallinfo(arena+hblkhd)
         58482 MiB available memory on the node where the printing process lives
     GPU memory used/free/total (MiB): 1244 / 15036 / 16280
------------------
     ethr =  6.87E-11,  avg # of iterations =  1.0

     total cpu time spent up to now is       47.1 secs

     WARNING: integrated charge=    36.00093414, expected=    36.00000000

     total energy              =    -325.18838848 Ry
     estimated scf accuracy    <       0.00000003 Ry

     total magnetization       =    -0.00 Bohr mag/cell
     absolute magnetization    =     0.00 Bohr mag/cell
[tb_dev] Currently allocated     1.77E+00 Mbytes, locked:    0 /   8
[tb_pin] Currently allocated     0.00E+00 Mbytes, locked:    0 /   0

     iteration # 22     ecut=    50.00 Ry     beta= 0.20
     Davidson diagonalization with overlap

---- Real-time Memory Report at c_bands before calling an iterative solver
          1169 MiB given to the printing process from OS
           958 MiB allocation reported by mallinfo(arena+hblkhd)
         58482 MiB available memory on the node where the printing process lives
     GPU memory used/free/total (MiB): 1244 / 15036 / 16280
------------------
     ethr =  6.87E-11,  avg # of iterations =  1.0

     total cpu time spent up to now is       49.1 secs

     WARNING: integrated charge=    36.00095963, expected=    36.00000000

     total energy              =    -325.18838848 Ry
     estimated scf accuracy    <       0.00000003 Ry

     total magnetization       =    -0.00 Bohr mag/cell
     absolute magnetization    =     0.00 Bohr mag/cell
[tb_dev] Currently allocated     1.77E+00 Mbytes, locked:    0 /   8
[tb_pin] Currently allocated     0.00E+00 Mbytes, locked:    0 /   0

     iteration # 23     ecut=    50.00 Ry     beta= 0.20
     Davidson diagonalization with overlap

---- Real-time Memory Report at c_bands before calling an iterative solver
          1169 MiB given to the printing process from OS
           958 MiB allocation reported by mallinfo(arena+hblkhd)
         58482 MiB available memory on the node where the printing process lives
     GPU memory used/free/total (MiB): 1244 / 15036 / 16280
------------------
     ethr =  6.87E-11,  avg # of iterations =  1.0

     total cpu time spent up to now is       51.0 secs

     WARNING: integrated charge=    36.00096086, expected=    36.00000000

     total energy              =    -325.18838848 Ry
     estimated scf accuracy    <       0.00000003 Ry

     total magnetization       =    -0.00 Bohr mag/cell
     absolute magnetization    =     0.00 Bohr mag/cell
[tb_dev] Currently allocated     1.77E+00 Mbytes, locked:    0 /   8
[tb_pin] Currently allocated     0.00E+00 Mbytes, locked:    0 /   0

     iteration # 24     ecut=    50.00 Ry     beta= 0.20
     Davidson diagonalization with overlap

---- Real-time Memory Report at c_bands before calling an iterative solver
          1169 MiB given to the printing process from OS
           958 MiB allocation reported by mallinfo(arena+hblkhd)
         58483 MiB available memory on the node where the printing process lives
     GPU memory used/free/total (MiB): 1244 / 15036 / 16280
------------------
     ethr =  6.87E-11,  avg # of iterations =  1.0

     total cpu time spent up to now is       53.0 secs

     WARNING: integrated charge=    35.99998928, expected=    36.00000000

     total energy              =    -325.18838846 Ry
     estimated scf accuracy    <       0.00000003 Ry

     total magnetization       =    -0.00 Bohr mag/cell
     absolute magnetization    =     0.00 Bohr mag/cell
[tb_dev] Currently allocated     1.77E+00 Mbytes, locked:    0 /   8
[tb_pin] Currently allocated     0.00E+00 Mbytes, locked:    0 /   0

     iteration # 25     ecut=    50.00 Ry     beta= 0.20
     Davidson diagonalization with overlap

---- Real-time Memory Report at c_bands before calling an iterative solver
          1169 MiB given to the printing process from OS
           958 MiB allocation reported by mallinfo(arena+hblkhd)
         58483 MiB available memory on the node where the printing process lives
     GPU memory used/free/total (MiB): 1244 / 15036 / 16280
------------------
     ethr =  6.87E-11,  avg # of iterations =  2.0

     total cpu time spent up to now is       55.4 secs

     WARNING: integrated charge=    36.00094034, expected=    36.00000000

     total energy              =    -325.18735063 Ry
     estimated scf accuracy    <       0.00000012 Ry

     total magnetization       =     0.00 Bohr mag/cell
     absolute magnetization    =     0.00 Bohr mag/cell
[tb_dev] Currently allocated     1.77E+00 Mbytes, locked:    0 /   8
[tb_pin] Currently allocated     0.00E+00 Mbytes, locked:    0 /   0

     iteration # 26     ecut=    50.00 Ry     beta= 0.20
     Davidson diagonalization with overlap

---- Real-time Memory Report at c_bands before calling an iterative solver
          1169 MiB given to the printing process from OS
           958 MiB allocation reported by mallinfo(arena+hblkhd)
         58482 MiB available memory on the node where the printing process lives
     GPU memory used/free/total (MiB): 1266 / 15014 / 16280
------------------
     ethr =  6.87E-11,  avg # of iterations =  2.0

     total cpu time spent up to now is       57.8 secs

     WARNING: integrated charge=    36.00096780, expected=    36.00000000

     total energy              =    -325.18838848 Ry
     estimated scf accuracy    <       0.00000002 Ry

     total magnetization       =    -0.00 Bohr mag/cell
     absolute magnetization    =     0.00 Bohr mag/cell
[tb_dev] Currently allocated     1.77E+00 Mbytes, locked:    0 /   8
[tb_pin] Currently allocated     0.00E+00 Mbytes, locked:    0 /   0

     iteration # 27     ecut=    50.00 Ry     beta= 0.20
     Davidson diagonalization with overlap

---- Real-time Memory Report at c_bands before calling an iterative solver
          1169 MiB given to the printing process from OS
           958 MiB allocation reported by mallinfo(arena+hblkhd)
         58483 MiB available memory on the node where the printing process lives
     GPU memory used/free/total (MiB): 1266 / 15014 / 16280
------------------
     ethr =  6.67E-11,  avg # of iterations =  1.0

     total cpu time spent up to now is       59.8 secs

     WARNING: integrated charge=    36.00094553, expected=    36.00000000

     total energy              =    -325.18838848 Ry
     estimated scf accuracy    <       0.00000003 Ry

     total magnetization       =    -0.00 Bohr mag/cell
     absolute magnetization    =     0.00 Bohr mag/cell
[tb_dev] Currently allocated     1.77E+00 Mbytes, locked:    0 /   8
[tb_pin] Currently allocated     0.00E+00 Mbytes, locked:    0 /   0

     iteration # 28     ecut=    50.00 Ry     beta= 0.20
     Davidson diagonalization with overlap

---- Real-time Memory Report at c_bands before calling an iterative solver
          1169 MiB given to the printing process from OS
           958 MiB allocation reported by mallinfo(arena+hblkhd)
         58483 MiB available memory on the node where the printing process lives
     GPU memory used/free/total (MiB): 1266 / 15014 / 16280
------------------
     ethr =  6.67E-11,  avg # of iterations =  1.0

     total cpu time spent up to now is       61.8 secs

     WARNING: integrated charge=    36.00080788, expected=    36.00000000

     total energy              =    -325.18838847 Ry
     estimated scf accuracy    <       0.00000003 Ry

     total magnetization       =    -0.00 Bohr mag/cell
     absolute magnetization    =     0.00 Bohr mag/cell
[tb_dev] Currently allocated     1.77E+00 Mbytes, locked:    0 /   8
[tb_pin] Currently allocated     0.00E+00 Mbytes, locked:    0 /   0

     iteration # 29     ecut=    50.00 Ry     beta= 0.20
     Davidson diagonalization with overlap

---- Real-time Memory Report at c_bands before calling an iterative solver
          1169 MiB given to the printing process from OS
           958 MiB allocation reported by mallinfo(arena+hblkhd)
         58484 MiB available memory on the node where the printing process lives
     GPU memory used/free/total (MiB): 1266 / 15014 / 16280
------------------
     ethr =  6.67E-11,  avg # of iterations =  1.0

     total cpu time spent up to now is       63.8 secs

     WARNING: integrated charge=    36.00094067, expected=    36.00000000

     total energy              =    -325.18735063 Ry
     estimated scf accuracy    <       0.00000004 Ry

     total magnetization       =     0.00 Bohr mag/cell
     absolute magnetization    =     0.00 Bohr mag/cell
[tb_dev] Currently allocated     1.77E+00 Mbytes, locked:    0 /   8
[tb_pin] Currently allocated     0.00E+00 Mbytes, locked:    0 /   0

     iteration # 30     ecut=    50.00 Ry     beta= 0.20
     Davidson diagonalization with overlap

---- Real-time Memory Report at c_bands before calling an iterative solver
          1169 MiB given to the printing process from OS
           958 MiB allocation reported by mallinfo(arena+hblkhd)
         58484 MiB available memory on the node where the printing process lives
     GPU memory used/free/total (MiB): 1266 / 15014 / 16280
------------------
     ethr =  6.67E-11,  avg # of iterations =  1.0

     total cpu time spent up to now is       65.7 secs

     WARNING: integrated charge=    36.00093854, expected=    36.00000000

     total energy              =    -325.18838848 Ry
     estimated scf accuracy    <       0.00000002 Ry

     total magnetization       =    -0.00 Bohr mag/cell
     absolute magnetization    =     0.00 Bohr mag/cell
[tb_dev] Currently allocated     1.77E+00 Mbytes, locked:    0 /   8
[tb_pin] Currently allocated     0.00E+00 Mbytes, locked:    0 /   0

     iteration # 31     ecut=    50.00 Ry     beta= 0.20
     Davidson diagonalization with overlap

---- Real-time Memory Report at c_bands before calling an iterative solver
          1169 MiB given to the printing process from OS
           958 MiB allocation reported by mallinfo(arena+hblkhd)
         58484 MiB available memory on the node where the printing process lives
     GPU memory used/free/total (MiB): 1266 / 15014 / 16280
------------------
     ethr =  6.67E-11,  avg # of iterations =  1.0

     total cpu time spent up to now is       67.7 secs

     WARNING: integrated charge=    36.00093892, expected=    36.00000000

     total energy              =    -325.18838848 Ry
     estimated scf accuracy    <       0.00000002 Ry

     total magnetization       =    -0.00 Bohr mag/cell
     absolute magnetization    =     0.00 Bohr mag/cell
[tb_dev] Currently allocated     1.77E+00 Mbytes, locked:    0 /   8
[tb_pin] Currently allocated     0.00E+00 Mbytes, locked:    0 /   0

     iteration # 32     ecut=    50.00 Ry     beta= 0.20
     Davidson diagonalization with overlap

---- Real-time Memory Report at c_bands before calling an iterative solver
          1169 MiB given to the printing process from OS
           958 MiB allocation reported by mallinfo(arena+hblkhd)
         58484 MiB available memory on the node where the printing process lives
     GPU memory used/free/total (MiB): 1266 / 15014 / 16280
------------------
     ethr =  6.67E-11,  avg # of iterations =  1.0

     total cpu time spent up to now is       69.6 secs

     WARNING: integrated charge=    36.00094065, expected=    36.00000000

     total energy              =    -325.18838848 Ry
     estimated scf accuracy    <       0.00000002 Ry

     total magnetization       =    -0.00 Bohr mag/cell
     absolute magnetization    =     0.00 Bohr mag/cell
[tb_dev] Currently allocated     1.77E+00 Mbytes, locked:    0 /   8
[tb_pin] Currently allocated     0.00E+00 Mbytes, locked:    0 /   0

     iteration # 33     ecut=    50.00 Ry     beta= 0.20
     Davidson diagonalization with overlap

---- Real-time Memory Report at c_bands before calling an iterative solver
          1169 MiB given to the printing process from OS
           958 MiB allocation reported by mallinfo(arena+hblkhd)
         58484 MiB available memory on the node where the printing process lives
     GPU memory used/free/total (MiB): 1266 / 15014 / 16280
------------------
     ethr =  6.67E-11,  avg # of iterations =  1.0

     total cpu time spent up to now is       71.6 secs

     WARNING: integrated charge=    36.00088070, expected=    36.00000000

     total energy              =    -325.18838847 Ry
     estimated scf accuracy    <       0.00000002 Ry

     total magnetization       =    -0.00 Bohr mag/cell
     absolute magnetization    =     0.00 Bohr mag/cell
[tb_dev] Currently allocated     1.77E+00 Mbytes, locked:    0 /   8
[tb_pin] Currently allocated     0.00E+00 Mbytes, locked:    0 /   0

     iteration # 34     ecut=    50.00 Ry     beta= 0.20
     Davidson diagonalization with overlap

---- Real-time Memory Report at c_bands before calling an iterative solver
          1169 MiB given to the printing process from OS
           958 MiB allocation reported by mallinfo(arena+hblkhd)
         58484 MiB available memory on the node where the printing process lives
     GPU memory used/free/total (MiB): 1266 / 15014 / 16280
------------------
     ethr =  6.67E-11,  avg # of iterations =  1.0

     total cpu time spent up to now is       73.6 secs

     WARNING: integrated charge=    36.00094583, expected=    36.00000000

     total energy              =    -325.18735063 Ry
     estimated scf accuracy    <       0.00000004 Ry

     total magnetization       =     0.00 Bohr mag/cell
     absolute magnetization    =     0.00 Bohr mag/cell
[tb_dev] Currently allocated     1.77E+00 Mbytes, locked:    0 /   8
[tb_pin] Currently allocated     0.00E+00 Mbytes, locked:    0 /   0

     iteration # 35     ecut=    50.00 Ry     beta= 0.20
     Davidson diagonalization with overlap

---- Real-time Memory Report at c_bands before calling an iterative solver
          1169 MiB given to the printing process from OS
           958 MiB allocation reported by mallinfo(arena+hblkhd)
         58483 MiB available memory on the node where the printing process lives
     GPU memory used/free/total (MiB): 1266 / 15014 / 16280
------------------
     ethr =  6.67E-11,  avg # of iterations =  1.0

     total cpu time spent up to now is       75.5 secs

     WARNING: integrated charge=    36.00093582, expected=    36.00000000

     total energy              =    -325.18838848 Ry
     estimated scf accuracy    <       0.00000003 Ry

     total magnetization       =    -0.00 Bohr mag/cell
     absolute magnetization    =     0.00 Bohr mag/cell
[tb_dev] Currently allocated     1.77E+00 Mbytes, locked:    0 /   8
[tb_pin] Currently allocated     0.00E+00 Mbytes, locked:    0 /   0

     iteration # 36     ecut=    50.00 Ry     beta= 0.20
     Davidson diagonalization with overlap

---- Real-time Memory Report at c_bands before calling an iterative solver
          1169 MiB given to the printing process from OS
           958 MiB allocation reported by mallinfo(arena+hblkhd)
         58484 MiB available memory on the node where the printing process lives
     GPU memory used/free/total (MiB): 1266 / 15014 / 16280
------------------
     ethr =  6.67E-11,  avg # of iterations =  1.0

     total cpu time spent up to now is       77.5 secs

     WARNING: integrated charge=    36.00092709, expected=    36.00000000

     total energy              =    -325.18838848 Ry
     estimated scf accuracy    <       0.00000002 Ry

     total magnetization       =    -0.00 Bohr mag/cell
     absolute magnetization    =     0.00 Bohr mag/cell
[tb_dev] Currently allocated     1.77E+00 Mbytes, locked:    0 /   8
[tb_pin] Currently allocated     0.00E+00 Mbytes, locked:    0 /   0

     iteration # 37     ecut=    50.00 Ry     beta= 0.20
     Davidson diagonalization with overlap

---- Real-time Memory Report at c_bands before calling an iterative solver
          1169 MiB given to the printing process from OS
           958 MiB allocation reported by mallinfo(arena+hblkhd)
         58484 MiB available memory on the node where the printing process lives
     GPU memory used/free/total (MiB): 1266 / 15014 / 16280
------------------
     ethr =  6.67E-11,  avg # of iterations =  1.0

     total cpu time spent up to now is       79.5 secs

     WARNING: integrated charge=    36.00091796, expected=    36.00000000

     total energy              =    -325.18838848 Ry
     estimated scf accuracy    <       0.00000002 Ry

     total magnetization       =    -0.00 Bohr mag/cell
     absolute magnetization    =     0.00 Bohr mag/cell
[tb_dev] Currently allocated     1.77E+00 Mbytes, locked:    0 /   8
[tb_pin] Currently allocated     0.00E+00 Mbytes, locked:    0 /   0

     iteration # 38     ecut=    50.00 Ry     beta= 0.20
     Davidson diagonalization with overlap

---- Real-time Memory Report at c_bands before calling an iterative solver
          1169 MiB given to the printing process from OS
           958 MiB allocation reported by mallinfo(arena+hblkhd)
         58484 MiB available memory on the node where the printing process lives
     GPU memory used/free/total (MiB): 1266 / 15014 / 16280
------------------
     ethr =  6.67E-11,  avg # of iterations =  1.0

     total cpu time spent up to now is       81.4 secs

     WARNING: integrated charge=    36.00091061, expected=    36.00000000

     total energy              =    -325.18735063 Ry
     estimated scf accuracy    <       0.00000003 Ry

     total magnetization       =     0.00 Bohr mag/cell
     absolute magnetization    =     0.00 Bohr mag/cell
[tb_dev] Currently allocated     1.77E+00 Mbytes, locked:    0 /   8
[tb_pin] Currently allocated     0.00E+00 Mbytes, locked:    0 /   0

     iteration # 39     ecut=    50.00 Ry     beta= 0.20
     Davidson diagonalization with overlap

---- Real-time Memory Report at c_bands before calling an iterative solver
          1169 MiB given to the printing process from OS
           958 MiB allocation reported by mallinfo(arena+hblkhd)
         58485 MiB available memory on the node where the printing process lives
     GPU memory used/free/total (MiB): 1266 / 15014 / 16280
------------------
     ethr =  6.67E-11,  avg # of iterations =  1.0

     total cpu time spent up to now is       83.4 secs

     WARNING: integrated charge=    36.00090252, expected=    36.00000000

     total energy              =    -325.18735063 Ry
     estimated scf accuracy    <       0.00000003 Ry

     total magnetization       =     0.00 Bohr mag/cell
     absolute magnetization    =     0.00 Bohr mag/cell
[tb_dev] Currently allocated     1.77E+00 Mbytes, locked:    0 /   8
[tb_pin] Currently allocated     0.00E+00 Mbytes, locked:    0 /   0

     iteration # 40     ecut=    50.00 Ry     beta= 0.20
     Davidson diagonalization with overlap

---- Real-time Memory Report at c_bands before calling an iterative solver
          1169 MiB given to the printing process from OS
           958 MiB allocation reported by mallinfo(arena+hblkhd)
         58485 MiB available memory on the node where the printing process lives
     GPU memory used/free/total (MiB): 1266 / 15014 / 16280
------------------
     ethr =  6.67E-11,  avg # of iterations =  1.0

     total cpu time spent up to now is       85.4 secs

     WARNING: integrated charge=    36.00090940, expected=    36.00000000

     total energy              =    -325.18735063 Ry
     estimated scf accuracy    <       0.00000003 Ry

     total magnetization       =     0.00 Bohr mag/cell
     absolute magnetization    =     0.00 Bohr mag/cell
[tb_dev] Currently allocated     1.77E+00 Mbytes, locked:    0 /   8
[tb_pin] Currently allocated     0.00E+00 Mbytes, locked:    0 /   0

     iteration # 41     ecut=    50.00 Ry     beta= 0.20
     Davidson diagonalization with overlap

---- Real-time Memory Report at c_bands before calling an iterative solver
          1169 MiB given to the printing process from OS
           958 MiB allocation reported by mallinfo(arena+hblkhd)
         58485 MiB available memory on the node where the printing process lives
     GPU memory used/free/total (MiB): 1266 / 15014 / 16280
------------------
     ethr =  6.67E-11,  avg # of iterations =  1.0

     total cpu time spent up to now is       87.3 secs

     WARNING: integrated charge=    36.00089767, expected=    36.00000000

     total energy              =    -325.18735063 Ry
     estimated scf accuracy    <       0.00000003 Ry

     total magnetization       =     0.00 Bohr mag/cell
     absolute magnetization    =     0.00 Bohr mag/cell
[tb_dev] Currently allocated     1.77E+00 Mbytes, locked:    0 /   8
[tb_pin] Currently allocated     0.00E+00 Mbytes, locked:    0 /   0

     iteration # 42     ecut=    50.00 Ry     beta= 0.20
     Davidson diagonalization with overlap

---- Real-time Memory Report at c_bands before calling an iterative solver
          1169 MiB given to the printing process from OS
           958 MiB allocation reported by mallinfo(arena+hblkhd)
         58485 MiB available memory on the node where the printing process lives
     GPU memory used/free/total (MiB): 1266 / 15014 / 16280
------------------
     ethr =  6.67E-11,  avg # of iterations =  1.0

     total cpu time spent up to now is       89.3 secs

     WARNING: integrated charge=    36.00089324, expected=    36.00000000

     total energy              =    -325.18735063 Ry
     estimated scf accuracy    <       0.00000004 Ry

     total magnetization       =     0.00 Bohr mag/cell
     absolute magnetization    =     0.00 Bohr mag/cell
[tb_dev] Currently allocated     1.77E+00 Mbytes, locked:    0 /   8
[tb_pin] Currently allocated     0.00E+00 Mbytes, locked:    0 /   0

     iteration # 43     ecut=    50.00 Ry     beta= 0.20
     Davidson diagonalization with overlap

---- Real-time Memory Report at c_bands before calling an iterative solver
          1169 MiB given to the printing process from OS
           958 MiB allocation reported by mallinfo(arena+hblkhd)
         58485 MiB available memory on the node where the printing process lives
     GPU memory used/free/total (MiB): 1266 / 15014 / 16280
------------------
     ethr =  6.67E-11,  avg # of iterations =  1.0

     total cpu time spent up to now is       91.2 secs

     WARNING: integrated charge=    36.00090133, expected=    36.00000000

     total energy              =    -325.18735063 Ry
     estimated scf accuracy    <       0.00000004 Ry

     total magnetization       =     0.00 Bohr mag/cell
     absolute magnetization    =     0.00 Bohr mag/cell
[tb_dev] Currently allocated     1.77E+00 Mbytes, locked:    0 /   8
[tb_pin] Currently allocated     0.00E+00 Mbytes, locked:    0 /   0

     iteration # 44     ecut=    50.00 Ry     beta= 0.20
     Davidson diagonalization with overlap

---- Real-time Memory Report at c_bands before calling an iterative solver
          1169 MiB given to the printing process from OS
           958 MiB allocation reported by mallinfo(arena+hblkhd)
         58485 MiB available memory on the node where the printing process lives
     GPU memory used/free/total (MiB): 1266 / 15014 / 16280
------------------
     ethr =  6.67E-11,  avg # of iterations =  1.0

     total cpu time spent up to now is       93.2 secs

     WARNING: integrated charge=    36.00089794, expected=    36.00000000

     total energy              =    -325.18735063 Ry
     estimated scf accuracy    <       0.00000004 Ry

     total magnetization       =     0.00 Bohr mag/cell
     absolute magnetization    =     0.00 Bohr mag/cell
[tb_dev] Currently allocated     1.77E+00 Mbytes, locked:    0 /   8
[tb_pin] Currently allocated     0.00E+00 Mbytes, locked:    0 /   0

     iteration # 45     ecut=    50.00 Ry     beta= 0.20
     Davidson diagonalization with overlap

---- Real-time Memory Report at c_bands before calling an iterative solver
          1169 MiB given to the printing process from OS
           958 MiB allocation reported by mallinfo(arena+hblkhd)
         58485 MiB available memory on the node where the printing process lives
     GPU memory used/free/total (MiB): 1266 / 15014 / 16280
------------------
     ethr =  6.67E-11,  avg # of iterations =  1.0

     total cpu time spent up to now is       95.1 secs

     WARNING: integrated charge=    36.00089758, expected=    36.00000000

     total energy              =    -325.18735063 Ry
     estimated scf accuracy    <       0.00000004 Ry

     total magnetization       =     0.00 Bohr mag/cell
     absolute magnetization    =     0.00 Bohr mag/cell
[tb_dev] Currently allocated     1.77E+00 Mbytes, locked:    0 /   8
[tb_pin] Currently allocated     0.00E+00 Mbytes, locked:    0 /   0

     iteration # 46     ecut=    50.00 Ry     beta= 0.20
     Davidson diagonalization with overlap

---- Real-time Memory Report at c_bands before calling an iterative solver
          1169 MiB given to the printing process from OS
           958 MiB allocation reported by mallinfo(arena+hblkhd)
         58485 MiB available memory on the node where the printing process lives
     GPU memory used/free/total (MiB): 1266 / 15014 / 16280
------------------
     ethr =  6.67E-11,  avg # of iterations =  1.0

     total cpu time spent up to now is       97.1 secs

     WARNING: integrated charge=    36.00200281, expected=    36.00000000

     total energy              =    -325.18735061 Ry
     estimated scf accuracy    <       0.00000004 Ry

     total magnetization       =     0.00 Bohr mag/cell
     absolute magnetization    =     0.00 Bohr mag/cell
[tb_dev] Currently allocated     1.77E+00 Mbytes, locked:    0 /   8
[tb_pin] Currently allocated     0.00E+00 Mbytes, locked:    0 /   0

     iteration # 47     ecut=    50.00 Ry     beta= 0.20
     Davidson diagonalization with overlap

---- Real-time Memory Report at c_bands before calling an iterative solver
          1169 MiB given to the printing process from OS
           958 MiB allocation reported by mallinfo(arena+hblkhd)
         58484 MiB available memory on the node where the printing process lives
     GPU memory used/free/total (MiB): 1266 / 15014 / 16280
------------------
     ethr =  6.67E-11,  avg # of iterations =  2.1

     total cpu time spent up to now is       99.6 secs

     WARNING: integrated charge=    36.00127054, expected=    36.00000000

     total energy              =    -325.18838848 Ry
     estimated scf accuracy    <       0.00000012 Ry

     total magnetization       =    -0.00 Bohr mag/cell
     absolute magnetization    =     0.00 Bohr mag/cell
[tb_dev] Currently allocated     1.77E+00 Mbytes, locked:    0 /   8
[tb_pin] Currently allocated     0.00E+00 Mbytes, locked:    0 /   0

     iteration # 48     ecut=    50.00 Ry     beta= 0.20
     Davidson diagonalization with overlap

---- Real-time Memory Report at c_bands before calling an iterative solver
          1169 MiB given to the printing process from OS
           958 MiB allocation reported by mallinfo(arena+hblkhd)
         58481 MiB available memory on the node where the printing process lives
     GPU memory used/free/total (MiB): 1278 / 15002 / 16280
------------------
     ethr =  6.67E-11,  avg # of iterations =  2.0

     total cpu time spent up to now is      102.0 secs

     WARNING: integrated charge=    36.00117523, expected=    36.00000000

     total energy              =    -325.18838848 Ry
     estimated scf accuracy    <       0.00000005 Ry

     total magnetization       =    -0.00 Bohr mag/cell
     absolute magnetization    =     0.00 Bohr mag/cell
[tb_dev] Currently allocated     1.77E+00 Mbytes, locked:    0 /   8
[tb_pin] Currently allocated     0.00E+00 Mbytes, locked:    0 /   0

     iteration # 49     ecut=    50.00 Ry     beta= 0.20
     Davidson diagonalization with overlap

---- Real-time Memory Report at c_bands before calling an iterative solver
          1169 MiB given to the printing process from OS
           958 MiB allocation reported by mallinfo(arena+hblkhd)
         58482 MiB available memory on the node where the printing process lives
     GPU memory used/free/total (MiB): 1278 / 15002 / 16280
------------------
     ethr =  6.67E-11,  avg # of iterations =  1.0

     total cpu time spent up to now is      104.0 secs

     WARNING: integrated charge=    36.00100709, expected=    36.00000000

     total energy              =    -325.18838848 Ry
     estimated scf accuracy    <       0.00000004 Ry

     total magnetization       =    -0.00 Bohr mag/cell
     absolute magnetization    =     0.00 Bohr mag/cell
[tb_dev] Currently allocated     1.77E+00 Mbytes, locked:    0 /   8
[tb_pin] Currently allocated     0.00E+00 Mbytes, locked:    0 /   0

     iteration # 50     ecut=    50.00 Ry     beta= 0.20
     Davidson diagonalization with overlap

---- Real-time Memory Report at c_bands before calling an iterative solver
          1169 MiB given to the printing process from OS
           958 MiB allocation reported by mallinfo(arena+hblkhd)
         58481 MiB available memory on the node where the printing process lives
     GPU memory used/free/total (MiB): 1278 / 15002 / 16280
------------------
     ethr =  6.67E-11,  avg # of iterations =  1.0
     Minimization algorithm failed to find Fermi energy: reverting to bisection
     Possible cause: smearing is larger than the electronic band-gap.

     total cpu time spent up to now is      105.9 secs

     WARNING: integrated charge=    36.00095494, expected=    36.00000000

     total energy              =    -325.18838848 Ry
     estimated scf accuracy    <       0.00000003 Ry

     total magnetization       =    -0.00 Bohr mag/cell
     absolute magnetization    =     0.00 Bohr mag/cell
[tb_dev] Currently allocated     1.77E+00 Mbytes, locked:    0 /   8
[tb_pin] Currently allocated     0.00E+00 Mbytes, locked:    0 /   0

     iteration # 51     ecut=    50.00 Ry     beta= 0.20
     Davidson diagonalization with overlap

---- Real-time Memory Report at c_bands before calling an iterative solver
          1169 MiB given to the printing process from OS
           958 MiB allocation reported by mallinfo(arena+hblkhd)
         58481 MiB available memory on the node where the printing process lives
     GPU memory used/free/total (MiB): 1278 / 15002 / 16280
------------------
     ethr =  6.67E-11,  avg # of iterations =  1.0

     total cpu time spent up to now is      107.9 secs

     WARNING: integrated charge=    36.00099737, expected=    36.00000000

     total energy              =    -325.18838848 Ry
     estimated scf accuracy    <       0.00000003 Ry

     total magnetization       =    -0.00 Bohr mag/cell
     absolute magnetization    =     0.00 Bohr mag/cell
[tb_dev] Currently allocated     1.77E+00 Mbytes, locked:    0 /   8
[tb_pin] Currently allocated     0.00E+00 Mbytes, locked:    0 /   0

     iteration # 52     ecut=    50.00 Ry     beta= 0.20
     Davidson diagonalization with overlap

---- Real-time Memory Report at c_bands before calling an iterative solver
          1169 MiB given to the printing process from OS
           958 MiB allocation reported by mallinfo(arena+hblkhd)
         58481 MiB available memory on the node where the printing process lives
     GPU memory used/free/total (MiB): 1278 / 15002 / 16280
------------------
     ethr =  6.67E-11,  avg # of iterations =  1.0

     total cpu time spent up to now is      109.9 secs

     WARNING: integrated charge=    36.00096672, expected=    36.00000000

     total energy              =    -325.18838848 Ry
     estimated scf accuracy    <       0.00000003 Ry

     total magnetization       =    -0.00 Bohr mag/cell
     absolute magnetization    =     0.00 Bohr mag/cell
[tb_dev] Currently allocated     1.77E+00 Mbytes, locked:    0 /   8
[tb_pin] Currently allocated     0.00E+00 Mbytes, locked:    0 /   0

     iteration # 53     ecut=    50.00 Ry     beta= 0.20
     Davidson diagonalization with overlap

---- Real-time Memory Report at c_bands before calling an iterative solver
          1169 MiB given to the printing process from OS
           958 MiB allocation reported by mallinfo(arena+hblkhd)
         58482 MiB available memory on the node where the printing process lives
     GPU memory used/free/total (MiB): 1278 / 15002 / 16280
------------------
     ethr =  6.67E-11,  avg # of iterations =  1.0

     total cpu time spent up to now is      111.8 secs

     WARNING: integrated charge=    36.00096309, expected=    36.00000000

     total energy              =    -325.18838848 Ry
     estimated scf accuracy    <       0.00000003 Ry

     total magnetization       =    -0.00 Bohr mag/cell
     absolute magnetization    =     0.00 Bohr mag/cell
[tb_dev] Currently allocated     1.77E+00 Mbytes, locked:    0 /   8
[tb_pin] Currently allocated     0.00E+00 Mbytes, locked:    0 /   0

     iteration # 54     ecut=    50.00 Ry     beta= 0.20
     Davidson diagonalization with overlap

---- Real-time Memory Report at c_bands before calling an iterative solver
          1169 MiB given to the printing process from OS
           958 MiB allocation reported by mallinfo(arena+hblkhd)
         58482 MiB available memory on the node where the printing process lives
     GPU memory used/free/total (MiB): 1278 / 15002 / 16280
------------------
     ethr =  6.67E-11,  avg # of iterations =  1.0

     total cpu time spent up to now is      113.8 secs

     WARNING: integrated charge=    36.00096709, expected=    36.00000000

     total energy              =    -325.18838848 Ry
     estimated scf accuracy    <       0.00000003 Ry

     total magnetization       =    -0.00 Bohr mag/cell
     absolute magnetization    =     0.00 Bohr mag/cell
[tb_dev] Currently allocated     1.77E+00 Mbytes, locked:    0 /   8
[tb_pin] Currently allocated     0.00E+00 Mbytes, locked:    0 /   0

     iteration # 55     ecut=    50.00 Ry     beta= 0.20
     Davidson diagonalization with overlap

---- Real-time Memory Report at c_bands before calling an iterative solver
          1169 MiB given to the printing process from OS
           958 MiB allocation reported by mallinfo(arena+hblkhd)
         58482 MiB available memory on the node where the printing process lives
     GPU memory used/free/total (MiB): 1278 / 15002 / 16280
------------------
[...]
     estimated scf accuracy    <       0.00000003 Ry

     total magnetization       =    -0.00 Bohr mag/cell
     absolute magnetization    =     0.00 Bohr mag/cell
[tb_dev] Currently allocated     1.77E+00 Mbytes, locked:    0 /   8
[tb_pin] Currently allocated     0.00E+00 Mbytes, locked:    0 /   0

     iteration # 66     ecut=    50.00 Ry     beta= 0.20
     Davidson diagonalization with overlap

---- Real-time Memory Report at c_bands before calling an iterative solver
          1169 MiB given to the printing process from OS
           958 MiB allocation reported by mallinfo(arena+hblkhd)
         58480 MiB available memory on the node where the printing process lives
     GPU memory used/free/total (MiB): 1288 / 14992 / 16280
------------------
     ethr =  6.62E-11,  avg # of iterations =  1.0

     total cpu time spent up to now is      138.5 secs

     WARNING: integrated charge=    36.00092247, expected=    36.00000000

     total energy              =    -325.18838848 Ry
     estimated scf accuracy    <       0.00000002 Ry

     total magnetization       =     0.00 Bohr mag/cell
     absolute magnetization    =     0.00 Bohr mag/cell
[tb_dev] Currently allocated     1.77E+00 Mbytes, locked:    0 /   8
[tb_pin] Currently allocated     0.00E+00 Mbytes, locked:    0 /   0

     iteration # 67     ecut=    50.00 Ry     beta= 0.20
     Davidson diagonalization with overlap

---- Real-time Memory Report at c_bands before calling an iterative solver
          1169 MiB given to the printing process from OS
           958 MiB allocation reported by mallinfo(arena+hblkhd)
         58481 MiB available memory on the node where the printing process lives
     GPU memory used/free/total (MiB): 1288 / 14992 / 16280
------------------
     ethr =  6.62E-11,  avg # of iterations =  1.0

     total cpu time spent up to now is      140.5 secs

     WARNING: integrated charge=    36.00091565, expected=    36.00000000

     total energy              =    -325.18838848 Ry
     estimated scf accuracy    <       0.00000002 Ry

     total magnetization       =     0.00 Bohr mag/cell
     absolute magnetization    =     0.00 Bohr mag/cell
[tb_dev] Currently allocated     1.77E+00 Mbytes, locked:    0 /   8
[tb_pin] Currently allocated     0.00E+00 Mbytes, locked:    0 /   0

     iteration # 68     ecut=    50.00 Ry     beta= 0.20
     Davidson diagonalization with overlap

---- Real-time Memory Report at c_bands before calling an iterative solver
          1169 MiB given to the printing process from OS
           958 MiB allocation reported by mallinfo(arena+hblkhd)
         58480 MiB available memory on the node where the printing process lives
     GPU memory used/free/total (MiB): 1288 / 14992 / 16280
------------------
     ethr =  6.62E-11,  avg # of iterations =  1.0

     total cpu time spent up to now is      142.6 secs

     WARNING: integrated charge=    36.00090825, expected=    36.00000000

     total energy              =    -325.18735063 Ry
     estimated scf accuracy    <       0.00000003 Ry

     total magnetization       =    -0.00 Bohr mag/cell
     absolute magnetization    =     0.00 Bohr mag/cell
[tb_dev] Currently allocated     1.77E+00 Mbytes, locked:    0 /   8
[tb_pin] Currently allocated     0.00E+00 Mbytes, locked:    0 /   0

     iteration # 69     ecut=    50.00 Ry     beta= 0.20
     Davidson diagonalization with overlap

---- Real-time Memory Report at c_bands before calling an iterative solver
          1169 MiB given to the printing process from OS
           958 MiB allocation reported by mallinfo(arena+hblkhd)
         58480 MiB available memory on the node where the printing process lives
     GPU memory used/free/total (MiB): 1288 / 14992 / 16280
------------------
     ethr =  6.62E-11,  avg # of iterations =  1.0

     total cpu time spent up to now is      144.5 secs

     WARNING: integrated charge=    36.00091349, expected=    36.00000000

     total energy              =    -325.18735063 Ry
     estimated scf accuracy    <       0.00000003 Ry

     total magnetization       =    -0.00 Bohr mag/cell
     absolute magnetization    =     0.00 Bohr mag/cell
[tb_dev] Currently allocated     1.77E+00 Mbytes, locked:    0 /   8
[tb_pin] Currently allocated     0.00E+00 Mbytes, locked:    0 /   0

     iteration # 70     ecut=    50.00 Ry     beta= 0.20
     Davidson diagonalization with overlap

---- Real-time Memory Report at c_bands before calling an iterative solver
          1169 MiB given to the printing process from OS
           958 MiB allocation reported by mallinfo(arena+hblkhd)
         58479 MiB available memory on the node where the printing process lives
     GPU memory used/free/total (MiB): 1288 / 14992 / 16280
------------------
     ethr =  6.62E-11,  avg # of iterations =  1.0

     total cpu time spent up to now is      146.5 secs

     WARNING: integrated charge=    36.00092965, expected=    36.00000000

     total energy              =    -325.18735063 Ry
     estimated scf accuracy    <       0.00000003 Ry

     total magnetization       =    -0.00 Bohr mag/cell
     absolute magnetization    =     0.00 Bohr mag/cell
[tb_dev] Currently allocated     1.77E+00 Mbytes, locked:    0 /   8
[tb_pin] Currently allocated     0.00E+00 Mbytes, locked:    0 /   0

     iteration # 71     ecut=    50.00 Ry     beta= 0.20
     Davidson diagonalization with overlap

---- Real-time Memory Report at c_bands before calling an iterative solver
          1169 MiB given to the printing process from OS
           958 MiB allocation reported by mallinfo(arena+hblkhd)
         58479 MiB available memory on the node where the printing process lives
     GPU memory used/free/total (MiB): 1288 / 14992 / 16280
------------------
     ethr =  6.62E-11,  avg # of iterations =  1.0

     total cpu time spent up to now is      148.5 secs

     WARNING: integrated charge=    36.00095938, expected=    36.00000000

     total energy              =    -325.18838848 Ry
     estimated scf accuracy    <       0.00000002 Ry

     total magnetization       =     0.00 Bohr mag/cell
     absolute magnetization    =     0.00 Bohr mag/cell
[tb_dev] Currently allocated     1.77E+00 Mbytes, locked:    0 /   8
[tb_pin] Currently allocated     0.00E+00 Mbytes, locked:    0 /   0

     iteration # 72     ecut=    50.00 Ry     beta= 0.20
     Davidson diagonalization with overlap

---- Real-time Memory Report at c_bands before calling an iterative solver
          1169 MiB given to the printing process from OS
           958 MiB allocation reported by mallinfo(arena+hblkhd)
         58480 MiB available memory on the node where the printing process lives
     GPU memory used/free/total (MiB): 1288 / 14992 / 16280
------------------
     ethr =  6.62E-11,  avg # of iterations =  1.0

     total cpu time spent up to now is      150.5 secs

     WARNING: integrated charge=    36.00097683, expected=    36.00000000

     total energy              =    -325.18735063 Ry
     estimated scf accuracy    <       0.00000003 Ry

     total magnetization       =     0.00 Bohr mag/cell
     absolute magnetization    =     0.00 Bohr mag/cell
[tb_dev] Currently allocated     1.77E+00 Mbytes, locked:    0 /   8
[tb_pin] Currently allocated     0.00E+00 Mbytes, locked:    0 /   0

     iteration # 73     ecut=    50.00 Ry     beta= 0.20
     Davidson diagonalization with overlap

---- Real-time Memory Report at c_bands before calling an iterative solver
          1169 MiB given to the printing process from OS
           958 MiB allocation reported by mallinfo(arena+hblkhd)
         58479 MiB available memory on the node where the printing process lives
     GPU memory used/free/total (MiB): 1288 / 14992 / 16280
------------------
     ethr =  6.62E-11,  avg # of iterations =  1.1

     total cpu time spent up to now is      152.5 secs

     WARNING: integrated charge=    36.00097294, expected=    36.00000000

     total energy              =    -325.18838848 Ry
     estimated scf accuracy    <       0.00000003 Ry

     total magnetization       =    -0.00 Bohr mag/cell
     absolute magnetization    =     0.00 Bohr mag/cell
[tb_dev] Currently allocated     1.77E+00 Mbytes, locked:    0 /   8
[tb_pin] Currently allocated     0.00E+00 Mbytes, locked:    0 /   0

     iteration # 74     ecut=    50.00 Ry     beta= 0.20
     Davidson diagonalization with overlap

---- Real-time Memory Report at c_bands before calling an iterative solver
          1169 MiB given to the printing process from OS
           958 MiB allocation reported by mallinfo(arena+hblkhd)
         58479 MiB available memory on the node where the printing process lives
     GPU memory used/free/total (MiB): 1288 / 14992 / 16280
------------------
     ethr =  6.62E-11,  avg # of iterations =  1.0

     total cpu time spent up to now is      154.5 secs

     WARNING: integrated charge=    36.00095187, expected=    36.00000000

     total energy              =    -325.18838848 Ry
     estimated scf accuracy    <       0.00000003 Ry

     total magnetization       =    -0.00 Bohr mag/cell
     absolute magnetization    =     0.00 Bohr mag/cell
[tb_dev] Currently allocated     1.77E+00 Mbytes, locked:    0 /   8
[tb_pin] Currently allocated     0.00E+00 Mbytes, locked:    0 /   0

     iteration # 75     ecut=    50.00 Ry     beta= 0.20
     Davidson diagonalization with overlap

---- Real-time Memory Report at c_bands before calling an iterative solver
          1169 MiB given to the printing process from OS
           958 MiB allocation reported by mallinfo(arena+hblkhd)
         58480 MiB available memory on the node where the printing process lives
     GPU memory used/free/total (MiB): 1288 / 14992 / 16280
------------------
     ethr =  6.62E-11,  avg # of iterations =  1.0

     total cpu time spent up to now is      156.5 secs

     WARNING: integrated charge=    36.00094743, expected=    36.00000000

     total energy              =    -325.18838848 Ry
     estimated scf accuracy    <       0.00000003 Ry

     total magnetization       =     0.00 Bohr mag/cell
     absolute magnetization    =     0.00 Bohr mag/cell
[tb_dev] Currently allocated     1.77E+00 Mbytes, locked:    0 /   8
[tb_pin] Currently allocated     0.00E+00 Mbytes, locked:    0 /   0

     iteration # 76     ecut=    50.00 Ry     beta= 0.20
     Davidson diagonalization with overlap

---- Real-time Memory Report at c_bands before calling an iterative solver
          1169 MiB given to the printing process from OS
           958 MiB allocation reported by mallinfo(arena+hblkhd)
         58480 MiB available memory on the node where the printing process lives
     GPU memory used/free/total (MiB): 1288 / 14992 / 16280
------------------
     ethr =  6.62E-11,  avg # of iterations =  1.0

     total cpu time spent up to now is      158.5 secs

     WARNING: integrated charge=    36.00094905, expected=    36.00000000

     total energy              =    -325.18838848 Ry
     estimated scf accuracy    <       0.00000003 Ry

     total magnetization       =     0.00 Bohr mag/cell
     absolute magnetization    =     0.00 Bohr mag/cell
[tb_dev] Currently allocated     1.77E+00 Mbytes, locked:    0 /   8
[tb_pin] Currently allocated     0.00E+00 Mbytes, locked:    0 /   0

     iteration # 77     ecut=    50.00 Ry     beta= 0.20
     Davidson diagonalization with overlap

---- Real-time Memory Report at c_bands before calling an iterative solver
          1169 MiB given to the printing process from OS
           958 MiB allocation reported by mallinfo(arena+hblkhd)
         58478 MiB available memory on the node where the printing process lives
     GPU memory used/free/total (MiB): 1288 / 14992 / 16280
------------------
     ethr =  6.62E-11,  avg # of iterations =  1.0

     total cpu time spent up to now is      160.5 secs

     WARNING: integrated charge=    36.00095640, expected=    36.00000000

     total energy              =    -325.18838848 Ry
     estimated scf accuracy    <       0.00000003 Ry

     total magnetization       =     0.00 Bohr mag/cell
     absolute magnetization    =     0.00 Bohr mag/cell
[tb_dev] Currently allocated     1.77E+00 Mbytes, locked:    0 /   8
[tb_pin] Currently allocated     0.00E+00 Mbytes, locked:    0 /   0

     iteration # 78     ecut=    50.00 Ry     beta= 0.20
     Davidson diagonalization with overlap

---- Real-time Memory Report at c_bands before calling an iterative solver
          1169 MiB given to the printing process from OS
           958 MiB allocation reported by mallinfo(arena+hblkhd)
         58478 MiB available memory on the node where the printing process lives
     GPU memory used/free/total (MiB): 1288 / 14992 / 16280
------------------
     ethr =  6.62E-11,  avg # of iterations =  1.0

     total cpu time spent up to now is      162.5 secs

     WARNING: integrated charge=    36.00096037, expected=    36.00000000

     total energy              =    -325.18838848 Ry
     estimated scf accuracy    <       0.00000003 Ry

     total magnetization       =     0.00 Bohr mag/cell
     absolute magnetization    =     0.00 Bohr mag/cell
[tb_dev] Currently allocated     1.77E+00 Mbytes, locked:    0 /   8
[tb_pin] Currently allocated     0.00E+00 Mbytes, locked:    0 /   0

     iteration # 79     ecut=    50.00 Ry     beta= 0.20
     Davidson diagonalization with overlap

---- Real-time Memory Report at c_bands before calling an iterative solver
          1169 MiB given to the printing process from OS
           958 MiB allocation reported by mallinfo(arena+hblkhd)
         58479 MiB available memory on the node where the printing process lives
     GPU memory used/free/total (MiB): 1288 / 14992 / 16280
------------------
     ethr =  6.62E-11,  avg # of iterations =  1.0
     Minimization algorithm failed to find Fermi energy: reverting to bisection
     Possible cause: smearing is larger than the electronic band-gap.

     total cpu time spent up to now is      164.6 secs

     WARNING: integrated charge=    36.00096558, expected=    36.00000000

     total energy              =    -325.18838848 Ry
     estimated scf accuracy    <       0.00000003 Ry

     total magnetization       =    -0.00 Bohr mag/cell
     absolute magnetization    =     0.00 Bohr mag/cell
[tb_dev] Currently allocated     1.77E+00 Mbytes, locked:    0 /   8
[tb_pin] Currently allocated     0.00E+00 Mbytes, locked:    0 /   0

     iteration # 80     ecut=    50.00 Ry     beta= 0.20
     Davidson diagonalization with overlap

---- Real-time Memory Report at c_bands before calling an iterative solver
          1169 MiB given to the printing process from OS
           958 MiB allocation reported by mallinfo(arena+hblkhd)
         58478 MiB available memory on the node where the printing process lives
     GPU memory used/free/total (MiB): 1288 / 14992 / 16280
------------------
     ethr =  6.62E-11,  avg # of iterations =  1.0

     total cpu time spent up to now is      166.6 secs

     WARNING: integrated charge=    36.00096508, expected=    36.00000000

     total energy              =    -325.18838848 Ry
     estimated scf accuracy    <       0.00000003 Ry

     total magnetization       =    -0.00 Bohr mag/cell
     absolute magnetization    =     0.00 Bohr mag/cell

     End of self-consistent calculation

     convergence NOT achieved after  80 iterations: stopping

     Writing config to output data dir ./out/aiida.save/
 
     init_run     :      9.50s CPU      1.84s WALL (       1 calls)
     electrons    :    336.10s CPU    164.20s WALL (       1 calls)

     Called by init_run:
     wfcinit      :      0.14s CPU      0.14s WALL (       1 calls)
                                        0.14s GPU  (       1 calls)
     potinit      :      0.27s CPU      0.09s WALL (       1 calls)
     hinit0       :      6.88s CPU      1.04s WALL (       1 calls)

     Called by electrons:
     c_bands      :    247.26s CPU    127.53s WALL (      81 calls)
     sum_band     :     26.63s CPU     30.82s WALL (      81 calls)
     v_of_rho     :     17.92s CPU      1.62s WALL (      81 calls)
     v_h          :      2.51s CPU      0.22s WALL (      81 calls)
     v_xc         :     15.40s CPU      1.41s WALL (      81 calls)
     newd         :     21.17s CPU      2.19s WALL (      81 calls)
                                        2.19s GPU  (      81 calls)
     mix_rho      :     18.10s CPU      1.78s WALL (      81 calls)

     Called by c_bands:
     init_us_2    :     24.28s CPU     17.56s WALL (   24624 calls)
     init_us_2:gp :     23.63s CPU     17.14s WALL (   24624 calls)
     cegterg      :    193.21s CPU     98.67s WALL (   12312 calls)

     Called by sum_band:
     sum_band:wei :      0.67s CPU      0.68s WALL (      81 calls)
                                        0.68s GPU  (      81 calls)
     sum_band:loo :     23.15s CPU     27.20s WALL (      81 calls)
                                       27.20s GPU  (      81 calls)
     sum_band:buf :      4.93s CPU      5.72s WALL (   12312 calls)
                                        5.65s GPU  (   12312 calls)
     sum_band:ini :      7.07s CPU      8.50s WALL (   12312 calls)
                                        8.43s GPU  (   12312 calls)
     sum_band:cal :      0.37s CPU      0.97s WALL (   12312 calls)
                                        0.84s GPU  (   12312 calls)
     sum_band:bec :      1.57s CPU      2.00s WALL (   12312 calls)
                                        1.92s GPU  (   12312 calls)
     addusdens    :      1.64s CPU      1.73s WALL (      81 calls)
                                        1.73s GPU  (      81 calls)
     addusd:skk   :      0.01s CPU      0.01s WALL (     162 calls)
                                        0.01s GPU  (     162 calls)

     Called by *egterg:
     cdiaghg      :     67.24s CPU     35.69s WALL (   25409 calls)
                                       35.52s GPU  (   25409 calls)
     cegterg:over :      3.78s CPU      1.94s WALL (   13401 calls)
     cegterg:upda :      8.04s CPU      3.95s WALL (   13401 calls)
     cegterg:last :      1.41s CPU      0.73s WALL (   13382 calls)
     h_psi        :     90.26s CPU     45.65s WALL (   25713 calls)
                                       45.52s GPU  (   25713 calls)
     s_psi        :      4.36s CPU      3.33s WALL (   25713 calls)
                                        3.08s GPU  (   25713 calls)
     g_psi        :      0.20s CPU      0.36s WALL (   13401 calls)
                                        0.27s GPU  (   13401 calls)

     Called by h_psi:
     h_psi:calbec :      1.80s CPU      2.15s WALL (   25713 calls)
                                        1.99s GPU  (   25713 calls)
     vloc_psi     :     75.08s CPU     38.21s WALL (   25713 calls)
                                       38.05s GPU  (   25713 calls)
     add_vuspsi   :      5.48s CPU      3.59s WALL (   25713 calls)
                                        3.44s GPU  (   25713 calls)

     General routines
     calbec       :      1.65s CPU      1.02s WALL (   38025 calls)
     fft          :      2.44s CPU      0.36s WALL (    2025 calls)
                                        0.29s GPU  (    1863 calls)
     ffts         :      0.03s CPU      0.02s WALL (     324 calls)
                                        0.01s GPU  (     162 calls)
     fftw         :      4.61s CPU     26.18s WALL (  125498 calls)
                                       25.47s GPU  (  125498 calls)
     interpolate  :      2.24s CPU      0.20s WALL (     162 calls)
     davcio       :      1.16s CPU      0.44s WALL (     322 calls)
 
     Parallel routines
 
     PWSCF        :   5m49.30s CPU   2m46.89s WALL

 
   This run was terminated on:  17:50:44  23Oct2023            

=------------------------------------------------------------------------------=
   JOB DONE.
=------------------------------------------------------------------------------=
