
     Program PWSCF v.7.2 starts on 28Nov2023 at 21: 5:40 
        Git branch: develop
        Last git commit: 9055681be6fc8200e6fffe76ed5fda34c2696339
        Last git commit date: Wed Nov 8 16:29:39 2023 +0000
        Last git commit subject: Merge branch 'calbec_fix' into 'develop'

     This program is part of the open-source Quantum ESPRESSO suite
     for quantum simulation of materials; please cite
         "P. Giannozzi et al., J. Phys.:Condens. Matter 21 395502 (2009);
         "P. Giannozzi et al., J. Phys.:Condens. Matter 29 465901 (2017);
         "P. Giannozzi et al., J. Chem. Phys. 152 154105 (2020);
          URL http://www.quantum-espresso.org", 
     in publications or presentations arising from this work. More details at
     http://www.quantum-espresso.org/quote

     Parallel version (MPI), running on    56 processors

     MPI processes distributed on     1 nodes
     488904 MiB available memory on the printing compute node when the environment starts

     Reading input from aiida.in

     Current dimensions of program PWSCF are:
     Max number of different atomic species (ntypx) = 10
     Max number of k-points (npk) =  40000
     Max angular momentum in pseudopotentials (lmaxx) =  4
     file Ba.pbesol-spn-kjpaw_psl.1.0.0.UPF: wavefunction(s)  5S 6S renormalized
     Message from routine setup:
     using ibrav=0 with symmetry is DISCOURAGED, use correct ibrav instead

     K-points division:     npool     =       8
     R & G space division:  proc/nbgrp/npool/nimage =       7
     Subspace diagonalization in iterative solution of the eigenvalue problem:
     a serial algorithm will be used


     Parallelization info
     --------------------
     sticks:   dense  smooth     PW     G-vecs:    dense   smooth      PW
     Min         609     304     93                18790     6641    1141
     Max         610     305     94                18791     6643    1144
     Sum        4267    2129    657               131535    46493    8001

     Using Slab Decomposition



     bravais-lattice index     =            0
     lattice parameter (alat)  =      14.9277  a.u.
     unit-cell volume          =     741.1755 (a.u.)^3
     number of atoms/cell      =            4
     number of atomic types    =            3
     number of electrons       =        32.00
     number of Kohn-Sham states=           20
     kinetic-energy cutoff     =      60.0000  Ry
     charge density cutoff     =     480.0000  Ry
     scf convergence threshold =      8.0E-10
     mixing beta               =       0.4000
     number of iterations used =            8  plain     mixing
     Exchange-correlation= PBESOL
                           (   1   4  10   8   0   0   0)

     celldm(1)=  14.927690  celldm(2)=   0.000000  celldm(3)=   0.000000
     celldm(4)=   0.000000  celldm(5)=   0.000000  celldm(6)=   0.000000

     crystal axes: (cart. coord. in units of alat)
               a(1) = (   0.259659   0.149914   0.953993 )  
               a(2) = (  -0.259659   0.149914   0.953993 )  
               a(3) = (   0.000000  -0.299829   0.953993 )  

     reciprocal axes: (cart. coord. in units 2 pi/alat)
               b(1) = (  1.925601  1.111746  0.349409 )  
               b(2) = ( -1.925601  1.111746  0.349409 )  
               b(3) = ( -0.000000 -2.223493  0.349409 )  


     PseudoPot. # 1 for Ba read from file:
     ./pseudo/Ba.pbesol-spn-kjpaw_psl.1.0.0.UPF
     MD5 check sum: f28c4a63d325c1a0d00fd3a4f19b8d73
     Pseudo is Projector augmented-wave + core cor, Zval = 10.0
     Generated using "atomic" code by A. Dal Corso  v.6.0 svn rev. 13079
     Shape of augmentation charge: PSQ
     Using radial grid of 1251 points,  7 beta functions with: 
                l(1) =   0
                l(2) =   0
                l(3) =   0
                l(4) =   1
                l(5) =   1
                l(6) =   2
                l(7) =   2
     Q(r) pseudized with 0 coefficients 


     PseudoPot. # 2 for Cl read from file:
     ./pseudo/cl_pbesol_v1.4.uspp.F.UPF
     MD5 check sum: ed6bbcf06f19043c0df9f6394706ff8f
     Pseudo is Ultrasoft + core correction, Zval =  7.0
     Generated by new atomic code, or converted to UPF format
     Using radial grid of  909 points,  6 beta functions with: 
                l(1) =   0
                l(2) =   0
                l(3) =   1
                l(4) =   1
                l(5) =   2
                l(6) =   2
     Q(r) pseudized with  8 coefficients,  rinner =    1.300   1.300   1.300
                                                       1.300   1.300

     PseudoPot. # 3 for N  read from file:
     ./pseudo/N.pbesol-theos.UPF
     MD5 check sum: 1b64827339d390a5a22afef3ff345c9d
     Pseudo is Ultrasoft + core correction, Zval =  5.0
     Generated using "atomic" code by A. Dal Corso  v.5.1
     Using radial grid of 1085 points,  4 beta functions with: 
                l(1) =   0
                l(2) =   0
                l(3) =   1
                l(4) =   1
     Q(r) pseudized with 0 coefficients 


     atomic species   valence    mass     pseudopotential
     Ba               10.00   137.32700     Ba( 1.00)
     Cl                7.00    35.45300     Cl( 1.00)
     N                 5.00    14.00670     N ( 1.00)

     Starting magnetic structure 
     atomic species   magnetization
     Ba              0.100
     Cl              0.100
     N               0.100

     12 Sym. Ops., with inversion, found


                                    s                        frac. trans.

      isym =  1     identity                                     

 cryst.   s( 1) = (     1          0          0      )
                  (     0          1          0      )
                  (     0          0          1      )

 cart.    s( 1) = (  1.0000000 -0.0000000  0.0000000 )
                  (  0.0000000  1.0000000 -0.0000000 )
                  (  0.0000000  0.0000000  1.0000000 )


      isym =  2     180 deg rotation - cart. axis [1,0,0]        

 cryst.   s( 2) = (     0         -1          0      )
                  (    -1          0          0      )
                  (     0          0         -1      )

 cart.    s( 2) = (  1.0000000  0.0000000 -0.0000000 )
                  ( -0.0000000 -1.0000000  0.0000000 )
                  ( -0.0000000 -0.0000000 -1.0000000 )


      isym =  3     120 deg rotation - cryst. axis [0,0,1]       

 cryst.   s( 3) = (     0          1          0      )
                  (     0          0          1      )
                  (     1          0          0      )

 cart.    s( 3) = ( -0.5000000 -0.8660254 -0.0000000 )
                  (  0.8660254 -0.5000000 -0.0000000 )
                  (  0.0000000 -0.0000000  1.0000000 )


      isym =  4     120 deg rotation - cryst. axis [0,0,-1]      

 cryst.   s( 4) = (     0          0          1      )
                  (     1          0          0      )
                  (     0          1          0      )

 cart.    s( 4) = ( -0.5000000  0.8660254  0.0000000 )
                  ( -0.8660254 -0.5000000 -0.0000000 )
                  (  0.0000000  0.0000000  1.0000000 )


      isym =  5     180 deg rotation - cryst. axis [0,1,0]       

 cryst.   s( 5) = (    -1          0          0      )
                  (     0          0         -1      )
                  (     0         -1          0      )

 cart.    s( 5) = ( -0.5000000 -0.8660254 -0.0000000 )
                  ( -0.8660254  0.5000000  0.0000000 )
                  ( -0.0000000 -0.0000000 -1.0000000 )


      isym =  6     180 deg rotation - cryst. axis [1,1,0]       

 cryst.   s( 6) = (     0          0         -1      )
                  (     0         -1          0      )
                  (    -1          0          0      )

 cart.    s( 6) = ( -0.5000000  0.8660254  0.0000000 )
                  (  0.8660254  0.5000000  0.0000000 )
                  ( -0.0000000  0.0000000 -1.0000000 )


      isym =  7     inversion                                    

 cryst.   s( 7) = (    -1          0          0      )
                  (     0         -1          0      )
                  (     0          0         -1      )

 cart.    s( 7) = ( -1.0000000  0.0000000 -0.0000000 )
                  ( -0.0000000 -1.0000000  0.0000000 )
                  ( -0.0000000 -0.0000000 -1.0000000 )


      isym =  8     inv. 180 deg rotation - cart. axis [1,0,0]   

 cryst.   s( 8) = (     0          1          0      )
                  (     1          0          0      )
                  (     0          0          1      )

 cart.    s( 8) = ( -1.0000000 -0.0000000  0.0000000 )
                  (  0.0000000  1.0000000 -0.0000000 )
                  (  0.0000000  0.0000000  1.0000000 )


      isym =  9     inv. 120 deg rotation - cryst. axis [0,0,1]  

 cryst.   s( 9) = (     0         -1          0      )
                  (     0          0         -1      )
                  (    -1          0          0      )

 cart.    s( 9) = (  0.5000000  0.8660254  0.0000000 )
                  ( -0.8660254  0.5000000  0.0000000 )
                  ( -0.0000000  0.0000000 -1.0000000 )


      isym = 10     inv. 120 deg rotation - cryst. axis [0,0,-1] 

 cryst.   s(10) = (     0          0         -1      )
                  (    -1          0          0      )
                  (     0         -1          0      )

 cart.    s(10) = (  0.5000000 -0.8660254 -0.0000000 )
                  (  0.8660254  0.5000000  0.0000000 )
                  ( -0.0000000 -0.0000000 -1.0000000 )


      isym = 11     inv. 180 deg rotation - cryst. axis [0,1,0]  

 cryst.   s(11) = (     1          0          0      )
                  (     0          0          1      )
                  (     0          1          0      )

 cart.    s(11) = (  0.5000000  0.8660254  0.0000000 )
                  (  0.8660254 -0.5000000 -0.0000000 )
                  (  0.0000000  0.0000000  1.0000000 )


      isym = 12     inv. 180 deg rotation - cryst. axis [1,1,0]  

 cryst.   s(12) = (     0          0          1      )
                  (     0          1          0      )
                  (     1          0          0      )

 cart.    s(12) = (  0.5000000 -0.8660254 -0.0000000 )
                  ( -0.8660254 -0.5000000 -0.0000000 )
                  (  0.0000000 -0.0000000  1.0000000 )


   Cartesian axes

     site n.     atom                  positions (alat units)
         1        Ba     tau(   1) = (  -0.0000000  -0.0000000   2.1985725  )
         2        Ba     tau(   2) = (  -0.0000000   0.2998286   2.5713930  )
         3        N      tau(   3) = (   0.2596592   0.1499143   2.3849827  )
         4        Cl     tau(   4) = (   0.0000000   0.0000000   0.0000000  )

   Crystallographic axes

     site n.     atom                  positions (cryst. coord.)
         1        Ba     tau(   1) = (  0.7682000  0.7682000  0.7682000  )
         2        Ba     tau(   2) = (  1.2318000  1.2318000  0.2318000  )
         3        N      tau(   3) = (  1.5000000  0.5000000  0.5000000  )
         4        Cl     tau(   4) = (  0.0000000  0.0000000  0.0000000  )

     number of k points=   189  Marzari-Vanderbilt smearing, width (Ry)=  0.0200
                       cart. coord. in units 2pi/alat
        k(    1) = (   0.0000000   0.0000000   0.0000000), wk =   0.0005787
        k(    2) = (  -0.0000000  -0.1852911   0.0291174), wk =   0.0034722
        k(    3) = (  -0.0000000  -0.3705821   0.0582348), wk =   0.0034722
        k(    4) = (  -0.0000000  -0.5558732   0.0873521), wk =   0.0034722
        k(    5) = (  -0.0000000  -0.7411642   0.1164695), wk =   0.0034722
        k(    6) = (  -0.0000000  -0.9264553   0.1455869), wk =   0.0034722
        k(    7) = (   0.0000000   1.1117463  -0.1747043), wk =   0.0017361
        k(    8) = (  -0.1604668  -0.0926455   0.0582348), wk =   0.0034722
        k(    9) = (  -0.1604668  -0.2779366   0.0873521), wk =   0.0069444
        k(   10) = (  -0.1604668  -0.4632276   0.1164695), wk =   0.0069444
        k(   11) = (  -0.1604668  -0.6485187   0.1455869), wk =   0.0069444
        k(   12) = (  -0.1604668  -0.8338097   0.1747043), wk =   0.0069444
        k(   13) = (  -0.1604668   1.2043918  -0.1455869), wk =   0.0069444
        k(   14) = (  -0.1604668   1.0191008  -0.1164695), wk =   0.0069444
        k(   15) = (  -0.1604668   0.8338097  -0.0873521), wk =   0.0069444
        k(   16) = (  -0.1604668   0.6485187  -0.0582348), wk =   0.0069444
        k(   17) = (  -0.1604668   0.4632276  -0.0291174), wk =   0.0069444
        k(   18) = (  -0.1604668   0.2779366   0.0000000), wk =   0.0034722
        k(   19) = (  -0.3209335  -0.1852911   0.1164695), wk =   0.0034722
        k(   20) = (  -0.3209335  -0.3705821   0.1455869), wk =   0.0069444
        k(   21) = (  -0.3209335  -0.5558732   0.1747043), wk =   0.0069444
        k(   22) = (  -0.3209335  -0.7411642   0.2038216), wk =   0.0069444
        k(   23) = (  -0.3209335   1.2970374  -0.1164695), wk =   0.0069444
        k(   24) = (  -0.3209335   1.1117463  -0.0873521), wk =   0.0069444
        k(   25) = (  -0.3209335   0.9264553  -0.0582348), wk =   0.0069444
        k(   26) = (  -0.3209335   0.7411642  -0.0291174), wk =   0.0069444
        k(   27) = (  -0.3209335   0.5558732   0.0000000), wk =   0.0034722
        k(   28) = (  -0.4814003  -0.2779366   0.1747043), wk =   0.0034722
        k(   29) = (  -0.4814003  -0.4632276   0.2038216), wk =   0.0069444
        k(   30) = (  -0.4814003  -0.6485187   0.2329390), wk =   0.0069444
        k(   31) = (  -0.4814003   1.3896829  -0.0873521), wk =   0.0069444
        k(   32) = (  -0.4814003   1.2043918  -0.0582348), wk =   0.0069444
        k(   33) = (  -0.4814003   1.0191008  -0.0291174), wk =   0.0069444
        k(   34) = (  -0.4814003   0.8338097   0.0000000), wk =   0.0034722
        k(   35) = (  -0.6418670  -0.3705821   0.2329390), wk =   0.0034722
        k(   36) = (  -0.6418670  -0.5558732   0.2620564), wk =   0.0069444
        k(   37) = (  -0.6418670   1.4823284  -0.0582348), wk =   0.0069444
        k(   38) = (  -0.6418670   1.2970374  -0.0291174), wk =   0.0069444
        k(   39) = (  -0.6418670   1.1117463   0.0000000), wk =   0.0034722
        k(   40) = (  -0.8023338  -0.4632276   0.2911738), wk =   0.0034722
        k(   41) = (  -0.8023338   1.5749739  -0.0291174), wk =   0.0069444
        k(   42) = (  -0.8023338   1.3896829   0.0000000), wk =   0.0034722
        k(   43) = (   0.9628005   0.5558732  -0.3494085), wk =   0.0017361
        k(   44) = (   0.0000000   0.0000000   0.0873521), wk =   0.0011574
        k(   45) = (   0.0000000  -0.1852911   0.1164695), wk =   0.0034722
        k(   46) = (   0.0000000  -0.3705821   0.1455869), wk =   0.0034722
        k(   47) = (   0.0000000  -0.5558732   0.1747043), wk =   0.0034722
        k(   48) = (  -0.0000000  -0.7411642   0.2038216), wk =   0.0034722
        k(   49) = (   0.0000000   1.2970374  -0.1164695), wk =   0.0034722
        k(   50) = (   0.0000000   1.1117463  -0.0873521), wk =   0.0034722
        k(   51) = (   0.0000000   0.9264553  -0.0582348), wk =   0.0034722
        k(   52) = (   0.0000000   0.7411642  -0.0291174), wk =   0.0034722
        k(   53) = (   0.0000000   0.5558732   0.0000000), wk =   0.0034722
        k(   54) = (   0.0000000   0.3705821   0.0291174), wk =   0.0034722
        k(   55) = (  -0.1604668  -0.0926455   0.1455869), wk =   0.0034722
        k(   56) = (  -0.1604668  -0.2779366   0.1747043), wk =   0.0069444
        k(   57) = (  -0.1604668  -0.4632276   0.2038216), wk =   0.0069444
        k(   58) = (  -0.1604668  -0.6485187   0.2329390), wk =   0.0069444
        k(   59) = (  -0.1604668   1.3896829  -0.0873521), wk =   0.0069444
        k(   60) = (  -0.1604668   1.2043918  -0.0582348), wk =   0.0069444
        k(   61) = (  -0.1604668   1.0191008  -0.0291174), wk =   0.0069444
        k(   62) = (  -0.1604668   0.8338097   0.0000000), wk =   0.0069444
        k(   63) = (  -0.1604668   0.6485187   0.0291174), wk =   0.0069444
        k(   64) = (  -0.1604668   0.4632276   0.0582348), wk =   0.0069444
        k(   65) = (  -0.3209335  -0.1852911   0.2038216), wk =   0.0034722
        k(   66) = (  -0.3209335  -0.3705821   0.2329390), wk =   0.0069444
        k(   67) = (  -0.3209335  -0.5558732   0.2620564), wk =   0.0069444
        k(   68) = (  -0.3209335   1.4823284  -0.0582348), wk =   0.0069444
        k(   69) = (  -0.3209335   1.2970374  -0.0291174), wk =   0.0069444
        k(   70) = (  -0.3209335   1.1117463   0.0000000), wk =   0.0069444
        k(   71) = (  -0.3209335   0.9264553   0.0291174), wk =   0.0069444
        k(   72) = (  -0.3209335   0.7411642   0.0582348), wk =   0.0069444
        k(   73) = (  -0.3209335   0.5558732   0.0873521), wk =   0.0069444
        k(   74) = (  -0.4814003  -0.2779366   0.2620564), wk =   0.0034722
        k(   75) = (  -0.4814003  -0.4632276   0.2911738), wk =   0.0069444
        k(   76) = (  -0.4814003   1.5749739  -0.0291174), wk =   0.0069444
        k(   77) = (  -0.4814003   1.3896829   0.0000000), wk =   0.0069444
        k(   78) = (  -0.4814003   1.2043918   0.0291174), wk =   0.0069444
        k(   79) = (  -0.4814003   1.0191008   0.0582348), wk =   0.0069444
        k(   80) = (  -0.4814003   0.8338097   0.0873521), wk =   0.0069444
        k(   81) = (  -0.4814003   0.6485187   0.1164695), wk =   0.0069444
        k(   82) = (  -0.6418670  -0.3705821   0.3202912), wk =   0.0034722
        k(   83) = (  -0.6418670   1.6676195   0.0000000), wk =   0.0069444
        k(   84) = (  -0.6418670   1.4823284   0.0291174), wk =   0.0069444
        k(   85) = (  -0.6418670   1.2970374   0.0582348), wk =   0.0069444
        k(   86) = (  -0.6418670   1.1117463   0.0873521), wk =   0.0069444
        k(   87) = (  -0.6418670   0.9264553   0.1164695), wk =   0.0069444
        k(   88) = (  -0.6418670   0.7411642   0.1455869), wk =   0.0069444
        k(   89) = (   1.1232673   0.6485187  -0.3202912), wk =   0.0034722
        k(   90) = (   1.1232673   0.4632276  -0.2911738), wk =   0.0069444
        k(   91) = (   1.1232673   0.2779366  -0.2620564), wk =   0.0069444
        k(   92) = (   1.1232673   0.0926455  -0.2329390), wk =   0.0069444
        k(   93) = (   1.1232673  -0.0926455  -0.2038216), wk =   0.0069444
        k(   94) = (   1.1232673  -0.2779366  -0.1747043), wk =   0.0034722
        k(   95) = (   0.9628005   0.5558732  -0.2620564), wk =   0.0034722
        k(   96) = (   0.9628005   0.3705821  -0.2329390), wk =   0.0069444
        k(   97) = (   0.9628005   0.1852911  -0.2038216), wk =   0.0069444
        k(   98) = (   0.9628005  -0.0000000  -0.1747043), wk =   0.0069444
        k(   99) = (   0.8023338   0.4632276  -0.2038216), wk =   0.0034722
        k(  100) = (   0.8023338   0.2779366  -0.1747043), wk =   0.0069444
        k(  101) = (   0.8023338   0.0926455  -0.1455869), wk =   0.0069444
        k(  102) = (   0.6418670   0.3705821  -0.1455869), wk =   0.0034722
        k(  103) = (   0.6418670   0.1852911  -0.1164695), wk =   0.0069444
        k(  104) = (   0.4814003   0.2779366  -0.0873521), wk =   0.0034722
        k(  105) = (   0.0000000   0.0000000   0.1747043), wk =   0.0011574
        k(  106) = (   0.0000000  -0.1852911   0.2038216), wk =   0.0034722
        k(  107) = (   0.0000000  -0.3705821   0.2329390), wk =   0.0034722
        k(  108) = (   0.0000000  -0.5558732   0.2620564), wk =   0.0034722
        k(  109) = (   0.0000000   1.4823284  -0.0582348), wk =   0.0034722
        k(  110) = (   0.0000000   1.2970374  -0.0291174), wk =   0.0034722
        k(  111) = (   0.0000000   1.1117463   0.0000000), wk =   0.0034722
        k(  112) = (   0.0000000   0.9264553   0.0291174), wk =   0.0034722
        k(  113) = (   0.0000000   0.7411642   0.0582348), wk =   0.0034722
        k(  114) = (  -0.1604668  -0.0926455   0.2329390), wk =   0.0034722
        k(  115) = (  -0.1604668  -0.2779366   0.2620564), wk =   0.0069444
        k(  116) = (  -0.1604668  -0.4632276   0.2911738), wk =   0.0069444
        k(  117) = (  -0.1604668   1.5749739  -0.0291174), wk =   0.0069444
        k(  118) = (  -0.1604668   1.3896829   0.0000000), wk =   0.0069444
        k(  119) = (  -0.1604668   1.2043918   0.0291174), wk =   0.0069444
        k(  120) = (  -0.1604668   1.0191008   0.0582348), wk =   0.0069444
        k(  121) = (  -0.1604668   0.8338097   0.0873521), wk =   0.0069444
        k(  122) = (  -0.3209335  -0.1852911   0.2911738), wk =   0.0034722
        k(  123) = (  -0.3209335  -0.3705821   0.3202912), wk =   0.0069444
        k(  124) = (  -0.3209335   1.6676195   0.0000000), wk =   0.0069444
        k(  125) = (  -0.3209335   1.4823284   0.0291174), wk =   0.0069444
        k(  126) = (  -0.3209335   1.2970374   0.0582348), wk =   0.0069444
        k(  127) = (  -0.3209335   1.1117463   0.0873521), wk =   0.0069444
        k(  128) = (  -0.3209335   0.9264553   0.1164695), wk =   0.0069444
        k(  129) = (  -0.4814003  -0.2779366   0.3494085), wk =   0.0034722
        k(  130) = (  -0.4814003   1.7602650   0.0291174), wk =   0.0069444
        k(  131) = (  -0.4814003   1.5749739   0.0582348), wk =   0.0069444
        k(  132) = (  -0.4814003   1.3896829   0.0873521), wk =   0.0069444
        k(  133) = (  -0.4814003   1.2043918   0.1164695), wk =   0.0069444
        k(  134) = (  -0.4814003   1.0191008   0.1455869), wk =   0.0069444
        k(  135) = (   1.2837341   0.7411642  -0.2911738), wk =   0.0034722
        k(  136) = (   1.2837341   0.5558732  -0.2620564), wk =   0.0069444
        k(  137) = (   1.2837341   0.3705821  -0.2329390), wk =   0.0069444
        k(  138) = (   1.2837341   0.1852911  -0.2038216), wk =   0.0069444
        k(  139) = (   1.2837341  -0.0000000  -0.1747043), wk =   0.0034722
        k(  140) = (   1.1232673   0.6485187  -0.2329390), wk =   0.0034722
        k(  141) = (   1.1232673   0.4632276  -0.2038216), wk =   0.0069444
        k(  142) = (   1.1232673   0.2779366  -0.1747043), wk =   0.0069444
        k(  143) = (   0.9628005   0.5558732  -0.1747043), wk =   0.0034722
        k(  144) = (   0.9628005   0.3705821  -0.1455869), wk =   0.0069444
        k(  145) = (   0.8023338   0.4632276  -0.1164695), wk =   0.0034722
        k(  146) = (   0.0000000   0.0000000   0.2620564), wk =   0.0011574
        k(  147) = (   0.0000000  -0.1852911   0.2911738), wk =   0.0034722
        k(  148) = (   0.0000000  -0.3705821   0.3202912), wk =   0.0034722
        k(  149) = (   0.0000000   1.6676195   0.0000000), wk =   0.0034722
        k(  150) = (   0.0000000   1.4823284   0.0291174), wk =   0.0034722
        k(  151) = (   0.0000000   1.2970374   0.0582348), wk =   0.0034722
        k(  152) = (   0.0000000   1.1117463   0.0873521), wk =   0.0034722
        k(  153) = (  -0.1604668  -0.0926455   0.3202912), wk =   0.0034722
        k(  154) = (  -0.1604668  -0.2779366   0.3494085), wk =   0.0069444
        k(  155) = (  -0.1604668   1.7602650   0.0291174), wk =   0.0069444
        k(  156) = (  -0.1604668   1.5749739   0.0582348), wk =   0.0069444
        k(  157) = (  -0.1604668   1.3896829   0.0873521), wk =   0.0069444
        k(  158) = (  -0.1604668   1.2043918   0.1164695), wk =   0.0069444
        k(  159) = (  -0.3209335  -0.1852911   0.3785259), wk =   0.0034722
        k(  160) = (  -0.3209335   1.8529105   0.0582348), wk =   0.0069444
        k(  161) = (  -0.3209335   1.6676195   0.0873521), wk =   0.0069444
        k(  162) = (  -0.3209335   1.4823284   0.1164695), wk =   0.0069444
        k(  163) = (  -0.3209335   1.2970374   0.1455869), wk =   0.0069444
        k(  164) = (   1.4442008   0.8338097  -0.2620564), wk =   0.0034722
        k(  165) = (   1.4442008   0.6485187  -0.2329390), wk =   0.0069444
        k(  166) = (   1.4442008   0.4632276  -0.2038216), wk =   0.0069444
        k(  167) = (   1.4442008   0.2779366  -0.1747043), wk =   0.0034722
        k(  168) = (   1.2837341   0.7411642  -0.2038216), wk =   0.0034722
        k(  169) = (   1.2837341   0.5558732  -0.1747043), wk =   0.0069444
        k(  170) = (   1.1232673   0.6485187  -0.1455869), wk =   0.0034722
        k(  171) = (   0.0000000   0.0000000   0.3494085), wk =   0.0011574
        k(  172) = (   0.0000000  -0.1852911   0.3785259), wk =   0.0034722
        k(  173) = (   0.0000000   1.8529105   0.0582348), wk =   0.0034722
        k(  174) = (   0.0000000   1.6676195   0.0873521), wk =   0.0034722
        k(  175) = (   0.0000000   1.4823284   0.1164695), wk =   0.0034722
        k(  176) = (  -0.1604668  -0.0926455   0.4076433), wk =   0.0034722
        k(  177) = (  -0.1604668   1.9455560   0.0873521), wk =   0.0069444
        k(  178) = (  -0.1604668   1.7602650   0.1164695), wk =   0.0069444
        k(  179) = (  -0.1604668   1.5749739   0.1455869), wk =   0.0069444
        k(  180) = (   1.6046676   0.9264553  -0.2329390), wk =   0.0034722
        k(  181) = (   1.6046676   0.7411642  -0.2038216), wk =   0.0069444
        k(  182) = (   1.6046676   0.5558732  -0.1747043), wk =   0.0034722
        k(  183) = (   1.4442008   0.8338097  -0.1747043), wk =   0.0034722
        k(  184) = (   0.0000000  -0.0000000   0.4367607), wk =   0.0011574
        k(  185) = (   0.0000000   2.0382016   0.1164695), wk =   0.0034722
        k(  186) = (   0.0000000   1.8529105   0.1455869), wk =   0.0034722
        k(  187) = (   1.7651343   1.0191008  -0.2038216), wk =   0.0034722
        k(  188) = (   1.7651343   0.8338097  -0.1747043), wk =   0.0034722
        k(  189) = (  -0.0000000   0.0000000  -0.5241128), wk =   0.0005787

                       cryst. coord.
        k(    1) = (   0.0000000   0.0000000   0.0000000), wk =   0.0005787
        k(    2) = (  -0.0000000  -0.0000000   0.0833333), wk =   0.0034722
        k(    3) = (  -0.0000000  -0.0000000   0.1666667), wk =   0.0034722
        k(    4) = (  -0.0000000  -0.0000000   0.2500000), wk =   0.0034722
        k(    5) = (  -0.0000000  -0.0000000   0.3333333), wk =   0.0034722
        k(    6) = (   0.0000000   0.0000000   0.4166667), wk =   0.0034722
        k(    7) = (   0.0000000   0.0000000  -0.5000000), wk =   0.0017361
        k(    8) = (  -0.0000000   0.0833333   0.0833333), wk =   0.0034722
        k(    9) = (   0.0000000   0.0833333   0.1666667), wk =   0.0069444
        k(   10) = (   0.0000000   0.0833333   0.2500000), wk =   0.0069444
        k(   11) = (  -0.0000000   0.0833333   0.3333333), wk =   0.0069444
        k(   12) = (  -0.0000000   0.0833333   0.4166667), wk =   0.0069444
        k(   13) = (   0.0000000   0.0833333  -0.5000000), wk =   0.0069444
        k(   14) = (   0.0000000   0.0833333  -0.4166667), wk =   0.0069444
        k(   15) = (  -0.0000000   0.0833333  -0.3333333), wk =   0.0069444
        k(   16) = (  -0.0000000   0.0833333  -0.2500000), wk =   0.0069444
        k(   17) = (   0.0000000   0.0833333  -0.1666667), wk =   0.0069444
        k(   18) = (  -0.0000000   0.0833333  -0.0833333), wk =   0.0034722
        k(   19) = (  -0.0000000   0.1666667   0.1666667), wk =   0.0034722
        k(   20) = (  -0.0000000   0.1666667   0.2500000), wk =   0.0069444
        k(   21) = (   0.0000000   0.1666667   0.3333333), wk =   0.0069444
        k(   22) = (  -0.0000000   0.1666667   0.4166667), wk =   0.0069444
        k(   23) = (  -0.0000000   0.1666667  -0.5000000), wk =   0.0069444
        k(   24) = (   0.0000000   0.1666667  -0.4166667), wk =   0.0069444
        k(   25) = (   0.0000000   0.1666667  -0.3333333), wk =   0.0069444
        k(   26) = (   0.0000000   0.1666667  -0.2500000), wk =   0.0069444
        k(   27) = (   0.0000000   0.1666667  -0.1666667), wk =   0.0034722
        k(   28) = (   0.0000000   0.2500000   0.2500000), wk =   0.0034722
        k(   29) = (  -0.0000000   0.2500000   0.3333333), wk =   0.0069444
        k(   30) = (  -0.0000000   0.2500000   0.4166667), wk =   0.0069444
        k(   31) = (   0.0000000   0.2500000  -0.5000000), wk =   0.0069444
        k(   32) = (   0.0000000   0.2500000  -0.4166667), wk =   0.0069444
        k(   33) = (   0.0000000   0.2500000  -0.3333333), wk =   0.0069444
        k(   34) = (   0.0000000   0.2500000  -0.2500000), wk =   0.0034722
        k(   35) = (  -0.0000000   0.3333333   0.3333333), wk =   0.0034722
        k(   36) = (  -0.0000000   0.3333333   0.4166667), wk =   0.0069444
        k(   37) = (   0.0000000   0.3333333  -0.5000000), wk =   0.0069444
        k(   38) = (   0.0000000   0.3333333  -0.4166667), wk =   0.0069444
        k(   39) = (   0.0000000   0.3333333  -0.3333333), wk =   0.0034722
        k(   40) = (   0.0000000   0.4166667   0.4166667), wk =   0.0034722
        k(   41) = (   0.0000000   0.4166667  -0.5000000), wk =   0.0069444
        k(   42) = (   0.0000000   0.4166667  -0.4166667), wk =   0.0034722
        k(   43) = (  -0.0000000  -0.5000000  -0.5000000), wk =   0.0017361
        k(   44) = (   0.0833333   0.0833333   0.0833333), wk =   0.0011574
        k(   45) = (   0.0833333   0.0833333   0.1666667), wk =   0.0034722
        k(   46) = (   0.0833333   0.0833333   0.2500000), wk =   0.0034722
        k(   47) = (   0.0833333   0.0833333   0.3333333), wk =   0.0034722
        k(   48) = (   0.0833333   0.0833333   0.4166667), wk =   0.0034722
        k(   49) = (   0.0833333   0.0833333  -0.5000000), wk =   0.0034722
        k(   50) = (   0.0833333   0.0833333  -0.4166667), wk =   0.0034722
        k(   51) = (   0.0833333   0.0833333  -0.3333333), wk =   0.0034722
        k(   52) = (   0.0833333   0.0833333  -0.2500000), wk =   0.0034722
        k(   53) = (   0.0833333   0.0833333  -0.1666667), wk =   0.0034722
        k(   54) = (   0.0833333   0.0833333  -0.0833333), wk =   0.0034722
        k(   55) = (   0.0833333   0.1666667   0.1666667), wk =   0.0034722
        k(   56) = (   0.0833333   0.1666667   0.2500000), wk =   0.0069444
        k(   57) = (   0.0833333   0.1666667   0.3333333), wk =   0.0069444
        k(   58) = (   0.0833333   0.1666667   0.4166667), wk =   0.0069444
        k(   59) = (   0.0833333   0.1666667  -0.5000000), wk =   0.0069444
        k(   60) = (   0.0833333   0.1666667  -0.4166667), wk =   0.0069444
        k(   61) = (   0.0833333   0.1666667  -0.3333333), wk =   0.0069444
        k(   62) = (   0.0833333   0.1666667  -0.2500000), wk =   0.0069444
        k(   63) = (   0.0833333   0.1666667  -0.1666667), wk =   0.0069444
        k(   64) = (   0.0833333   0.1666667  -0.0833333), wk =   0.0069444
        k(   65) = (   0.0833333   0.2500000   0.2500000), wk =   0.0034722
        k(   66) = (   0.0833333   0.2500000   0.3333333), wk =   0.0069444
        k(   67) = (   0.0833333   0.2500000   0.4166667), wk =   0.0069444
        k(   68) = (   0.0833333   0.2500000  -0.5000000), wk =   0.0069444
        k(   69) = (   0.0833333   0.2500000  -0.4166667), wk =   0.0069444
        k(   70) = (   0.0833333   0.2500000  -0.3333333), wk =   0.0069444
        k(   71) = (   0.0833333   0.2500000  -0.2500000), wk =   0.0069444
        k(   72) = (   0.0833333   0.2500000  -0.1666667), wk =   0.0069444
        k(   73) = (   0.0833333   0.2500000  -0.0833333), wk =   0.0069444
        k(   74) = (   0.0833333   0.3333333   0.3333333), wk =   0.0034722
        k(   75) = (   0.0833333   0.3333333   0.4166667), wk =   0.0069444
        k(   76) = (   0.0833333   0.3333333  -0.5000000), wk =   0.0069444
        k(   77) = (   0.0833333   0.3333333  -0.4166667), wk =   0.0069444
        k(   78) = (   0.0833333   0.3333333  -0.3333333), wk =   0.0069444
        k(   79) = (   0.0833333   0.3333333  -0.2500000), wk =   0.0069444
        k(   80) = (   0.0833333   0.3333333  -0.1666667), wk =   0.0069444
        k(   81) = (   0.0833333   0.3333333  -0.0833333), wk =   0.0069444
        k(   82) = (   0.0833333   0.4166667   0.4166667), wk =   0.0034722
        k(   83) = (   0.0833333   0.4166667  -0.5000000), wk =   0.0069444
        k(   84) = (   0.0833333   0.4166667  -0.4166667), wk =   0.0069444
        k(   85) = (   0.0833333   0.4166667  -0.3333333), wk =   0.0069444
        k(   86) = (   0.0833333   0.4166667  -0.2500000), wk =   0.0069444
        k(   87) = (   0.0833333   0.4166667  -0.1666667), wk =   0.0069444
        k(   88) = (   0.0833333   0.4166667  -0.0833333), wk =   0.0069444
        k(   89) = (   0.0833333  -0.5000000  -0.5000000), wk =   0.0034722
        k(   90) = (   0.0833333  -0.5000000  -0.4166667), wk =   0.0069444
        k(   91) = (   0.0833333  -0.5000000  -0.3333333), wk =   0.0069444
        k(   92) = (   0.0833333  -0.5000000  -0.2500000), wk =   0.0069444
        k(   93) = (   0.0833333  -0.5000000  -0.1666667), wk =   0.0069444
        k(   94) = (   0.0833333  -0.5000000  -0.0833333), wk =   0.0034722
        k(   95) = (   0.0833333  -0.4166667  -0.4166667), wk =   0.0034722
        k(   96) = (   0.0833333  -0.4166667  -0.3333333), wk =   0.0069444
        k(   97) = (   0.0833333  -0.4166667  -0.2500000), wk =   0.0069444
        k(   98) = (   0.0833333  -0.4166667  -0.1666667), wk =   0.0069444
        k(   99) = (   0.0833333  -0.3333333  -0.3333333), wk =   0.0034722
        k(  100) = (   0.0833333  -0.3333333  -0.2500000), wk =   0.0069444
        k(  101) = (   0.0833333  -0.3333333  -0.1666667), wk =   0.0069444
        k(  102) = (   0.0833333  -0.2500000  -0.2500000), wk =   0.0034722
        k(  103) = (   0.0833333  -0.2500000  -0.1666667), wk =   0.0069444
        k(  104) = (   0.0833333  -0.1666667  -0.1666667), wk =   0.0034722
        k(  105) = (   0.1666667   0.1666667   0.1666667), wk =   0.0011574
        k(  106) = (   0.1666667   0.1666667   0.2500000), wk =   0.0034722
        k(  107) = (   0.1666667   0.1666667   0.3333333), wk =   0.0034722
        k(  108) = (   0.1666667   0.1666667   0.4166667), wk =   0.0034722
        k(  109) = (   0.1666667   0.1666667  -0.5000000), wk =   0.0034722
        k(  110) = (   0.1666667   0.1666667  -0.4166667), wk =   0.0034722
        k(  111) = (   0.1666667   0.1666667  -0.3333333), wk =   0.0034722
        k(  112) = (   0.1666667   0.1666667  -0.2500000), wk =   0.0034722
        k(  113) = (   0.1666667   0.1666667  -0.1666667), wk =   0.0034722
        k(  114) = (   0.1666667   0.2500000   0.2500000), wk =   0.0034722
        k(  115) = (   0.1666667   0.2500000   0.3333333), wk =   0.0069444
        k(  116) = (   0.1666667   0.2500000   0.4166667), wk =   0.0069444
        k(  117) = (   0.1666667   0.2500000  -0.5000000), wk =   0.0069444
        k(  118) = (   0.1666667   0.2500000  -0.4166667), wk =   0.0069444
        k(  119) = (   0.1666667   0.2500000  -0.3333333), wk =   0.0069444
        k(  120) = (   0.1666667   0.2500000  -0.2500000), wk =   0.0069444
        k(  121) = (   0.1666667   0.2500000  -0.1666667), wk =   0.0069444
        k(  122) = (   0.1666667   0.3333333   0.3333333), wk =   0.0034722
        k(  123) = (   0.1666667   0.3333333   0.4166667), wk =   0.0069444
        k(  124) = (   0.1666667   0.3333333  -0.5000000), wk =   0.0069444
        k(  125) = (   0.1666667   0.3333333  -0.4166667), wk =   0.0069444
        k(  126) = (   0.1666667   0.3333333  -0.3333333), wk =   0.0069444
        k(  127) = (   0.1666667   0.3333333  -0.2500000), wk =   0.0069444
        k(  128) = (   0.1666667   0.3333333  -0.1666667), wk =   0.0069444
        k(  129) = (   0.1666667   0.4166667   0.4166667), wk =   0.0034722
        k(  130) = (   0.1666667   0.4166667  -0.5000000), wk =   0.0069444
        k(  131) = (   0.1666667   0.4166667  -0.4166667), wk =   0.0069444
        k(  132) = (   0.1666667   0.4166667  -0.3333333), wk =   0.0069444
        k(  133) = (   0.1666667   0.4166667  -0.2500000), wk =   0.0069444
        k(  134) = (   0.1666667   0.4166667  -0.1666667), wk =   0.0069444
        k(  135) = (   0.1666667  -0.5000000  -0.5000000), wk =   0.0034722
        k(  136) = (   0.1666667  -0.5000000  -0.4166667), wk =   0.0069444
        k(  137) = (   0.1666667  -0.5000000  -0.3333333), wk =   0.0069444
        k(  138) = (   0.1666667  -0.5000000  -0.2500000), wk =   0.0069444
        k(  139) = (   0.1666667  -0.5000000  -0.1666667), wk =   0.0034722
        k(  140) = (   0.1666667  -0.4166667  -0.4166667), wk =   0.0034722
        k(  141) = (   0.1666667  -0.4166667  -0.3333333), wk =   0.0069444
        k(  142) = (   0.1666667  -0.4166667  -0.2500000), wk =   0.0069444
        k(  143) = (   0.1666667  -0.3333333  -0.3333333), wk =   0.0034722
        k(  144) = (   0.1666667  -0.3333333  -0.2500000), wk =   0.0069444
        k(  145) = (   0.1666667  -0.2500000  -0.2500000), wk =   0.0034722
        k(  146) = (   0.2500000   0.2500000   0.2500000), wk =   0.0011574
        k(  147) = (   0.2500000   0.2500000   0.3333333), wk =   0.0034722
        k(  148) = (   0.2500000   0.2500000   0.4166667), wk =   0.0034722
        k(  149) = (   0.2500000   0.2500000  -0.5000000), wk =   0.0034722
        k(  150) = (   0.2500000   0.2500000  -0.4166667), wk =   0.0034722
        k(  151) = (   0.2500000   0.2500000  -0.3333333), wk =   0.0034722
        k(  152) = (   0.2500000   0.2500000  -0.2500000), wk =   0.0034722
        k(  153) = (   0.2500000   0.3333333   0.3333333), wk =   0.0034722
        k(  154) = (   0.2500000   0.3333333   0.4166667), wk =   0.0069444
        k(  155) = (   0.2500000   0.3333333  -0.5000000), wk =   0.0069444
        k(  156) = (   0.2500000   0.3333333  -0.4166667), wk =   0.0069444
        k(  157) = (   0.2500000   0.3333333  -0.3333333), wk =   0.0069444
        k(  158) = (   0.2500000   0.3333333  -0.2500000), wk =   0.0069444
        k(  159) = (   0.2500000   0.4166667   0.4166667), wk =   0.0034722
        k(  160) = (   0.2500000   0.4166667  -0.5000000), wk =   0.0069444
        k(  161) = (   0.2500000   0.4166667  -0.4166667), wk =   0.0069444
        k(  162) = (   0.2500000   0.4166667  -0.3333333), wk =   0.0069444
        k(  163) = (   0.2500000   0.4166667  -0.2500000), wk =   0.0069444
        k(  164) = (   0.2500000  -0.5000000  -0.5000000), wk =   0.0034722
        k(  165) = (   0.2500000  -0.5000000  -0.4166667), wk =   0.0069444
        k(  166) = (   0.2500000  -0.5000000  -0.3333333), wk =   0.0069444
        k(  167) = (   0.2500000  -0.5000000  -0.2500000), wk =   0.0034722
        k(  168) = (   0.2500000  -0.4166667  -0.4166667), wk =   0.0034722
        k(  169) = (   0.2500000  -0.4166667  -0.3333333), wk =   0.0069444
        k(  170) = (   0.2500000  -0.3333333  -0.3333333), wk =   0.0034722
        k(  171) = (   0.3333333   0.3333333   0.3333333), wk =   0.0011574
        k(  172) = (   0.3333333   0.3333333   0.4166667), wk =   0.0034722
        k(  173) = (   0.3333333   0.3333333  -0.5000000), wk =   0.0034722
        k(  174) = (   0.3333333   0.3333333  -0.4166667), wk =   0.0034722
        k(  175) = (   0.3333333   0.3333333  -0.3333333), wk =   0.0034722
        k(  176) = (   0.3333333   0.4166667   0.4166667), wk =   0.0034722
        k(  177) = (   0.3333333   0.4166667  -0.5000000), wk =   0.0069444
        k(  178) = (   0.3333333   0.4166667  -0.4166667), wk =   0.0069444
        k(  179) = (   0.3333333   0.4166667  -0.3333333), wk =   0.0069444
        k(  180) = (   0.3333333  -0.5000000  -0.5000000), wk =   0.0034722
        k(  181) = (   0.3333333  -0.5000000  -0.4166667), wk =   0.0069444
        k(  182) = (   0.3333333  -0.5000000  -0.3333333), wk =   0.0034722
        k(  183) = (   0.3333333  -0.4166667  -0.4166667), wk =   0.0034722
        k(  184) = (   0.4166667   0.4166667   0.4166667), wk =   0.0011574
        k(  185) = (   0.4166667   0.4166667  -0.5000000), wk =   0.0034722
        k(  186) = (   0.4166667   0.4166667  -0.4166667), wk =   0.0034722
        k(  187) = (   0.4166667  -0.5000000  -0.5000000), wk =   0.0034722
        k(  188) = (   0.4166667  -0.5000000  -0.4166667), wk =   0.0034722
        k(  189) = (  -0.5000000  -0.5000000  -0.5000000), wk =   0.0005787

     Dense  grid:   131535 G-vectors     FFT dimensions: ( 108, 108, 108)

     Smooth grid:    46493 G-vectors     FFT dimensions: (  75,  75,  75)

     Dynamical RAM for                 wfc:       0.25 MB

     Dynamical RAM for     wfc (w. buffer):      12.43 MB

     Dynamical RAM for           str. fact:       0.86 MB

     Dynamical RAM for           local pot:       0.00 MB

     Dynamical RAM for          nlocal pot:       0.81 MB

     Dynamical RAM for                qrad:       7.03 MB

     Dynamical RAM for          rho,v,vnew:      10.26 MB

     Dynamical RAM for               rhoin:       3.42 MB

     Dynamical RAM for            rho*nmix:       9.18 MB

     Dynamical RAM for           G-vectors:       1.13 MB

     Dynamical RAM for          h,s,v(r/c):       0.07 MB

     Dynamical RAM for          <psi|beta>:       0.02 MB

     Dynamical RAM for                 psi:       0.51 MB

     Dynamical RAM for                hpsi:       0.51 MB

     Dynamical RAM for                spsi:       0.51 MB

     Dynamical RAM for      wfcinit/wfcrot:       0.52 MB

     Dynamical RAM for           addusdens:       7.95 MB

     Dynamical RAM for          addusforce:       7.79 MB

     Dynamical RAM for         addusstress:       8.19 MB

     Estimated static dynamical RAM per process >      45.63 MB

     Estimated max dynamical RAM per process >      62.99 MB

     Estimated total dynamical RAM >       3.01 GB
     Generating pointlists ...
     new r_m :   0.1456 (alat units)  2.1740 (a.u.) for type    1
     new r_m :   0.1722 (alat units)  2.5711 (a.u.) for type    2
     new r_m :   0.1456 (alat units)  2.1740 (a.u.) for type    3

     Initial potential from superposition of free atoms

     starting charge      31.9686, renormalised to      32.0000

     negative rho (up, down):  8.162E-03 6.678E-03
     Starting wfcs are   18 randomized atomic wfcs +    2 random wfcs
     Checking if some PAW data can be deallocated... 
       PAW data deallocated on   28 nodes for type:  1

     total cpu time spent up to now is        3.6 secs

     per-process dynamical memory:    70.6 Mb

     Self-consistent Calculation

     iteration #  1     ecut=    60.00 Ry     beta= 0.40
     Davidson diagonalization with overlap

---- Real-time Memory Report at c_bands before calling an iterative solver
           112 MiB given to the printing process from OS
            68 MiB allocation reported by mallinfo(arena+hblkhd)
        484483 MiB available memory on the node where the printing process lives
------------------
     ethr =  1.00E-02,  avg # of iterations =  7.1

     negative rho (up, down):  3.228E-01 2.723E-02

     total cpu time spent up to now is       10.9 secs

     total energy              =    -912.57590923 Ry
     estimated scf accuracy    <       3.52637068 Ry

     total magnetization       =     0.00 Bohr mag/cell
     absolute magnetization    =     4.13 Bohr mag/cell

     iteration #  2     ecut=    60.00 Ry     beta= 0.40
     Davidson diagonalization with overlap

---- Real-time Memory Report at c_bands before calling an iterative solver
           140 MiB given to the printing process from OS
            84 MiB allocation reported by mallinfo(arena+hblkhd)
        483173 MiB available memory on the node where the printing process lives
------------------
     ethr =  1.00E-02,  avg # of iterations =  3.5

     negative rho (up, down):  4.919E-01 2.386E-02

     total cpu time spent up to now is       16.3 secs

     total energy              =    -912.72475313 Ry
     estimated scf accuracy    <       3.24087904 Ry

     total magnetization       =     0.49 Bohr mag/cell
     absolute magnetization    =     4.04 Bohr mag/cell

     iteration #  3     ecut=    60.00 Ry     beta= 0.40
     Davidson diagonalization with overlap

---- Real-time Memory Report at c_bands before calling an iterative solver
           141 MiB given to the printing process from OS
            84 MiB allocation reported by mallinfo(arena+hblkhd)
        483149 MiB available memory on the node where the printing process lives
------------------
     ethr =  1.00E-02,  avg # of iterations =  2.7

     negative rho (up, down):  6.529E-02 2.196E-02

     total cpu time spent up to now is       21.4 secs

     total energy              =    -913.29255833 Ry
     estimated scf accuracy    <       3.61566609 Ry

     total magnetization       =     0.00 Bohr mag/cell
     absolute magnetization    =     6.14 Bohr mag/cell

     iteration #  4     ecut=    60.00 Ry     beta= 0.40
     Davidson diagonalization with overlap

---- Real-time Memory Report at c_bands before calling an iterative solver
           142 MiB given to the printing process from OS
            73 MiB allocation reported by mallinfo(arena+hblkhd)
        483128 MiB available memory on the node where the printing process lives
------------------
     ethr =  1.00E-02,  avg # of iterations =  1.0

     negative rho (up, down):  1.604E+00 7.282E-03

     total cpu time spent up to now is       25.9 secs

     total energy              =    -913.10537584 Ry
     estimated scf accuracy    <       5.64784601 Ry

     total magnetization       =     0.00 Bohr mag/cell
     absolute magnetization    =     5.65 Bohr mag/cell

     iteration #  5     ecut=    60.00 Ry     beta= 0.40
     Davidson diagonalization with overlap

---- Real-time Memory Report at c_bands before calling an iterative solver
           143 MiB given to the printing process from OS
            73 MiB allocation reported by mallinfo(arena+hblkhd)
        483122 MiB available memory on the node where the printing process lives
------------------
     ethr =  1.00E-02,  avg # of iterations =  1.5

     negative rho (up, down):  9.231E-01 7.210E-03

     total cpu time spent up to now is       30.6 secs

     total energy              =    -913.16195430 Ry
     estimated scf accuracy    <       0.89787870 Ry

     total magnetization       =    -0.00 Bohr mag/cell
     absolute magnetization    =     1.78 Bohr mag/cell

     iteration #  6     ecut=    60.00 Ry     beta= 0.40
     Davidson diagonalization with overlap

---- Real-time Memory Report at c_bands before calling an iterative solver
           143 MiB given to the printing process from OS
            74 MiB allocation reported by mallinfo(arena+hblkhd)
        483113 MiB available memory on the node where the printing process lives
------------------
     ethr =  2.81E-03,  avg # of iterations =  3.0

     negative rho (up, down):  1.064E+00 7.218E-03

     total cpu time spent up to now is       36.1 secs

     WARNING: integrated charge=    32.00001012, expected=    32.00000000

     total energy              =    -913.04866805 Ry
     estimated scf accuracy    <       8.19433077 Ry

     total magnetization       =    -0.00 Bohr mag/cell
     absolute magnetization    =     9.10 Bohr mag/cell

     iteration #  7     ecut=    60.00 Ry     beta= 0.40
     Davidson diagonalization with overlap

---- Real-time Memory Report at c_bands before calling an iterative solver
           144 MiB given to the printing process from OS
            74 MiB allocation reported by mallinfo(arena+hblkhd)
        483099 MiB available memory on the node where the printing process lives
------------------
     ethr =  2.81E-03,  avg # of iterations =  2.6

     negative rho (up, down):  1.429E+00 4.951E-02

     total cpu time spent up to now is       41.7 secs

     WARNING: integrated charge=    32.00013697, expected=    32.00000000

     total energy              =    -913.16875445 Ry
     estimated scf accuracy    <       0.26769146 Ry

     total magnetization       =    -0.00 Bohr mag/cell
     absolute magnetization    =     1.97 Bohr mag/cell

     iteration #  8     ecut=    60.00 Ry     beta= 0.40
     Davidson diagonalization with overlap

---- Real-time Memory Report at c_bands before calling an iterative solver
           145 MiB given to the printing process from OS
            74 MiB allocation reported by mallinfo(arena+hblkhd)
        483089 MiB available memory on the node where the printing process lives
------------------
     ethr =  8.37E-04,  avg # of iterations =  3.4
     Minimization algorithm failed to find Fermi energy: reverting to bisection
     Possible cause: smearing is larger than the electronic band-gap.

     negative rho (up, down):  1.814E+00 7.303E-03

     total cpu time spent up to now is       47.5 secs

     WARNING: integrated charge=    32.00009222, expected=    32.00000000

     total energy              =    -913.22660685 Ry
     estimated scf accuracy    <       3.12864920 Ry

     total magnetization       =     0.13 Bohr mag/cell
     absolute magnetization    =     1.91 Bohr mag/cell

     iteration #  9     ecut=    60.00 Ry     beta= 0.40
     Davidson diagonalization with overlap

---- Real-time Memory Report at c_bands before calling an iterative solver
           146 MiB given to the printing process from OS
            75 MiB allocation reported by mallinfo(arena+hblkhd)
        483078 MiB available memory on the node where the printing process lives
------------------
     ethr =  8.37E-04,  avg # of iterations =  3.0

     negative rho (up, down):  2.000E+00 5.447E-02

     total cpu time spent up to now is       53.1 secs

     WARNING: integrated charge=    31.99971074, expected=    32.00000000

     total energy              =    -913.05424886 Ry
     estimated scf accuracy    <       7.34420429 Ry

     total magnetization       =    -0.00 Bohr mag/cell
     absolute magnetization    =     4.11 Bohr mag/cell

     iteration # 10     ecut=    60.00 Ry     beta= 0.40
     Davidson diagonalization with overlap

---- Real-time Memory Report at c_bands before calling an iterative solver
           146 MiB given to the printing process from OS
            75 MiB allocation reported by mallinfo(arena+hblkhd)
        483070 MiB available memory on the node where the printing process lives
------------------
     ethr =  8.37E-04,  avg # of iterations =  4.5
     Minimization algorithm failed to find Fermi energy: reverting to bisection
     Possible cause: smearing is larger than the electronic band-gap.

     negative rho (up, down):  2.072E+00 6.129E-02

     total cpu time spent up to now is       59.6 secs

     WARNING: integrated charge=    31.99960693, expected=    32.00000000

     total energy              =    -913.18294712 Ry
     estimated scf accuracy    <       2.79652818 Ry

     total magnetization       =     0.11 Bohr mag/cell
     absolute magnetization    =     5.08 Bohr mag/cell

     iteration # 11     ecut=    60.00 Ry     beta= 0.40
     Davidson diagonalization with overlap

---- Real-time Memory Report at c_bands before calling an iterative solver
           147 MiB given to the printing process from OS
            75 MiB allocation reported by mallinfo(arena+hblkhd)
        483063 MiB available memory on the node where the printing process lives
------------------
     ethr =  8.37E-04,  avg # of iterations =  1.8
     Minimization algorithm failed to find Fermi energy: reverting to bisection
     Possible cause: smearing is larger than the electronic band-gap.

     negative rho (up, down):  2.085E+00 3.891E-02

     total cpu time spent up to now is       64.6 secs

     WARNING: integrated charge=    31.99957814, expected=    32.00000000

     total energy              =    -913.19439325 Ry
     estimated scf accuracy    <       1.79514176 Ry

     total magnetization       =     0.10 Bohr mag/cell
     absolute magnetization    =     5.91 Bohr mag/cell

     iteration # 12     ecut=    60.00 Ry     beta= 0.40
     Davidson diagonalization with overlap

---- Real-time Memory Report at c_bands before calling an iterative solver
           147 MiB given to the printing process from OS
            75 MiB allocation reported by mallinfo(arena+hblkhd)
        483058 MiB available memory on the node where the printing process lives
------------------
     ethr =  8.37E-04,  avg # of iterations =  1.0
     Minimization algorithm failed to find Fermi energy: reverting to bisection
     Possible cause: smearing is larger than the electronic band-gap.

     negative rho (up, down):  2.007E+00 4.299E-02

     total cpu time spent up to now is       69.1 secs

     WARNING: integrated charge=    31.99970119, expected=    32.00000000

     total energy              =    -913.21279181 Ry
     estimated scf accuracy    <       1.75542886 Ry

     total magnetization       =     0.11 Bohr mag/cell
     absolute magnetization    =     6.32 Bohr mag/cell

     iteration # 13     ecut=    60.00 Ry     beta= 0.40
     Davidson diagonalization with overlap

---- Real-time Memory Report at c_bands before calling an iterative solver
           147 MiB given to the printing process from OS
            75 MiB allocation reported by mallinfo(arena+hblkhd)
        483048 MiB available memory on the node where the printing process lives
------------------
     ethr =  8.37E-04,  avg # of iterations =  1.4
     Minimization algorithm failed to find Fermi energy: reverting to bisection
     Possible cause: smearing is larger than the electronic band-gap.

     negative rho (up, down):  1.175E+00 1.884E-01

     total cpu time spent up to now is       73.8 secs

     WARNING: integrated charge=    32.00010255, expected=    32.00000000

     total energy              =    -913.10109870 Ry
     estimated scf accuracy    <       2.42193538 Ry

     total magnetization       =     0.10 Bohr mag/cell
     absolute magnetization    =     5.88 Bohr mag/cell

     iteration # 14     ecut=    60.00 Ry     beta= 0.40
     Davidson diagonalization with overlap

---- Real-time Memory Report at c_bands before calling an iterative solver
           147 MiB given to the printing process from OS
            75 MiB allocation reported by mallinfo(arena+hblkhd)
        483043 MiB available memory on the node where the printing process lives
------------------
     ethr =  8.37E-04,  avg # of iterations =  4.0

     negative rho (up, down):  1.621E+00 1.071E-01

     total cpu time spent up to now is       79.7 secs

     WARNING: integrated charge=    32.00103225, expected=    32.00000000

     total energy              =    -913.18028161 Ry
     estimated scf accuracy    <       1.08478100 Ry

     total magnetization       =     0.00 Bohr mag/cell
     absolute magnetization    =     1.01 Bohr mag/cell

     iteration # 15     ecut=    60.00 Ry     beta= 0.40
     Davidson diagonalization with overlap

---- Real-time Memory Report at c_bands before calling an iterative solver
           147 MiB given to the printing process from OS
            75 MiB allocation reported by mallinfo(arena+hblkhd)
        483042 MiB available memory on the node where the printing process lives
------------------
     ethr =  8.37E-04,  avg # of iterations =  3.0

     negative rho (up, down):  1.471E+00 2.391E-01

     total cpu time spent up to now is       85.5 secs

     WARNING: integrated charge=    31.99973292, expected=    32.00000000

     total energy              =    -913.22794521 Ry
     estimated scf accuracy    <       4.61459340 Ry

     total magnetization       =     0.00 Bohr mag/cell
     absolute magnetization    =     3.18 Bohr mag/cell

     iteration # 16     ecut=    60.00 Ry     beta= 0.40
     Davidson diagonalization with overlap

---- Real-time Memory Report at c_bands before calling an iterative solver
           148 MiB given to the printing process from OS
            75 MiB allocation reported by mallinfo(arena+hblkhd)
        483037 MiB available memory on the node where the printing process lives
------------------
     ethr =  8.37E-04,  avg # of iterations =  1.0

     negative rho (up, down):  1.711E+00 8.270E-02

     total cpu time spent up to now is       89.9 secs

     WARNING: integrated charge=    32.00079996, expected=    32.00000000

     total energy              =    -913.21269540 Ry
     estimated scf accuracy    <       3.49279398 Ry

     total magnetization       =    -0.00 Bohr mag/cell
     absolute magnetization    =     2.82 Bohr mag/cell

     iteration # 17     ecut=    60.00 Ry     beta= 0.40
     Davidson diagonalization with overlap

---- Real-time Memory Report at c_bands before calling an iterative solver
           148 MiB given to the printing process from OS
            75 MiB allocation reported by mallinfo(arena+hblkhd)
        483034 MiB available memory on the node where the printing process lives
------------------
     ethr =  8.37E-04,  avg # of iterations =  1.5

     negative rho (up, down):  1.603E+00 1.372E-01

     total cpu time spent up to now is       94.7 secs

     WARNING: integrated charge=    32.00025920, expected=    32.00000000

     total energy              =    -913.22945101 Ry
     estimated scf accuracy    <       3.56428110 Ry

     total magnetization       =    -0.00 Bohr mag/cell
     absolute magnetization    =     2.20 Bohr mag/cell

     iteration # 18     ecut=    60.00 Ry     beta= 0.40
     Davidson diagonalization with overlap

---- Real-time Memory Report at c_bands before calling an iterative solver
           148 MiB given to the printing process from OS
            75 MiB allocation reported by mallinfo(arena+hblkhd)
        483025 MiB available memory on the node where the printing process lives
------------------
     ethr =  8.37E-04,  avg # of iterations =  1.0

     negative rho (up, down):  1.490E+00 1.192E-01

     total cpu time spent up to now is       99.2 secs

     WARNING: integrated charge=    31.99988855, expected=    32.00000000

     total energy              =    -913.25001174 Ry
     estimated scf accuracy    <       3.54291110 Ry

     total magnetization       =    -0.00 Bohr mag/cell
     absolute magnetization    =     2.41 Bohr mag/cell

     iteration # 19     ecut=    60.00 Ry     beta= 0.40
     Davidson diagonalization with overlap

---- Real-time Memory Report at c_bands before calling an iterative solver
           148 MiB given to the printing process from OS
            75 MiB allocation reported by mallinfo(arena+hblkhd)
        483022 MiB available memory on the node where the printing process lives
------------------
     ethr =  8.37E-04,  avg # of iterations =  1.0

     negative rho (up, down):  1.844E+00 1.359E-01

     total cpu time spent up to now is      103.7 secs

     WARNING: integrated charge=    31.99986394, expected=    32.00000000

     total energy              =    -913.08033551 Ry
     estimated scf accuracy    <       4.44009375 Ry

     total magnetization       =    -0.00 Bohr mag/cell
     absolute magnetization    =     3.15 Bohr mag/cell

     iteration # 20     ecut=    60.00 Ry     beta= 0.40
     Davidson diagonalization with overlap

---- Real-time Memory Report at c_bands before calling an iterative solver
           148 MiB given to the printing process from OS
            75 MiB allocation reported by mallinfo(arena+hblkhd)
        483022 MiB available memory on the node where the printing process lives
------------------
     ethr =  8.37E-04,  avg # of iterations =  3.5

     negative rho (up, down):  1.980E+00 1.919E-01

     total cpu time spent up to now is      110.1 secs

     WARNING: integrated charge=    32.00012972, expected=    32.00000000

     total energy              =    -913.16649217 Ry
     estimated scf accuracy    <       3.00728403 Ry

     total magnetization       =    -0.00 Bohr mag/cell
     absolute magnetization    =     3.68 Bohr mag/cell

     iteration # 21     ecut=    60.00 Ry     beta= 0.40
     Davidson diagonalization with overlap

---- Real-time Memory Report at c_bands before calling an iterative solver
           148 MiB given to the printing process from OS
            75 MiB allocation reported by mallinfo(arena+hblkhd)
        483019 MiB available memory on the node where the printing process lives
------------------
     ethr =  8.37E-04,  avg # of iterations =  2.8

     negative rho (up, down):  1.420E+00 2.182E-01

     total cpu time spent up to now is      115.4 secs

     WARNING: integrated charge=    31.99972256, expected=    32.00000000

     total energy              =    -913.09798902 Ry
     estimated scf accuracy    <       1.04350131 Ry

     total magnetization       =    -0.00 Bohr mag/cell
     absolute magnetization    =     4.94 Bohr mag/cell

     iteration # 22     ecut=    60.00 Ry     beta= 0.40
     Davidson diagonalization with overlap

---- Real-time Memory Report at c_bands before calling an iterative solver
           148 MiB given to the printing process from OS
            75 MiB allocation reported by mallinfo(arena+hblkhd)
        483017 MiB available memory on the node where the printing process lives
------------------
     ethr =  8.37E-04,  avg # of iterations =  4.4

     negative rho (up, down):  1.459E+00 3.636E-01

     total cpu time spent up to now is      121.8 secs

     WARNING: integrated charge=    32.00038563, expected=    32.00000000

     total energy              =    -913.13789241 Ry
     estimated scf accuracy    <       4.37168596 Ry

     total magnetization       =    -0.00 Bohr mag/cell
     absolute magnetization    =     3.39 Bohr mag/cell

     iteration # 23     ecut=    60.00 Ry     beta= 0.40
     Davidson diagonalization with overlap

---- Real-time Memory Report at c_bands before calling an iterative solver
           149 MiB given to the printing process from OS
            75 MiB allocation reported by mallinfo(arena+hblkhd)
        483007 MiB available memory on the node where the printing process lives
------------------
     ethr =  8.37E-04,  avg # of iterations =  2.8

     negative rho (up, down):  1.553E+00 4.104E-01

     total cpu time spent up to now is      127.7 secs

     WARNING: integrated charge=    32.00135232, expected=    32.00000000

     total energy              =    -913.17332416 Ry
     estimated scf accuracy    <       0.80186893 Ry

     total magnetization       =    -0.00 Bohr mag/cell
     absolute magnetization    =     0.88 Bohr mag/cell

     iteration # 24     ecut=    60.00 Ry     beta= 0.40
     Davidson diagonalization with overlap

---- Real-time Memory Report at c_bands before calling an iterative solver
           149 MiB given to the printing process from OS
            75 MiB allocation reported by mallinfo(arena+hblkhd)
        483005 MiB available memory on the node where the printing process lives
------------------
     ethr =  8.37E-04,  avg # of iterations =  2.8

     negative rho (up, down):  1.579E+00 4.057E-01

     total cpu time spent up to now is      132.8 secs

     WARNING: integrated charge=    32.00171501, expected=    32.00000000

     total energy              =    -913.19439955 Ry
     estimated scf accuracy    <       0.95077313 Ry

     total magnetization       =    -0.00 Bohr mag/cell
     absolute magnetization    =     2.92 Bohr mag/cell

     iteration # 25     ecut=    60.00 Ry     beta= 0.40
     Davidson diagonalization with overlap

---- Real-time Memory Report at c_bands before calling an iterative solver
           149 MiB given to the printing process from OS
            75 MiB allocation reported by mallinfo(arena+hblkhd)
        483004 MiB available memory on the node where the printing process lives
------------------
     ethr =  8.37E-04,  avg # of iterations =  1.2

     negative rho (up, down):  1.577E+00 4.319E-01

     total cpu time spent up to now is      137.4 secs

     WARNING: integrated charge=    32.00154857, expected=    32.00000000

     total energy              =    -913.18636094 Ry
     estimated scf accuracy    <       1.29406913 Ry

     total magnetization       =    -0.00 Bohr mag/cell
     absolute magnetization    =     3.63 Bohr mag/cell

     iteration # 26     ecut=    60.00 Ry     beta= 0.40
     Davidson diagonalization with overlap

---- Real-time Memory Report at c_bands before calling an iterative solver
           149 MiB given to the printing process from OS
            75 MiB allocation reported by mallinfo(arena+hblkhd)
        483004 MiB available memory on the node where the printing process lives
------------------
     ethr =  8.37E-04,  avg # of iterations =  1.4

     negative rho (up, down):  1.574E+00 3.498E-01

     total cpu time spent up to now is      142.1 secs

     WARNING: integrated charge=    32.00192431, expected=    32.00000000

     total energy              =    -913.20876563 Ry
     estimated scf accuracy    <       0.97710928 Ry

     total magnetization       =    -0.00 Bohr mag/cell
     absolute magnetization    =     4.32 Bohr mag/cell

     iteration # 27     ecut=    60.00 Ry     beta= 0.40
     Davidson diagonalization with overlap

---- Real-time Memory Report at c_bands before calling an iterative solver
           149 MiB given to the printing process from OS
            75 MiB allocation reported by mallinfo(arena+hblkhd)
        482997 MiB available memory on the node where the printing process lives
------------------
     ethr =  8.37E-04,  avg # of iterations =  2.2

     negative rho (up, down):  1.572E+00 3.578E-01

     total cpu time spent up to now is      147.2 secs

     WARNING: integrated charge=    32.00183429, expected=    32.00000000

     total energy              =    -913.22842366 Ry
     estimated scf accuracy    <       2.43559665 Ry

     total magnetization       =    -0.00 Bohr mag/cell
     absolute magnetization    =     3.47 Bohr mag/cell

     iteration # 28     ecut=    60.00 Ry     beta= 0.40
     Davidson diagonalization with overlap

---- Real-time Memory Report at c_bands before calling an iterative solver
           149 MiB given to the printing process from OS
            75 MiB allocation reported by mallinfo(arena+hblkhd)
        482995 MiB available memory on the node where the printing process lives
------------------
     ethr =  8.37E-04,  avg # of iterations =  1.0

     negative rho (up, down):  1.567E+00 3.661E-01

     total cpu time spent up to now is      151.6 secs

     WARNING: integrated charge=    32.00186210, expected=    32.00000000

     total energy              =    -913.23124474 Ry
     estimated scf accuracy    <       2.88173015 Ry

     total magnetization       =    -0.00 Bohr mag/cell
     absolute magnetization    =     3.37 Bohr mag/cell

     iteration # 29     ecut=    60.00 Ry     beta= 0.40
     Davidson diagonalization with overlap

---- Real-time Memory Report at c_bands before calling an iterative solver
           149 MiB given to the printing process from OS
            75 MiB allocation reported by mallinfo(arena+hblkhd)
        482994 MiB available memory on the node where the printing process lives
------------------
     ethr =  8.37E-04,  avg # of iterations =  1.0

     negative rho (up, down):  1.568E+00 3.296E-01

     total cpu time spent up to now is      156.1 secs

     WARNING: integrated charge=    32.00171632, expected=    32.00000000

     total energy              =    -913.22465032 Ry
     estimated scf accuracy    <       3.25803694 Ry

     total magnetization       =    -0.00 Bohr mag/cell
     absolute magnetization    =     3.56 Bohr mag/cell

     iteration # 30     ecut=    60.00 Ry     beta= 0.40
     Davidson diagonalization with overlap

---- Real-time Memory Report at c_bands before calling an iterative solver
           149 MiB given to the printing process from OS
            75 MiB allocation reported by mallinfo(arena+hblkhd)
        482993 MiB available memory on the node where the printing process lives
------------------
     ethr =  8.37E-04,  avg # of iterations =  1.0

     negative rho (up, down):  1.557E+00 2.874E-01

     total cpu time spent up to now is      160.6 secs

     WARNING: integrated charge=    32.00179463, expected=    32.00000000

     total energy              =    -913.17137473 Ry
     estimated scf accuracy    <       3.25541771 Ry

     total magnetization       =    -0.00 Bohr mag/cell
     absolute magnetization    =     3.36 Bohr mag/cell

     iteration # 31     ecut=    60.00 Ry     beta= 0.40
     Davidson diagonalization with overlap

---- Real-time Memory Report at c_bands before calling an iterative solver
           149 MiB given to the printing process from OS
            75 MiB allocation reported by mallinfo(arena+hblkhd)
        482992 MiB available memory on the node where the printing process lives
------------------
     ethr =  8.37E-04,  avg # of iterations =  2.0

     negative rho (up, down):  1.579E+00 3.220E-01

     total cpu time spent up to now is      165.8 secs

     WARNING: integrated charge=    32.00197023, expected=    32.00000000

     total energy              =    -913.20977873 Ry
     estimated scf accuracy    <       1.22418594 Ry

     total magnetization       =    -0.00 Bohr mag/cell
     absolute magnetization    =     1.34 Bohr mag/cell

     iteration # 32     ecut=    60.00 Ry     beta= 0.40
     Davidson diagonalization with overlap

---- Real-time Memory Report at c_bands before calling an iterative solver
           149 MiB given to the printing process from OS
            75 MiB allocation reported by mallinfo(arena+hblkhd)
        483058 MiB available memory on the node where the printing process lives
------------------
     ethr =  8.37E-04,  avg # of iterations =  2.0

     negative rho (up, down):  1.589E+00 3.164E-01

     total cpu time spent up to now is      170.9 secs

     WARNING: integrated charge=    32.00202256, expected=    32.00000000

     total energy              =    -913.22815514 Ry
     estimated scf accuracy    <       2.77783061 Ry

     total magnetization       =    -0.00 Bohr mag/cell
     absolute magnetization    =     2.89 Bohr mag/cell

     iteration # 33     ecut=    60.00 Ry     beta= 0.40
     Davidson diagonalization with overlap

---- Real-time Memory Report at c_bands before calling an iterative solver
           149 MiB given to the printing process from OS
            75 MiB allocation reported by mallinfo(arena+hblkhd)
        482991 MiB available memory on the node where the printing process lives
------------------
     ethr =  8.37E-04,  avg # of iterations =  1.0

     negative rho (up, down):  1.591E+00 3.009E-01

     total cpu time spent up to now is      175.6 secs

     WARNING: integrated charge=    32.00197454, expected=    32.00000000

     total energy              =    -913.20614711 Ry
     estimated scf accuracy    <       3.17691551 Ry

     total magnetization       =    -0.00 Bohr mag/cell
     absolute magnetization    =     3.13 Bohr mag/cell

     iteration # 34     ecut=    60.00 Ry     beta= 0.40
     Davidson diagonalization with overlap

---- Real-time Memory Report at c_bands before calling an iterative solver
           150 MiB given to the printing process from OS
            75 MiB allocation reported by mallinfo(arena+hblkhd)
        482936 MiB available memory on the node where the printing process lives
------------------
     ethr =  8.37E-04,  avg # of iterations =  1.0

     negative rho (up, down):  1.591E+00 2.915E-01

     total cpu time spent up to now is      180.0 secs

     WARNING: integrated charge=    32.00195813, expected=    32.00000000

     total energy              =    -913.19747429 Ry
     estimated scf accuracy    <       2.53669917 Ry

     total magnetization       =    -0.00 Bohr mag/cell
     absolute magnetization    =     2.82 Bohr mag/cell

     iteration # 35     ecut=    60.00 Ry     beta= 0.40
     Davidson diagonalization with overlap

---- Real-time Memory Report at c_bands before calling an iterative solver
           150 MiB given to the printing process from OS
            75 MiB allocation reported by mallinfo(arena+hblkhd)
        482936 MiB available memory on the node where the printing process lives
------------------
     ethr =  8.37E-04,  avg # of iterations =  1.2

     negative rho (up, down):  1.523E+00 4.638E-01

     total cpu time spent up to now is      184.6 secs

     WARNING: integrated charge=    32.00269557, expected=    32.00000000

     total energy              =    -913.19692787 Ry
     estimated scf accuracy    <       1.80574977 Ry

     total magnetization       =    -0.00 Bohr mag/cell
     absolute magnetization    =     2.37 Bohr mag/cell

     iteration # 36     ecut=    60.00 Ry     beta= 0.40
     Davidson diagonalization with overlap

---- Real-time Memory Report at c_bands before calling an iterative solver
           150 MiB given to the printing process from OS
            75 MiB allocation reported by mallinfo(arena+hblkhd)
        482976 MiB available memory on the node where the printing process lives
------------------
     ethr =  8.37E-04,  avg # of iterations =  1.5

     negative rho (up, down):  1.539E+00 5.496E-01

     total cpu time spent up to now is      189.4 secs

     WARNING: integrated charge=    32.00250935, expected=    32.00000000

     total energy              =    -913.17983977 Ry
     estimated scf accuracy    <       1.96607797 Ry

     total magnetization       =    -0.00 Bohr mag/cell
     absolute magnetization    =     3.15 Bohr mag/cell

     iteration # 37     ecut=    60.00 Ry     beta= 0.40
     Davidson diagonalization with overlap

---- Real-time Memory Report at c_bands before calling an iterative solver
           150 MiB given to the printing process from OS
            75 MiB allocation reported by mallinfo(arena+hblkhd)
        482973 MiB available memory on the node where the printing process lives
------------------
     ethr =  8.37E-04,  avg # of iterations =  1.4

     negative rho (up, down):  1.568E+00 5.851E-01

     total cpu time spent up to now is      194.1 secs

     WARNING: integrated charge=    32.00278219, expected=    32.00000000

     total energy              =    -913.16410619 Ry
     estimated scf accuracy    <       1.20701458 Ry

     total magnetization       =    -0.00 Bohr mag/cell
     absolute magnetization    =     3.54 Bohr mag/cell

     iteration # 38     ecut=    60.00 Ry     beta= 0.40
     Davidson diagonalization with overlap

---- Real-time Memory Report at c_bands before calling an iterative solver
           150 MiB given to the printing process from OS
            75 MiB allocation reported by mallinfo(arena+hblkhd)
        482972 MiB available memory on the node where the printing process lives
------------------
     ethr =  8.37E-04,  avg # of iterations =  2.7

     negative rho (up, down):  1.570E+00 3.768E-01

     total cpu time spent up to now is      199.3 secs

     WARNING: integrated charge=    32.00203852, expected=    32.00000000

     total energy              =    -913.17166919 Ry
     estimated scf accuracy    <       0.62741679 Ry

     total magnetization       =    -0.00 Bohr mag/cell
     absolute magnetization    =     4.69 Bohr mag/cell

     iteration # 39     ecut=    60.00 Ry     beta= 0.40
     Davidson diagonalization with overlap

---- Real-time Memory Report at c_bands before calling an iterative solver
           150 MiB given to the printing process from OS
            75 MiB allocation reported by mallinfo(arena+hblkhd)
        482969 MiB available memory on the node where the printing process lives
------------------
     ethr =  8.37E-04,  avg # of iterations =  3.4

     negative rho (up, down):  1.573E+00 4.643E-01

     total cpu time spent up to now is      204.9 secs

     WARNING: integrated charge=    32.00226082, expected=    32.00000000

     total energy              =    -913.18273580 Ry
     estimated scf accuracy    <       2.54130374 Ry

     total magnetization       =    -0.00 Bohr mag/cell
     absolute magnetization    =     2.72 Bohr mag/cell

     iteration # 40     ecut=    60.00 Ry     beta= 0.40
     Davidson diagonalization with overlap

---- Real-time Memory Report at c_bands before calling an iterative solver
           150 MiB given to the printing process from OS
            75 MiB allocation reported by mallinfo(arena+hblkhd)
        482968 MiB available memory on the node where the printing process lives
------------------
     ethr =  8.37E-04,  avg # of iterations =  1.6

     negative rho (up, down):  1.587E+00 4.491E-01

     total cpu time spent up to now is      209.8 secs

     WARNING: integrated charge=    32.00219735, expected=    32.00000000

     total energy              =    -913.19060568 Ry
     estimated scf accuracy    <       1.78950937 Ry

     total magnetization       =    -0.00 Bohr mag/cell
     absolute magnetization    =     3.37 Bohr mag/cell

     iteration # 41     ecut=    60.00 Ry     beta= 0.40
     Davidson diagonalization with overlap

---- Real-time Memory Report at c_bands before calling an iterative solver
           150 MiB given to the printing process from OS
            75 MiB allocation reported by mallinfo(arena+hblkhd)
        482967 MiB available memory on the node where the printing process lives
------------------
     ethr =  8.37E-04,  avg # of iterations =  1.0

     negative rho (up, down):  1.589E+00 4.369E-01

     total cpu time spent up to now is      214.3 secs

     WARNING: integrated charge=    32.00215933, expected=    32.00000000

     total energy              =    -913.19032629 Ry
     estimated scf accuracy    <       1.56479470 Ry

     total magnetization       =    -0.00 Bohr mag/cell
     absolute magnetization    =     4.04 Bohr mag/cell

     iteration # 42     ecut=    60.00 Ry     beta= 0.40
     Davidson diagonalization with overlap

---- Real-time Memory Report at c_bands before calling an iterative solver
           150 MiB given to the printing process from OS
            75 MiB allocation reported by mallinfo(arena+hblkhd)
        482963 MiB available memory on the node where the printing process lives
------------------
     ethr =  8.37E-04,  avg # of iterations =  1.1

     negative rho (up, down):  1.589E+00 4.393E-01

     total cpu time spent up to now is      218.8 secs

     WARNING: integrated charge=    32.00215789, expected=    32.00000000

     total energy              =    -913.19313208 Ry
     estimated scf accuracy    <       1.30473976 Ry

     total magnetization       =    -0.00 Bohr mag/cell
     absolute magnetization    =     4.52 Bohr mag/cell

     iteration # 43     ecut=    60.00 Ry     beta= 0.40
     Davidson diagonalization with overlap

---- Real-time Memory Report at c_bands before calling an iterative solver
           150 MiB given to the printing process from OS
            75 MiB allocation reported by mallinfo(arena+hblkhd)
        482963 MiB available memory on the node where the printing process lives
------------------
     ethr =  8.37E-04,  avg # of iterations =  1.0

     negative rho (up, down):  1.584E+00 4.845E-01

     total cpu time spent up to now is      223.3 secs

     WARNING: integrated charge=    32.00219420, expected=    32.00000000

     total energy              =    -913.18926476 Ry
     estimated scf accuracy    <       1.32733482 Ry

     total magnetization       =    -0.00 Bohr mag/cell
     absolute magnetization    =     4.58 Bohr mag/cell

     iteration # 44     ecut=    60.00 Ry     beta= 0.40
     Davidson diagonalization with overlap

---- Real-time Memory Report at c_bands before calling an iterative solver
           150 MiB given to the printing process from OS
            75 MiB allocation reported by mallinfo(arena+hblkhd)
        482961 MiB available memory on the node where the printing process lives
------------------
     ethr =  8.37E-04,  avg # of iterations =  1.0

     negative rho (up, down):  1.576E+00 5.075E-01

     total cpu time spent up to now is      227.8 secs

     WARNING: integrated charge=    32.00227126, expected=    32.00000000

     total energy              =    -913.19053185 Ry
     estimated scf accuracy    <       1.31138102 Ry

[...]
     Davidson diagonalization with overlap

---- Real-time Memory Report at c_bands before calling an iterative solver
           153 MiB given to the printing process from OS
            75 MiB allocation reported by mallinfo(arena+hblkhd)
        483181 MiB available memory on the node where the printing process lives
------------------
     ethr =  4.32E-07,  avg # of iterations =  4.8

     negative rho (up, down):  1.598E+00 2.784E-01

     total cpu time spent up to now is     2584.1 secs

     WARNING: integrated charge=    32.00243987, expected=    32.00000000

     total energy              =    -913.17637573 Ry
     estimated scf accuracy    <       0.00200082 Ry

     total magnetization       =    -0.00 Bohr mag/cell
     absolute magnetization    =     3.35 Bohr mag/cell

     iteration #483     ecut=    60.00 Ry     beta= 0.40
     Davidson diagonalization with overlap

---- Real-time Memory Report at c_bands before calling an iterative solver
           153 MiB given to the printing process from OS
            75 MiB allocation reported by mallinfo(arena+hblkhd)
        483181 MiB available memory on the node where the printing process lives
------------------
     ethr =  4.32E-07,  avg # of iterations =  1.3

     negative rho (up, down):  1.595E+00 2.830E-01

     total cpu time spent up to now is     2588.8 secs

     WARNING: integrated charge=    32.00244112, expected=    32.00000000

     total energy              =    -913.17637433 Ry
     estimated scf accuracy    <       0.00240649 Ry

     total magnetization       =    -0.00 Bohr mag/cell
     absolute magnetization    =     3.35 Bohr mag/cell

     iteration #484     ecut=    60.00 Ry     beta= 0.40
     Davidson diagonalization with overlap

---- Real-time Memory Report at c_bands before calling an iterative solver
           153 MiB given to the printing process from OS
            75 MiB allocation reported by mallinfo(arena+hblkhd)
        483180 MiB available memory on the node where the printing process lives
------------------
     ethr =  4.32E-07,  avg # of iterations =  3.2

     negative rho (up, down):  1.590E+00 2.897E-01

     total cpu time spent up to now is     2594.7 secs

     WARNING: integrated charge=    32.00244110, expected=    32.00000000

     total energy              =    -913.17626511 Ry
     estimated scf accuracy    <       0.00293154 Ry

     total magnetization       =    -0.00 Bohr mag/cell
     absolute magnetization    =     3.28 Bohr mag/cell

     iteration #485     ecut=    60.00 Ry     beta= 0.40
     Davidson diagonalization with overlap

---- Real-time Memory Report at c_bands before calling an iterative solver
           153 MiB given to the printing process from OS
            75 MiB allocation reported by mallinfo(arena+hblkhd)
        483179 MiB available memory on the node where the printing process lives
------------------
     ethr =  4.32E-07,  avg # of iterations =  4.6

     negative rho (up, down):  1.613E+00 2.522E-01

     total cpu time spent up to now is     2600.9 secs

     WARNING: integrated charge=    32.00244140, expected=    32.00000000

     total energy              =    -913.17691055 Ry
     estimated scf accuracy    <       0.00293450 Ry

     total magnetization       =    -0.00 Bohr mag/cell
     absolute magnetization    =     3.30 Bohr mag/cell

     iteration #486     ecut=    60.00 Ry     beta= 0.40
     Davidson diagonalization with overlap

---- Real-time Memory Report at c_bands before calling an iterative solver
           153 MiB given to the printing process from OS
            75 MiB allocation reported by mallinfo(arena+hblkhd)
        483179 MiB available memory on the node where the printing process lives
------------------
     ethr =  4.32E-07,  avg # of iterations =  4.3

     negative rho (up, down):  1.623E+00 2.398E-01

     total cpu time spent up to now is     2607.7 secs

     WARNING: integrated charge=    32.00244297, expected=    32.00000000

     total energy              =    -913.17746622 Ry
     estimated scf accuracy    <       0.00381402 Ry

     total magnetization       =    -0.00 Bohr mag/cell
     absolute magnetization    =     3.16 Bohr mag/cell

     iteration #487     ecut=    60.00 Ry     beta= 0.40
     Davidson diagonalization with overlap

---- Real-time Memory Report at c_bands before calling an iterative solver
           153 MiB given to the printing process from OS
            75 MiB allocation reported by mallinfo(arena+hblkhd)
        483178 MiB available memory on the node where the printing process lives
------------------
     ethr =  4.32E-07,  avg # of iterations =  3.6

     negative rho (up, down):  1.641E+00 2.148E-01

     total cpu time spent up to now is     2614.7 secs

     WARNING: integrated charge=    32.00244548, expected=    32.00000000

     total energy              =    -913.17861824 Ry
     estimated scf accuracy    <       0.01301897 Ry

     total magnetization       =    -0.00 Bohr mag/cell
     absolute magnetization    =     3.36 Bohr mag/cell

     iteration #488     ecut=    60.00 Ry     beta= 0.40
     Davidson diagonalization with overlap

---- Real-time Memory Report at c_bands before calling an iterative solver
           153 MiB given to the printing process from OS
            75 MiB allocation reported by mallinfo(arena+hblkhd)
        483178 MiB available memory on the node where the printing process lives
------------------
     ethr =  4.32E-07,  avg # of iterations =  4.9

     negative rho (up, down):  1.582E+00 3.020E-01

     total cpu time spent up to now is     2622.4 secs

     WARNING: integrated charge=    32.00243959, expected=    32.00000000

     total energy              =    -913.17606361 Ry
     estimated scf accuracy    <       0.02223966 Ry

     total magnetization       =    -0.00 Bohr mag/cell
     absolute magnetization    =     3.08 Bohr mag/cell

     iteration #489     ecut=    60.00 Ry     beta= 0.40
     Davidson diagonalization with overlap

---- Real-time Memory Report at c_bands before calling an iterative solver
           153 MiB given to the printing process from OS
            75 MiB allocation reported by mallinfo(arena+hblkhd)
        483179 MiB available memory on the node where the printing process lives
------------------
     ethr =  4.32E-07,  avg # of iterations =  4.4

     negative rho (up, down):  1.605E+00 2.653E-01

     total cpu time spent up to now is     2630.0 secs

     WARNING: integrated charge=    32.00244212, expected=    32.00000000

     total energy              =    -913.17653221 Ry
     estimated scf accuracy    <       0.00836084 Ry

     total magnetization       =    -0.00 Bohr mag/cell
     absolute magnetization    =     3.34 Bohr mag/cell

     iteration #490     ecut=    60.00 Ry     beta= 0.40
     Davidson diagonalization with overlap

---- Real-time Memory Report at c_bands before calling an iterative solver
           153 MiB given to the printing process from OS
            75 MiB allocation reported by mallinfo(arena+hblkhd)
        483180 MiB available memory on the node where the printing process lives
------------------
     ethr =  4.32E-07,  avg # of iterations =  3.9

     negative rho (up, down):  1.600E+00 2.728E-01

     total cpu time spent up to now is     2636.5 secs

     WARNING: integrated charge=    32.00244122, expected=    32.00000000

     total energy              =    -913.17653778 Ry
     estimated scf accuracy    <       0.00049871 Ry

     total magnetization       =    -0.00 Bohr mag/cell
     absolute magnetization    =     3.22 Bohr mag/cell

     iteration #491     ecut=    60.00 Ry     beta= 0.40
     Davidson diagonalization with overlap

---- Real-time Memory Report at c_bands before calling an iterative solver
           153 MiB given to the printing process from OS
            75 MiB allocation reported by mallinfo(arena+hblkhd)
        483180 MiB available memory on the node where the printing process lives
------------------
     ethr =  4.32E-07,  avg # of iterations =  1.9

     negative rho (up, down):  1.601E+00 2.713E-01

     total cpu time spent up to now is     2641.6 secs

     WARNING: integrated charge=    32.00244254, expected=    32.00000000

     total energy              =    -913.17661086 Ry
     estimated scf accuracy    <       0.00093244 Ry

     total magnetization       =    -0.00 Bohr mag/cell
     absolute magnetization    =     3.22 Bohr mag/cell

     iteration #492     ecut=    60.00 Ry     beta= 0.40
     Davidson diagonalization with overlap

---- Real-time Memory Report at c_bands before calling an iterative solver
           153 MiB given to the printing process from OS
            75 MiB allocation reported by mallinfo(arena+hblkhd)
        483179 MiB available memory on the node where the printing process lives
------------------
     ethr =  4.32E-07,  avg # of iterations =  1.0

     negative rho (up, down):  1.599E+00 2.748E-01

     total cpu time spent up to now is     2646.0 secs

     WARNING: integrated charge=    32.00244235, expected=    32.00000000

     total energy              =    -913.17647797 Ry
     estimated scf accuracy    <       0.00122765 Ry

     total magnetization       =    -0.00 Bohr mag/cell
     absolute magnetization    =     3.21 Bohr mag/cell

     iteration #493     ecut=    60.00 Ry     beta= 0.40
     Davidson diagonalization with overlap

---- Real-time Memory Report at c_bands before calling an iterative solver
           153 MiB given to the printing process from OS
            75 MiB allocation reported by mallinfo(arena+hblkhd)
        483179 MiB available memory on the node where the printing process lives
------------------
     ethr =  4.32E-07,  avg # of iterations =  1.5

     negative rho (up, down):  1.604E+00 2.680E-01

     total cpu time spent up to now is     2650.8 secs

     WARNING: integrated charge=    32.00244368, expected=    32.00000000

     total energy              =    -913.17660021 Ry
     estimated scf accuracy    <       0.00099339 Ry

     total magnetization       =    -0.00 Bohr mag/cell
     absolute magnetization    =     3.23 Bohr mag/cell

     iteration #494     ecut=    60.00 Ry     beta= 0.40
     Davidson diagonalization with overlap

---- Real-time Memory Report at c_bands before calling an iterative solver
           153 MiB given to the printing process from OS
            75 MiB allocation reported by mallinfo(arena+hblkhd)
        483178 MiB available memory on the node where the printing process lives
------------------
     ethr =  4.32E-07,  avg # of iterations =  2.0

     negative rho (up, down):  1.601E+00 2.718E-01

     total cpu time spent up to now is     2655.7 secs

     WARNING: integrated charge=    32.00244330, expected=    32.00000000

     total energy              =    -913.17658437 Ry
     estimated scf accuracy    <       0.00081119 Ry

     total magnetization       =    -0.00 Bohr mag/cell
     absolute magnetization    =     3.23 Bohr mag/cell

     iteration #495     ecut=    60.00 Ry     beta= 0.40
     Davidson diagonalization with overlap

---- Real-time Memory Report at c_bands before calling an iterative solver
           153 MiB given to the printing process from OS
            75 MiB allocation reported by mallinfo(arena+hblkhd)
        483178 MiB available memory on the node where the printing process lives
------------------
     ethr =  4.32E-07,  avg # of iterations =  1.5

     negative rho (up, down):  1.604E+00 2.667E-01

     total cpu time spent up to now is     2660.6 secs

     WARNING: integrated charge=    32.00244312, expected=    32.00000000

     total energy              =    -913.17665143 Ry
     estimated scf accuracy    <       0.00108324 Ry

     total magnetization       =    -0.00 Bohr mag/cell
     absolute magnetization    =     3.22 Bohr mag/cell

     iteration #496     ecut=    60.00 Ry     beta= 0.40
     Davidson diagonalization with overlap

---- Real-time Memory Report at c_bands before calling an iterative solver
           153 MiB given to the printing process from OS
            75 MiB allocation reported by mallinfo(arena+hblkhd)
        483178 MiB available memory on the node where the printing process lives
------------------
     ethr =  4.32E-07,  avg # of iterations =  1.5

     negative rho (up, down):  1.605E+00 2.644E-01

     total cpu time spent up to now is     2665.5 secs

     WARNING: integrated charge=    32.00244221, expected=    32.00000000

     total energy              =    -913.17673514 Ry
     estimated scf accuracy    <       0.00072599 Ry

     total magnetization       =    -0.00 Bohr mag/cell
     absolute magnetization    =     3.22 Bohr mag/cell

     iteration #497     ecut=    60.00 Ry     beta= 0.40
     Davidson diagonalization with overlap

---- Real-time Memory Report at c_bands before calling an iterative solver
           153 MiB given to the printing process from OS
            75 MiB allocation reported by mallinfo(arena+hblkhd)
        483178 MiB available memory on the node where the printing process lives
------------------
     ethr =  4.32E-07,  avg # of iterations =  1.5

     negative rho (up, down):  1.612E+00 2.529E-01

     total cpu time spent up to now is     2670.6 secs

     WARNING: integrated charge=    32.00243790, expected=    32.00000000

     total energy              =    -913.17710661 Ry
     estimated scf accuracy    <       0.00049294 Ry

     total magnetization       =    -0.00 Bohr mag/cell
     absolute magnetization    =     3.22 Bohr mag/cell

     iteration #498     ecut=    60.00 Ry     beta= 0.40
     Davidson diagonalization with overlap

---- Real-time Memory Report at c_bands before calling an iterative solver
           153 MiB given to the printing process from OS
            75 MiB allocation reported by mallinfo(arena+hblkhd)
        483178 MiB available memory on the node where the printing process lives
------------------
     ethr =  4.32E-07,  avg # of iterations =  2.0

     negative rho (up, down):  1.610E+00 2.573E-01

     total cpu time spent up to now is     2675.4 secs

     WARNING: integrated charge=    32.00243831, expected=    32.00000000

     total energy              =    -913.17706317 Ry
     estimated scf accuracy    <       0.00079520 Ry

     total magnetization       =    -0.00 Bohr mag/cell
     absolute magnetization    =     3.22 Bohr mag/cell

     iteration #499     ecut=    60.00 Ry     beta= 0.40
     Davidson diagonalization with overlap

---- Real-time Memory Report at c_bands before calling an iterative solver
           153 MiB given to the printing process from OS
            75 MiB allocation reported by mallinfo(arena+hblkhd)
        483183 MiB available memory on the node where the printing process lives
------------------
     ethr =  4.32E-07,  avg # of iterations =  1.0

     negative rho (up, down):  1.612E+00 2.532E-01

     total cpu time spent up to now is     2679.9 secs

     WARNING: integrated charge=    32.00243890, expected=    32.00000000

     total energy              =    -913.17710447 Ry
     estimated scf accuracy    <       0.00042497 Ry

     total magnetization       =    -0.00 Bohr mag/cell
     absolute magnetization    =     3.24 Bohr mag/cell

     iteration #500     ecut=    60.00 Ry     beta= 0.40
     Davidson diagonalization with overlap

---- Real-time Memory Report at c_bands before calling an iterative solver
           153 MiB given to the printing process from OS
            75 MiB allocation reported by mallinfo(arena+hblkhd)
        483183 MiB available memory on the node where the printing process lives
------------------
     ethr =  4.32E-07,  avg # of iterations =  1.0

     negative rho (up, down):  1.617E+00 2.467E-01

     total cpu time spent up to now is     2684.4 secs

     WARNING: integrated charge=    32.00244189, expected=    32.00000000

     total energy              =    -913.17727260 Ry
     estimated scf accuracy    <       0.00070170 Ry

     total magnetization       =    -0.00 Bohr mag/cell
     absolute magnetization    =     3.23 Bohr mag/cell

     End of self-consistent calculation

     convergence NOT achieved after 500 iterations: stopping

     Writing config to output data dir ./out/aiida.save/ :
     XML data file, charge density

     init_run     :      2.96s CPU      3.10s WALL (       1 calls)
     electrons    :   2550.50s CPU   2680.84s WALL (       1 calls)

     Called by init_run:
     wfcinit      :      1.45s CPU      1.52s WALL (       1 calls)
     wfcinit:atom :      0.01s CPU      0.01s WALL (      48 calls)
     wfcinit:wfcr :      1.42s CPU      1.48s WALL (      48 calls)
     potinit      :      0.58s CPU      0.62s WALL (       1 calls)
     hinit0       :      0.65s CPU      0.67s WALL (       1 calls)

     Called by electrons:
     c_bands      :   1929.81s CPU   2015.92s WALL (     500 calls)
     sum_band     :    401.29s CPU    419.61s WALL (     500 calls)
     v_of_rho     :    130.98s CPU    144.77s WALL (     501 calls)
     v_h          :      4.29s CPU      4.44s WALL (     501 calls)
     v_xc         :    126.69s CPU    140.33s WALL (     501 calls)
     newd         :     12.99s CPU     13.98s WALL (     501 calls)
     PAW_pot      :     47.06s CPU     56.05s WALL (     501 calls)
     mix_rho      :      9.13s CPU      9.39s WALL (     500 calls)

     Called by c_bands:
     init_us_2    :     18.35s CPU     19.10s WALL (   48048 calls)
     init_us_2:cp :     18.20s CPU     18.93s WALL (   48048 calls)
     cegterg      :   1762.43s CPU   1836.18s WALL (   24000 calls)

     Called by sum_band:
     sum_band:wei :      1.13s CPU      1.13s WALL (     500 calls)
     sum_band:loo :    371.92s CPU    387.67s WALL (     500 calls)
     sum_band:buf :      2.30s CPU      2.37s WALL (   24000 calls)
     sum_band:ini :      9.29s CPU      9.60s WALL (   24000 calls)
     sum_band:cal :     13.26s CPU     13.59s WALL (   24000 calls)
     sum_band:bec :      0.50s CPU      0.53s WALL (   24000 calls)
     addusdens    :     16.04s CPU     16.36s WALL (     500 calls)
                                        0.00s GPU  (     500 calls)
     addusd:skk   :      0.04s CPU      0.04s WALL (    1500 calls)
                                        0.00s GPU  (    1500 calls)

     Called by *egterg:
     cdiaghg      :     38.69s CPU     39.38s WALL (   82505 calls)
     cegterg:over :     22.32s CPU     22.76s WALL (   58505 calls)
     cegterg:upda :     14.71s CPU     15.00s WALL (   58505 calls)
     cegterg:last :     21.42s CPU     21.71s WALL (   41413 calls)
     h_psi        :   1624.37s CPU   1695.46s WALL (   82553 calls)
     s_psi        :     23.29s CPU     23.70s WALL (   82553 calls)
     g_psi        :      1.66s CPU      1.71s WALL (   58505 calls)

     Called by h_psi:
     h_psi:calbec :     42.74s CPU     43.60s WALL (   82553 calls)
     vloc_psi     :   1551.56s CPU   1621.01s WALL (   82553 calls)
     add_vuspsi   :     25.10s CPU     25.58s WALL (   82553 calls)

     General routines
     calbec       :     55.66s CPU     56.81s WALL (  106553 calls)
     fft          :     39.01s CPU     42.69s WALL (   12523 calls)
     ffts         :      2.32s CPU      2.44s WALL (    2002 calls)
     fftw         :   1507.65s CPU   1580.35s WALL ( 2721616 calls)
     interpolate  :      5.63s CPU      7.19s WALL (    1002 calls)
     davcio       :      0.00s CPU      0.02s WALL (      66 calls)

     Parallel routines

     PAW routines
     PAW_pot      :     47.06s CPU     56.05s WALL (     501 calls)
     PAW_symme    :      0.24s CPU      0.25s WALL (    1001 calls)

     PWSCF        :  42m34.33s CPU  44m45.22s WALL


   This run was terminated on:  21:50:26  28Nov2023            

=------------------------------------------------------------------------------=
   JOB DONE.
=------------------------------------------------------------------------------=
