
     Program PWSCF v.7.2 starts on 23Oct2023 at 20:25:44 

     This program is part of the open-source Quantum ESPRESSO suite
     for quantum simulation of materials; please cite
         "P. Giannozzi et al., J. Phys.:Condens. Matter 21 395502 (2009);
         "P. Giannozzi et al., J. Phys.:Condens. Matter 29 465901 (2017);
         "P. Giannozzi et al., J. Chem. Phys. 152 154105 (2020);
          URL http://www.quantum-espresso.org", 
     in publications or presentations arising from this work. More details at
     http://www.quantum-espresso.org/quote

     Parallel version (MPI & OpenMP), running on      12 processor cores
     Number of MPI processes:                 1
     Threads/MPI process:                    12

     MPI processes distributed on     1 nodes
     60461 MiB available memory on the printing compute node when the environment starts
 
     Reading input from aiida.in

     Current dimensions of program PWSCF are:
     Max number of different atomic species (ntypx) = 10
     Max number of k-points (npk) =  40000
     Max angular momentum in pseudopotentials (lmaxx) =  4
     Message from routine setup:
     using ibrav=0 with symmetry is DISCOURAGED, use correct ibrav instead
 
     Subspace diagonalization in iterative solution of the eigenvalue problem:
     a serial algorithm will be used

 
     G-vector sticks info
     --------------------
     sticks:   dense  smooth     PW     G-vecs:    dense   smooth      PW
     Sum        3949    1969    559               166539    58737    8885
 
     Using Slab Decomposition
 


     bravais-lattice index     =            0
     lattice parameter (alat)  =      10.9302  a.u.
     unit-cell volume          =     937.6980 (a.u.)^3
     number of atoms/cell      =            9
     number of atomic types    =            3
     number of electrons       =        56.00
     number of Kohn-Sham states=           34
     kinetic-energy cutoff     =      60.0000  Ry
     charge density cutoff     =     480.0000  Ry
     scf convergence threshold =      1.8E-09
     mixing beta               =       0.1000
     number of iterations used =            8  plain     mixing
     Exchange-correlation= PBESOL
                           (   1   4  10   8   0   0   0)

     GPU acceleration is ACTIVE.


     GPU used by master process:

        Device Number: 0
        Device name: Tesla P100-PCIE-16GB
        Compute capability : 60
        Ratio of single to double precision performance  : 2
        Memory Clock Rate (KHz): 715000
        Memory Bus Width (bits): 4096
        Peak Memory Bandwidth (GB/s): 732.16

     celldm(1)=  10.930176  celldm(2)=   0.000000  celldm(3)=   0.000000
     celldm(4)=   0.000000  celldm(5)=   0.000000  celldm(6)=   0.000000

     crystal axes: (cart. coord. in units of alat)
               a(1) = (   1.000000   0.000000   0.000000 )  
               a(2) = (  -0.500000   0.866025   0.000000 )  
               a(3) = (   0.000000   0.000000   0.829184 )  

     reciprocal axes: (cart. coord. in units 2 pi/alat)
               b(1) = (  1.000000  0.577350 -0.000000 )  
               b(2) = (  0.000000  1.154701  0.000000 )  
               b(3) = (  0.000000 -0.000000  1.206005 )  


     PseudoPot. # 1 for F  read from file:
     ./pseudo/f_pbesol_v1.4.uspp.F.UPF
     MD5 check sum: d2815ecb49b17b99c5724ffd2f9bbd8d
     Pseudo is Ultrasoft, Zval =  7.0
     Generated by new atomic code, or converted to UPF format
     Using radial grid of  799 points,  4 beta functions with: 
                l(1) =   0
                l(2) =   0
                l(3) =   1
                l(4) =   1
     Q(r) pseudized with  8 coefficients,  rinner =    0.950   0.950   0.950


     PseudoPot. # 2 for N  read from file:
     ./pseudo/N.pbesol-theos.UPF
     MD5 check sum: 1b64827339d390a5a22afef3ff345c9d
     Pseudo is Ultrasoft + core correction, Zval =  5.0
     Generated using "atomic" code by A. Dal Corso  v.5.1
     Using radial grid of 1085 points,  4 beta functions with: 
                l(1) =   0
                l(2) =   0
                l(3) =   1
                l(4) =   1
     Q(r) pseudized with 0 coefficients 


     PseudoPot. # 3 for Si read from file:
     ./pseudo/Si.pbesol-n-rrkjus_psl.1.0.0.UPF
     MD5 check sum: c4212819de858c94c3a1644338846ac9
     Pseudo is Ultrasoft + core correction, Zval =  4.0
     Generated using "atomic" code by A. Dal Corso  v.6.0 svn rev. 13079
     Using radial grid of 1141 points,  6 beta functions with: 
                l(1) =   0
                l(2) =   0
                l(3) =   1
                l(4) =   1
                l(5) =   2
                l(6) =   2
     Q(r) pseudized with 0 coefficients 


     atomic species   valence    mass     pseudopotential
        F              7.00    18.99840     F ( 1.00)
        N              5.00    14.00670     N ( 1.00)
        Si             4.00    28.08550     Si( 1.00)

     Starting magnetic structure 
     atomic species   magnetization
        F            0.100
        N            0.100
        Si           0.100

     12 Sym. Ops., with inversion, found


                                    s                        frac. trans.

      isym =  1     identity                                     

 cryst.   s( 1) = (     1          0          0      )
                  (     0          1          0      )
                  (     0          0          1      )

 cart.    s( 1) = (  1.0000000  0.0000000  0.0000000 )
                  (  0.0000000  1.0000000  0.0000000 )
                  (  0.0000000  0.0000000  1.0000000 )


      isym =  2     180 deg rotation - cart. axis [1,0,0]        

 cryst.   s( 2) = (     1          0          0      )
                  (    -1         -1          0      )
                  (     0          0         -1      )

 cart.    s( 2) = (  1.0000000  0.0000000  0.0000000 )
                  (  0.0000000 -1.0000000  0.0000000 )
                  (  0.0000000  0.0000000 -1.0000000 )


      isym =  3     120 deg rotation - cryst. axis [0,0,1]       

 cryst.   s( 3) = (     0          1          0      )
                  (    -1         -1          0      )
                  (     0          0          1      )

 cart.    s( 3) = ( -0.5000000 -0.8660254  0.0000000 )
                  (  0.8660254 -0.5000000  0.0000000 )
                  (  0.0000000  0.0000000  1.0000000 )


      isym =  4     120 deg rotation - cryst. axis [0,0,-1]      

 cryst.   s( 4) = (    -1         -1          0      )
                  (     1          0          0      )
                  (     0          0          1      )

 cart.    s( 4) = ( -0.5000000  0.8660254  0.0000000 )
                  ( -0.8660254 -0.5000000  0.0000000 )
                  (  0.0000000  0.0000000  1.0000000 )


      isym =  5     180 deg rotation - cryst. axis [0,1,0]       

 cryst.   s( 5) = (    -1         -1          0      )
                  (     0          1          0      )
                  (     0          0         -1      )

 cart.    s( 5) = ( -0.5000000 -0.8660254  0.0000000 )
                  ( -0.8660254  0.5000000  0.0000000 )
                  (  0.0000000  0.0000000 -1.0000000 )


      isym =  6     180 deg rotation - cryst. axis [1,1,0]       

 cryst.   s( 6) = (     0          1          0      )
                  (     1          0          0      )
                  (     0          0         -1      )

 cart.    s( 6) = ( -0.5000000  0.8660254  0.0000000 )
                  (  0.8660254  0.5000000  0.0000000 )
                  (  0.0000000  0.0000000 -1.0000000 )


      isym =  7     inversion                                    

 cryst.   s( 7) = (    -1          0          0      )
                  (     0         -1          0      )
                  (     0          0         -1      )

 cart.    s( 7) = ( -1.0000000  0.0000000  0.0000000 )
                  (  0.0000000 -1.0000000  0.0000000 )
                  (  0.0000000  0.0000000 -1.0000000 )


      isym =  8     inv. 180 deg rotation - cart. axis [1,0,0]   

 cryst.   s( 8) = (    -1          0          0      )
                  (     1          1          0      )
                  (     0          0          1      )

 cart.    s( 8) = ( -1.0000000  0.0000000  0.0000000 )
                  (  0.0000000  1.0000000  0.0000000 )
                  (  0.0000000  0.0000000  1.0000000 )


      isym =  9     inv. 120 deg rotation - cryst. axis [0,0,1]  

 cryst.   s( 9) = (     0         -1          0      )
                  (     1          1          0      )
                  (     0          0         -1      )

 cart.    s( 9) = (  0.5000000  0.8660254  0.0000000 )
                  ( -0.8660254  0.5000000  0.0000000 )
                  (  0.0000000  0.0000000 -1.0000000 )


      isym = 10     inv. 120 deg rotation - cryst. axis [0,0,-1] 

 cryst.   s(10) = (     1          1          0      )
                  (    -1          0          0      )
                  (     0          0         -1      )

 cart.    s(10) = (  0.5000000 -0.8660254  0.0000000 )
                  (  0.8660254  0.5000000  0.0000000 )
                  (  0.0000000  0.0000000 -1.0000000 )


      isym = 11     inv. 180 deg rotation - cryst. axis [0,1,0]  

 cryst.   s(11) = (     1          1          0      )
                  (     0         -1          0      )
                  (     0          0          1      )

 cart.    s(11) = (  0.5000000  0.8660254  0.0000000 )
                  (  0.8660254 -0.5000000  0.0000000 )
                  (  0.0000000  0.0000000  1.0000000 )


      isym = 12     inv. 180 deg rotation - cryst. axis [1,1,0]  

 cryst.   s(12) = (     0         -1          0      )
                  (    -1          0          0      )
                  (     0          0          1      )

 cart.    s(12) = (  0.5000000 -0.8660254  0.0000000 )
                  ( -0.8660254 -0.5000000  0.0000000 )
                  (  0.0000000  0.0000000  1.0000000 )


   Cartesian axes

     site n.     atom                  positions (alat units)
         1           Si  tau(   1) = (   0.0000000   0.0000000   0.0000000  )
         2           N   tau(   2) = (   0.0000000   0.5773503   0.2736307  )
         3           N   tau(   3) = (   0.5000000   0.2886751   0.5555533  )
         4           F   tau(   4) = (   0.2085000   0.1203775   0.1666660  )
         5           F   tau(   5) = (  -0.0000000   0.2407551   0.6625180  )
         6           F   tau(   6) = (  -0.2915000   0.7456479   0.6625180  )
         7           F   tau(   7) = (   0.7915000   0.1203775   0.1666660  )
         8           F   tau(   8) = (   0.5000000   0.6252703   0.1666660  )
         9           F   tau(   9) = (   0.2915000   0.7456479   0.6625180  )

   Crystallographic axes

     site n.     atom                  positions (cryst. coord.)
         1           Si  tau(   1) = (  0.0000000  0.0000000  0.0000000  )
         2           N   tau(   2) = (  0.3333333  0.6666667  0.3300000  )
         3           N   tau(   3) = (  0.6666667  0.3333333  0.6700000  )
         4           F   tau(   4) = (  0.2780000  0.1390000  0.2010000  )
         5           F   tau(   5) = (  0.1390000  0.2780000  0.7990000  )
         6           F   tau(   6) = (  0.1390000  0.8610000  0.7990000  )
         7           F   tau(   7) = (  0.8610000  0.1390000  0.2010000  )
         8           F   tau(   8) = (  0.8610000  0.7220000  0.2010000  )
         9           F   tau(   9) = (  0.7220000  0.8610000  0.7990000  )

     number of k points=    88  Marzari-Vanderbilt smearing, width (Ry)=  0.0100
                       cart. coord. in units 2pi/alat
        k(    1) = (   0.0000000   0.0000000   0.0000000), wk =   0.0013717
        k(    2) = (   0.0000000   0.0000000   0.1340006), wk =   0.0027435
        k(    3) = (   0.0000000   0.0000000   0.2680011), wk =   0.0027435
        k(    4) = (   0.0000000   0.0000000   0.4020017), wk =   0.0027435
        k(    5) = (   0.0000000   0.0000000   0.5360022), wk =   0.0027435
        k(    6) = (   0.0000000   0.1283001   0.0000000), wk =   0.0082305
        k(    7) = (   0.0000000   0.1283001   0.1340006), wk =   0.0082305
        k(    8) = (   0.0000000   0.1283001   0.2680011), wk =   0.0082305
        k(    9) = (   0.0000000   0.1283001   0.4020017), wk =   0.0082305
        k(   10) = (   0.0000000   0.1283001   0.5360022), wk =   0.0082305
        k(   11) = (   0.0000000   0.2566001   0.0000000), wk =   0.0082305
        k(   12) = (   0.0000000   0.2566001   0.1340006), wk =   0.0082305
        k(   13) = (   0.0000000   0.2566001   0.2680011), wk =   0.0082305
        k(   14) = (   0.0000000   0.2566001   0.4020017), wk =   0.0082305
        k(   15) = (   0.0000000   0.2566001   0.5360022), wk =   0.0082305
        k(   16) = (   0.0000000   0.3849002   0.0000000), wk =   0.0082305
        k(   17) = (   0.0000000   0.3849002   0.1340006), wk =   0.0082305
        k(   18) = (   0.0000000   0.3849002   0.2680011), wk =   0.0082305
        k(   19) = (   0.0000000   0.3849002   0.4020017), wk =   0.0082305
        k(   20) = (   0.0000000   0.3849002   0.5360022), wk =   0.0082305
        k(   21) = (   0.0000000   0.5132002   0.0000000), wk =   0.0082305
        k(   22) = (   0.0000000   0.5132002   0.1340006), wk =   0.0082305
        k(   23) = (   0.0000000   0.5132002   0.2680011), wk =   0.0082305
        k(   24) = (   0.0000000   0.5132002   0.4020017), wk =   0.0082305
        k(   25) = (   0.0000000   0.5132002   0.5360022), wk =   0.0082305
        k(   26) = (   0.1111111   0.1924501   0.0000000), wk =   0.0082305
        k(   27) = (   0.1111111   0.1924501   0.1340006), wk =   0.0164609
        k(   28) = (   0.1111111   0.1924501   0.2680011), wk =   0.0164609
        k(   29) = (   0.1111111   0.1924501   0.4020017), wk =   0.0164609
        k(   30) = (   0.1111111   0.1924501   0.5360022), wk =   0.0164609
        k(   31) = (   0.1111111   0.3207501   0.0000000), wk =   0.0164609
        k(   32) = (   0.1111111   0.3207501   0.1340006), wk =   0.0164609
        k(   33) = (   0.1111111   0.3207501   0.2680011), wk =   0.0164609
        k(   34) = (   0.1111111   0.3207501   0.4020017), wk =   0.0164609
        k(   35) = (   0.1111111   0.3207501   0.5360022), wk =   0.0164609
        k(   36) = (   0.1111111   0.4490502   0.0000000), wk =   0.0164609
        k(   37) = (   0.1111111   0.4490502   0.1340006), wk =   0.0164609
        k(   38) = (   0.1111111   0.4490502   0.2680011), wk =   0.0164609
        k(   39) = (   0.1111111   0.4490502   0.4020017), wk =   0.0164609
        k(   40) = (   0.1111111   0.4490502   0.5360022), wk =   0.0164609
        k(   41) = (   0.1111111   0.5773503   0.0000000), wk =   0.0082305
        k(   42) = (   0.1111111   0.5773503   0.1340006), wk =   0.0164609
        k(   43) = (   0.1111111   0.5773503   0.2680011), wk =   0.0164609
        k(   44) = (   0.1111111   0.5773503   0.4020017), wk =   0.0164609
        k(   45) = (   0.1111111   0.5773503   0.5360022), wk =   0.0164609
        k(   46) = (   0.2222222   0.3849002   0.0000000), wk =   0.0082305
        k(   47) = (   0.2222222   0.3849002   0.1340006), wk =   0.0164609
        k(   48) = (   0.2222222   0.3849002   0.2680011), wk =   0.0164609
        k(   49) = (   0.2222222   0.3849002   0.4020017), wk =   0.0164609
        k(   50) = (   0.2222222   0.3849002   0.5360022), wk =   0.0164609
        k(   51) = (   0.2222222   0.5132002   0.0000000), wk =   0.0164609
        k(   52) = (   0.2222222   0.5132002   0.1340006), wk =   0.0164609
        k(   53) = (   0.2222222   0.5132002   0.2680011), wk =   0.0164609
        k(   54) = (   0.2222222   0.5132002   0.4020017), wk =   0.0164609
        k(   55) = (   0.2222222   0.5132002   0.5360022), wk =   0.0164609
        k(   56) = (   0.3333333   0.5773503   0.0000000), wk =   0.0027435
        k(   57) = (   0.3333333   0.5773503   0.1340006), wk =   0.0054870
        k(   58) = (   0.3333333   0.5773503   0.2680011), wk =   0.0054870
        k(   59) = (   0.3333333   0.5773503   0.4020017), wk =   0.0054870
        k(   60) = (   0.3333333   0.5773503   0.5360022), wk =   0.0054870
        k(   61) = (   0.0000000   0.1283001  -0.1340006), wk =   0.0082305
        k(   62) = (   0.0000000   0.1283001  -0.2680011), wk =   0.0082305
        k(   63) = (   0.0000000   0.1283001  -0.4020017), wk =   0.0082305
        k(   64) = (   0.0000000   0.1283001  -0.5360022), wk =   0.0082305
        k(   65) = (   0.0000000   0.2566001  -0.1340006), wk =   0.0082305
        k(   66) = (   0.0000000   0.2566001  -0.2680011), wk =   0.0082305
        k(   67) = (   0.0000000   0.2566001  -0.4020017), wk =   0.0082305
        k(   68) = (   0.0000000   0.2566001  -0.5360022), wk =   0.0082305
        k(   69) = (   0.0000000   0.3849002  -0.1340006), wk =   0.0082305
        k(   70) = (   0.0000000   0.3849002  -0.2680011), wk =   0.0082305
        k(   71) = (   0.0000000   0.3849002  -0.4020017), wk =   0.0082305
        k(   72) = (   0.0000000   0.3849002  -0.5360022), wk =   0.0082305
        k(   73) = (   0.0000000   0.5132002  -0.1340006), wk =   0.0082305
        k(   74) = (   0.0000000   0.5132002  -0.2680011), wk =   0.0082305
        k(   75) = (   0.0000000   0.5132002  -0.4020017), wk =   0.0082305
        k(   76) = (   0.0000000   0.5132002  -0.5360022), wk =   0.0082305
        k(   77) = (  -0.1111111   0.3207501  -0.1340006), wk =   0.0164609
        k(   78) = (  -0.1111111   0.3207501  -0.2680011), wk =   0.0164609
        k(   79) = (  -0.1111111   0.3207501  -0.4020017), wk =   0.0164609
        k(   80) = (  -0.1111111   0.3207501  -0.5360022), wk =   0.0164609
        k(   81) = (  -0.1111111   0.4490502  -0.1340006), wk =   0.0164609
        k(   82) = (  -0.1111111   0.4490502  -0.2680011), wk =   0.0164609
        k(   83) = (  -0.1111111   0.4490502  -0.4020017), wk =   0.0164609
        k(   84) = (  -0.1111111   0.4490502  -0.5360022), wk =   0.0164609
        k(   85) = (  -0.2222222   0.5132002  -0.1340006), wk =   0.0164609
        k(   86) = (  -0.2222222   0.5132002  -0.2680011), wk =   0.0164609
        k(   87) = (  -0.2222222   0.5132002  -0.4020017), wk =   0.0164609
        k(   88) = (  -0.2222222   0.5132002  -0.5360022), wk =   0.0164609

                       cryst. coord.
        k(    1) = (   0.0000000   0.0000000   0.0000000), wk =   0.0013717
        k(    2) = (   0.0000000   0.0000000   0.1111111), wk =   0.0027435
        k(    3) = (   0.0000000   0.0000000   0.2222222), wk =   0.0027435
        k(    4) = (   0.0000000   0.0000000   0.3333333), wk =   0.0027435
        k(    5) = (   0.0000000   0.0000000   0.4444444), wk =   0.0027435
        k(    6) = (   0.0000000   0.1111111   0.0000000), wk =   0.0082305
        k(    7) = (   0.0000000   0.1111111   0.1111111), wk =   0.0082305
        k(    8) = (   0.0000000   0.1111111   0.2222222), wk =   0.0082305
        k(    9) = (   0.0000000   0.1111111   0.3333333), wk =   0.0082305
        k(   10) = (   0.0000000   0.1111111   0.4444444), wk =   0.0082305
        k(   11) = (   0.0000000   0.2222222   0.0000000), wk =   0.0082305
        k(   12) = (   0.0000000   0.2222222   0.1111111), wk =   0.0082305
        k(   13) = (   0.0000000   0.2222222   0.2222222), wk =   0.0082305
        k(   14) = (   0.0000000   0.2222222   0.3333333), wk =   0.0082305
        k(   15) = (   0.0000000   0.2222222   0.4444444), wk =   0.0082305
        k(   16) = (   0.0000000   0.3333333   0.0000000), wk =   0.0082305
        k(   17) = (   0.0000000   0.3333333   0.1111111), wk =   0.0082305
        k(   18) = (   0.0000000   0.3333333   0.2222222), wk =   0.0082305
        k(   19) = (   0.0000000   0.3333333   0.3333333), wk =   0.0082305
        k(   20) = (   0.0000000   0.3333333   0.4444444), wk =   0.0082305
        k(   21) = (   0.0000000   0.4444444   0.0000000), wk =   0.0082305
        k(   22) = (   0.0000000   0.4444444   0.1111111), wk =   0.0082305
        k(   23) = (   0.0000000   0.4444444   0.2222222), wk =   0.0082305
        k(   24) = (   0.0000000   0.4444444   0.3333333), wk =   0.0082305
        k(   25) = (   0.0000000   0.4444444   0.4444444), wk =   0.0082305
        k(   26) = (   0.1111111   0.1111111   0.0000000), wk =   0.0082305
        k(   27) = (   0.1111111   0.1111111   0.1111111), wk =   0.0164609
        k(   28) = (   0.1111111   0.1111111   0.2222222), wk =   0.0164609
        k(   29) = (   0.1111111   0.1111111   0.3333333), wk =   0.0164609
        k(   30) = (   0.1111111   0.1111111   0.4444444), wk =   0.0164609
        k(   31) = (   0.1111111   0.2222222   0.0000000), wk =   0.0164609
        k(   32) = (   0.1111111   0.2222222   0.1111111), wk =   0.0164609
        k(   33) = (   0.1111111   0.2222222   0.2222222), wk =   0.0164609
        k(   34) = (   0.1111111   0.2222222   0.3333333), wk =   0.0164609
        k(   35) = (   0.1111111   0.2222222   0.4444444), wk =   0.0164609
        k(   36) = (   0.1111111   0.3333333   0.0000000), wk =   0.0164609
        k(   37) = (   0.1111111   0.3333333   0.1111111), wk =   0.0164609
        k(   38) = (   0.1111111   0.3333333   0.2222222), wk =   0.0164609
        k(   39) = (   0.1111111   0.3333333   0.3333333), wk =   0.0164609
        k(   40) = (   0.1111111   0.3333333   0.4444444), wk =   0.0164609
        k(   41) = (   0.1111111   0.4444444   0.0000000), wk =   0.0082305
        k(   42) = (   0.1111111   0.4444444   0.1111111), wk =   0.0164609
        k(   43) = (   0.1111111   0.4444444   0.2222222), wk =   0.0164609
        k(   44) = (   0.1111111   0.4444444   0.3333333), wk =   0.0164609
        k(   45) = (   0.1111111   0.4444444   0.4444444), wk =   0.0164609
        k(   46) = (   0.2222222   0.2222222   0.0000000), wk =   0.0082305
        k(   47) = (   0.2222222   0.2222222   0.1111111), wk =   0.0164609
        k(   48) = (   0.2222222   0.2222222   0.2222222), wk =   0.0164609
        k(   49) = (   0.2222222   0.2222222   0.3333333), wk =   0.0164609
        k(   50) = (   0.2222222   0.2222222   0.4444444), wk =   0.0164609
        k(   51) = (   0.2222222   0.3333333   0.0000000), wk =   0.0164609
        k(   52) = (   0.2222222   0.3333333   0.1111111), wk =   0.0164609
        k(   53) = (   0.2222222   0.3333333   0.2222222), wk =   0.0164609
        k(   54) = (   0.2222222   0.3333333   0.3333333), wk =   0.0164609
        k(   55) = (   0.2222222   0.3333333   0.4444444), wk =   0.0164609
        k(   56) = (   0.3333333   0.3333333   0.0000000), wk =   0.0027435
        k(   57) = (   0.3333333   0.3333333   0.1111111), wk =   0.0054870
        k(   58) = (   0.3333333   0.3333333   0.2222222), wk =   0.0054870
        k(   59) = (   0.3333333   0.3333333   0.3333333), wk =   0.0054870
        k(   60) = (   0.3333333   0.3333333   0.4444444), wk =   0.0054870
        k(   61) = (   0.0000000   0.1111111  -0.1111111), wk =   0.0082305
        k(   62) = (   0.0000000   0.1111111  -0.2222222), wk =   0.0082305
        k(   63) = (   0.0000000   0.1111111  -0.3333333), wk =   0.0082305
        k(   64) = (   0.0000000   0.1111111  -0.4444444), wk =   0.0082305
        k(   65) = (   0.0000000   0.2222222  -0.1111111), wk =   0.0082305
        k(   66) = (   0.0000000   0.2222222  -0.2222222), wk =   0.0082305
        k(   67) = (   0.0000000   0.2222222  -0.3333333), wk =   0.0082305
        k(   68) = (   0.0000000   0.2222222  -0.4444444), wk =   0.0082305
        k(   69) = (   0.0000000   0.3333333  -0.1111111), wk =   0.0082305
        k(   70) = (   0.0000000   0.3333333  -0.2222222), wk =   0.0082305
        k(   71) = (   0.0000000   0.3333333  -0.3333333), wk =   0.0082305
        k(   72) = (   0.0000000   0.3333333  -0.4444444), wk =   0.0082305
        k(   73) = (   0.0000000   0.4444444  -0.1111111), wk =   0.0082305
        k(   74) = (   0.0000000   0.4444444  -0.2222222), wk =   0.0082305
        k(   75) = (   0.0000000   0.4444444  -0.3333333), wk =   0.0082305
        k(   76) = (   0.0000000   0.4444444  -0.4444444), wk =   0.0082305
        k(   77) = (  -0.1111111   0.3333333  -0.1111111), wk =   0.0164609
        k(   78) = (  -0.1111111   0.3333333  -0.2222222), wk =   0.0164609
        k(   79) = (  -0.1111111   0.3333333  -0.3333333), wk =   0.0164609
        k(   80) = (  -0.1111111   0.3333333  -0.4444444), wk =   0.0164609
        k(   81) = (  -0.1111111   0.4444444  -0.1111111), wk =   0.0164609
        k(   82) = (  -0.1111111   0.4444444  -0.2222222), wk =   0.0164609
        k(   83) = (  -0.1111111   0.4444444  -0.3333333), wk =   0.0164609
        k(   84) = (  -0.1111111   0.4444444  -0.4444444), wk =   0.0164609
        k(   85) = (  -0.2222222   0.5555556  -0.1111111), wk =   0.0164609
        k(   86) = (  -0.2222222   0.5555556  -0.2222222), wk =   0.0164609
        k(   87) = (  -0.2222222   0.5555556  -0.3333333), wk =   0.0164609
        k(   88) = (  -0.2222222   0.5555556  -0.4444444), wk =   0.0164609

     Dense  grid:   166539 G-vectors     FFT dimensions: (  80,  80,  64)

     Smooth grid:    58737 G-vectors     FFT dimensions: (  54,  54,  45)

     Dynamical RAM for                 wfc:       3.82 MB

     Dynamical RAM for     wfc (w. buffer):     675.76 MB

     Dynamical RAM for           str. fact:       7.62 MB

     Dynamical RAM for           local pot:       0.00 MB

     Dynamical RAM for          nlocal pot:       9.21 MB

     Dynamical RAM for                qrad:       5.27 MB

     Dynamical RAM for          rho,v,vnew:      34.00 MB

     Dynamical RAM for               rhoin:      11.33 MB

     Dynamical RAM for            rho*nmix:      81.32 MB

     Dynamical RAM for           G-vectors:       9.98 MB

     Dynamical RAM for          h,s,v(r/c):       0.21 MB

     Dynamical RAM for          <psi|beta>:       0.04 MB

     Dynamical RAM for                 psi:       7.64 MB

     Dynamical RAM for                hpsi:       7.64 MB

     Dynamical RAM for                spsi:       7.64 MB

     Dynamical RAM for      wfcinit/wfcrot:       7.66 MB

     Dynamical RAM for           addusdens:     490.45 MB

     Dynamical RAM for          addusforce:     515.91 MB

     Dynamical RAM for         addusstress:     514.59 MB

     Estimated static dynamical RAM per process >     782.08 MB

     Estimated max dynamical RAM per process >       1.35 GB

     Atomic positions and unit cell read from directory:
     ./out/aiida.save/
 
     Generating pointlists ...
     new r_m :   0.1208 (alat units)  1.3202 (a.u.) for type    1
     new r_m :   0.2118 (alat units)  2.3155 (a.u.) for type    2
     new r_m :   0.1208 (alat units)  1.3202 (a.u.) for type    3

     The initial density is read from file :
     ./out/aiida.save/charge-density

     Starting wfcs from file

     total cpu time spent up to now is        3.1 secs

     per-process dynamical memory:   464.9 Mb

     Self-consistent Calculation
[tb_dev] Currently allocated     6.87E-05 Mbytes, locked:    0 /   2
[tb_pin] Currently allocated     0.00E+00 Mbytes, locked:    0 /   0

     iteration #  1     ecut=    60.00 Ry     beta= 0.10
     Davidson diagonalization with overlap

---- Real-time Memory Report at c_bands before calling an iterative solver
           597 MiB given to the printing process from OS
           463 MiB allocation reported by mallinfo(arena+hblkhd)
         59741 MiB available memory on the node where the printing process lives
     GPU memory used/free/total (MiB): 846 / 15434 / 16280
------------------
     ethr =  1.00E-05,  avg # of iterations =  1.8

     Threshold (ethr) on eigenvalues was too large:
     Diagonalizing with lowered threshold

     Davidson diagonalization with overlap

---- Real-time Memory Report at c_bands before calling an iterative solver
          1632 MiB given to the printing process from OS
          1451 MiB allocation reported by mallinfo(arena+hblkhd)
         57591 MiB available memory on the node where the printing process lives
     GPU memory used/free/total (MiB): 1792 / 14488 / 16280
------------------
     ethr =  2.51E-07,  avg # of iterations =  1.0

     total cpu time spent up to now is       13.7 secs

     total energy              =    -342.05295785 Ry
     estimated scf accuracy    <       0.00013935 Ry

     total magnetization       =     5.76 Bohr mag/cell
     absolute magnetization    =     5.95 Bohr mag/cell
[tb_dev] Currently allocated     4.10E+00 Mbytes, locked:    0 /   9
[tb_pin] Currently allocated     0.00E+00 Mbytes, locked:    0 /   0

     iteration #  2     ecut=    60.00 Ry     beta= 0.10
     Davidson diagonalization with overlap

---- Real-time Memory Report at c_bands before calling an iterative solver
          1672 MiB given to the printing process from OS
          1456 MiB allocation reported by mallinfo(arena+hblkhd)
         57570 MiB available memory on the node where the printing process lives
     GPU memory used/free/total (MiB): 1796 / 14484 / 16280
------------------
     ethr =  2.49E-07,  avg # of iterations =  1.0

     total cpu time spent up to now is       18.1 secs

     total energy              =    -342.05296488 Ry
     estimated scf accuracy    <       0.00043717 Ry

     total magnetization       =     5.66 Bohr mag/cell
     absolute magnetization    =     5.88 Bohr mag/cell
[tb_dev] Currently allocated     4.10E+00 Mbytes, locked:    0 /   9
[tb_pin] Currently allocated     0.00E+00 Mbytes, locked:    0 /   0

     iteration #  3     ecut=    60.00 Ry     beta= 0.10
     Davidson diagonalization with overlap

---- Real-time Memory Report at c_bands before calling an iterative solver
          1678 MiB given to the printing process from OS
          1462 MiB allocation reported by mallinfo(arena+hblkhd)
         57567 MiB available memory on the node where the printing process lives
     GPU memory used/free/total (MiB): 1796 / 14484 / 16280
------------------
     ethr =  2.49E-07,  avg # of iterations =  1.0

     total cpu time spent up to now is       22.7 secs

     total energy              =    -342.05297151 Ry
     estimated scf accuracy    <       0.00006375 Ry

     total magnetization       =     5.72 Bohr mag/cell
     absolute magnetization    =     5.92 Bohr mag/cell
[tb_dev] Currently allocated     4.10E+00 Mbytes, locked:    0 /   9
[tb_pin] Currently allocated     0.00E+00 Mbytes, locked:    0 /   0

     iteration #  4     ecut=    60.00 Ry     beta= 0.10
     Davidson diagonalization with overlap

---- Real-time Memory Report at c_bands before calling an iterative solver
          1682 MiB given to the printing process from OS
          1465 MiB allocation reported by mallinfo(arena+hblkhd)
         57567 MiB available memory on the node where the printing process lives
     GPU memory used/free/total (MiB): 1796 / 14484 / 16280
------------------
     ethr =  1.14E-07,  avg # of iterations =  1.5

     total cpu time spent up to now is       27.5 secs

     total energy              =    -342.05297986 Ry
     estimated scf accuracy    <       0.00001011 Ry

     total magnetization       =     5.70 Bohr mag/cell
     absolute magnetization    =     5.91 Bohr mag/cell
[tb_dev] Currently allocated     4.10E+00 Mbytes, locked:    0 /   9
[tb_pin] Currently allocated     0.00E+00 Mbytes, locked:    0 /   0

     iteration #  5     ecut=    60.00 Ry     beta= 0.10
     Davidson diagonalization with overlap

---- Real-time Memory Report at c_bands before calling an iterative solver
          1685 MiB given to the printing process from OS
          1469 MiB allocation reported by mallinfo(arena+hblkhd)
         57562 MiB available memory on the node where the printing process lives
     GPU memory used/free/total (MiB): 1824 / 14456 / 16280
------------------
     ethr =  1.81E-08,  avg # of iterations =  1.0

     total cpu time spent up to now is       32.1 secs

     total energy              =    -342.05297195 Ry
     estimated scf accuracy    <       0.00000998 Ry

     total magnetization       =     5.70 Bohr mag/cell
     absolute magnetization    =     5.91 Bohr mag/cell
[tb_dev] Currently allocated     4.10E+00 Mbytes, locked:    0 /   9
[tb_pin] Currently allocated     0.00E+00 Mbytes, locked:    0 /   0

     iteration #  6     ecut=    60.00 Ry     beta= 0.10
     Davidson diagonalization with overlap

---- Real-time Memory Report at c_bands before calling an iterative solver
          1689 MiB given to the printing process from OS
          1473 MiB allocation reported by mallinfo(arena+hblkhd)
         57558 MiB available memory on the node where the printing process lives
     GPU memory used/free/total (MiB): 1824 / 14456 / 16280
------------------
     ethr =  1.78E-08,  avg # of iterations =  1.0

     total cpu time spent up to now is       36.6 secs

     total energy              =    -342.05294581 Ry
     estimated scf accuracy    <       0.00001021 Ry

     total magnetization       =     5.71 Bohr mag/cell
     absolute magnetization    =     5.92 Bohr mag/cell
[tb_dev] Currently allocated     4.10E+00 Mbytes, locked:    0 /   9
[tb_pin] Currently allocated     0.00E+00 Mbytes, locked:    0 /   0

     iteration #  7     ecut=    60.00 Ry     beta= 0.10
     Davidson diagonalization with overlap

---- Real-time Memory Report at c_bands before calling an iterative solver
          1692 MiB given to the printing process from OS
          1476 MiB allocation reported by mallinfo(arena+hblkhd)
         57555 MiB available memory on the node where the printing process lives
     GPU memory used/free/total (MiB): 1824 / 14456 / 16280
------------------
     ethr =  1.78E-08,  avg # of iterations =  2.0

     total cpu time spent up to now is       42.3 secs

     total energy              =    -342.05295581 Ry
     estimated scf accuracy    <       0.00000845 Ry

     total magnetization       =     5.76 Bohr mag/cell
     absolute magnetization    =     5.94 Bohr mag/cell
[tb_dev] Currently allocated     4.10E+00 Mbytes, locked:    0 /   9
[tb_pin] Currently allocated     0.00E+00 Mbytes, locked:    0 /   0

     iteration #  8     ecut=    60.00 Ry     beta= 0.10
     Davidson diagonalization with overlap

---- Real-time Memory Report at c_bands before calling an iterative solver
          1696 MiB given to the printing process from OS
          1480 MiB allocation reported by mallinfo(arena+hblkhd)
         57552 MiB available memory on the node where the printing process lives
     GPU memory used/free/total (MiB): 1824 / 14456 / 16280
------------------
     ethr =  1.51E-08,  avg # of iterations =  2.0

     total cpu time spent up to now is       48.0 secs

     total energy              =    -342.05275086 Ry
     estimated scf accuracy    <       0.00004265 Ry

     total magnetization       =     5.72 Bohr mag/cell
     absolute magnetization    =     5.93 Bohr mag/cell
[tb_dev] Currently allocated     4.10E+00 Mbytes, locked:    0 /   9
[tb_pin] Currently allocated     0.00E+00 Mbytes, locked:    0 /   0

     iteration #  9     ecut=    60.00 Ry     beta= 0.10
     Davidson diagonalization with overlap

---- Real-time Memory Report at c_bands before calling an iterative solver
          1700 MiB given to the printing process from OS
          1484 MiB allocation reported by mallinfo(arena+hblkhd)
         57548 MiB available memory on the node where the printing process lives
     GPU memory used/free/total (MiB): 1824 / 14456 / 16280
------------------
     ethr =  1.51E-08,  avg # of iterations =  3.0

     total cpu time spent up to now is       54.9 secs

     total energy              =    -342.05293125 Ry
     estimated scf accuracy    <       0.00004740 Ry

     total magnetization       =     5.89 Bohr mag/cell
     absolute magnetization    =     6.00 Bohr mag/cell
[tb_dev] Currently allocated     4.10E+00 Mbytes, locked:    0 /   9
[tb_pin] Currently allocated     0.00E+00 Mbytes, locked:    0 /   0

     iteration # 10     ecut=    60.00 Ry     beta= 0.10
     Davidson diagonalization with overlap

---- Real-time Memory Report at c_bands before calling an iterative solver
          1703 MiB given to the printing process from OS
          1487 MiB allocation reported by mallinfo(arena+hblkhd)
         57546 MiB available memory on the node where the printing process lives
     GPU memory used/free/total (MiB): 1856 / 14424 / 16280
------------------
     ethr =  1.51E-08,  avg # of iterations =  1.0

     total cpu time spent up to now is       59.4 secs

     total energy              =    -342.05221580 Ry
     estimated scf accuracy    <       0.00008163 Ry

     total magnetization       =     5.89 Bohr mag/cell
     absolute magnetization    =     6.00 Bohr mag/cell
[tb_dev] Currently allocated     4.10E+00 Mbytes, locked:    0 /   9
[tb_pin] Currently allocated     0.00E+00 Mbytes, locked:    0 /   0

     iteration # 11     ecut=    60.00 Ry     beta= 0.10
     Davidson diagonalization with overlap

---- Real-time Memory Report at c_bands before calling an iterative solver
          1703 MiB given to the printing process from OS
          1487 MiB allocation reported by mallinfo(arena+hblkhd)
         57546 MiB available memory on the node where the printing process lives
     GPU memory used/free/total (MiB): 1856 / 14424 / 16280
------------------
     ethr =  1.51E-08,  avg # of iterations =  4.5

     total cpu time spent up to now is       68.1 secs

     total energy              =    -342.05285046 Ry
     estimated scf accuracy    <       0.00077859 Ry

     total magnetization       =     6.22 Bohr mag/cell
     absolute magnetization    =     6.27 Bohr mag/cell
[tb_dev] Currently allocated     4.10E+00 Mbytes, locked:    0 /   9
[tb_pin] Currently allocated     0.00E+00 Mbytes, locked:    0 /   0

     iteration # 12     ecut=    60.00 Ry     beta= 0.10
     Davidson diagonalization with overlap

---- Real-time Memory Report at c_bands before calling an iterative solver
          1703 MiB given to the printing process from OS
          1487 MiB allocation reported by mallinfo(arena+hblkhd)
         57547 MiB available memory on the node where the printing process lives
     GPU memory used/free/total (MiB): 1856 / 14424 / 16280
------------------
     ethr =  1.51E-08,  avg # of iterations =  2.5

     total cpu time spent up to now is       74.4 secs

     total energy              =    -342.05275990 Ry
     estimated scf accuracy    <       0.00040422 Ry

     total magnetization       =     6.13 Bohr mag/cell
     absolute magnetization    =     6.18 Bohr mag/cell
[tb_dev] Currently allocated     4.10E+00 Mbytes, locked:    0 /   9
[tb_pin] Currently allocated     0.00E+00 Mbytes, locked:    0 /   0

     iteration # 13     ecut=    60.00 Ry     beta= 0.10
     Davidson diagonalization with overlap

---- Real-time Memory Report at c_bands before calling an iterative solver
          1703 MiB given to the printing process from OS
          1487 MiB allocation reported by mallinfo(arena+hblkhd)
         57547 MiB available memory on the node where the printing process lives
     GPU memory used/free/total (MiB): 1856 / 14424 / 16280
------------------
     ethr =  1.51E-08,  avg # of iterations =  3.3

     total cpu time spent up to now is       81.5 secs

     total energy              =    -342.05223978 Ry
     estimated scf accuracy    <       0.00012522 Ry

     total magnetization       =     5.96 Bohr mag/cell
     absolute magnetization    =     6.04 Bohr mag/cell
[tb_dev] Currently allocated     4.10E+00 Mbytes, locked:    0 /   9
[tb_pin] Currently allocated     0.00E+00 Mbytes, locked:    0 /   0

     iteration # 14     ecut=    60.00 Ry     beta= 0.10
     Davidson diagonalization with overlap

---- Real-time Memory Report at c_bands before calling an iterative solver
          1703 MiB given to the printing process from OS
          1487 MiB allocation reported by mallinfo(arena+hblkhd)
         57546 MiB available memory on the node where the printing process lives
     GPU memory used/free/total (MiB): 1856 / 14424 / 16280
------------------
     ethr =  1.51E-08,  avg # of iterations =  4.3

     total cpu time spent up to now is       90.0 secs

     total energy              =    -342.05283673 Ry
     estimated scf accuracy    <       0.00087807 Ry

     total magnetization       =     5.62 Bohr mag/cell
     absolute magnetization    =     5.95 Bohr mag/cell
[tb_dev] Currently allocated     4.10E+00 Mbytes, locked:    0 /   9
[tb_pin] Currently allocated     0.00E+00 Mbytes, locked:    0 /   0

     iteration # 15     ecut=    60.00 Ry     beta= 0.10
     Davidson diagonalization with overlap

---- Real-time Memory Report at c_bands before calling an iterative solver
          1703 MiB given to the printing process from OS
          1487 MiB allocation reported by mallinfo(arena+hblkhd)
         57548 MiB available memory on the node where the printing process lives
     GPU memory used/free/total (MiB): 1856 / 14424 / 16280
------------------
     ethr =  1.51E-08,  avg # of iterations =  3.0

     total cpu time spent up to now is       96.8 secs

     total energy              =    -342.05289717 Ry
     estimated scf accuracy    <       0.00023123 Ry

     total magnetization       =     5.75 Bohr mag/cell
     absolute magnetization    =     5.96 Bohr mag/cell
[tb_dev] Currently allocated     4.10E+00 Mbytes, locked:    0 /   9
[tb_pin] Currently allocated     0.00E+00 Mbytes, locked:    0 /   0

     iteration # 16     ecut=    60.00 Ry     beta= 0.10
     Davidson diagonalization with overlap

---- Real-time Memory Report at c_bands before calling an iterative solver
          1703 MiB given to the printing process from OS
          1487 MiB allocation reported by mallinfo(arena+hblkhd)
         57548 MiB available memory on the node where the printing process lives
     GPU memory used/free/total (MiB): 1856 / 14424 / 16280
------------------
     ethr =  1.51E-08,  avg # of iterations =  2.7

     total cpu time spent up to now is      103.2 secs

     total energy              =    -342.05295349 Ry
     estimated scf accuracy    <       0.00007402 Ry

     total magnetization       =     5.83 Bohr mag/cell
     absolute magnetization    =     5.97 Bohr mag/cell
[tb_dev] Currently allocated     4.10E+00 Mbytes, locked:    0 /   9
[tb_pin] Currently allocated     0.00E+00 Mbytes, locked:    0 /   0

     iteration # 17     ecut=    60.00 Ry     beta= 0.10
     Davidson diagonalization with overlap

---- Real-time Memory Report at c_bands before calling an iterative solver
          1703 MiB given to the printing process from OS
          1487 MiB allocation reported by mallinfo(arena+hblkhd)
         57548 MiB available memory on the node where the printing process lives
     GPU memory used/free/total (MiB): 1856 / 14424 / 16280
------------------
     ethr =  1.51E-08,  avg # of iterations =  2.0

     total cpu time spent up to now is      108.7 secs

     total energy              =    -342.05295550 Ry
     estimated scf accuracy    <       0.00009932 Ry

     total magnetization       =     5.79 Bohr mag/cell
     absolute magnetization    =     5.96 Bohr mag/cell
[tb_dev] Currently allocated     4.10E+00 Mbytes, locked:    0 /   9
[tb_pin] Currently allocated     0.00E+00 Mbytes, locked:    0 /   0

     iteration # 18     ecut=    60.00 Ry     beta= 0.10
     Davidson diagonalization with overlap

---- Real-time Memory Report at c_bands before calling an iterative solver
          1703 MiB given to the printing process from OS
          1487 MiB allocation reported by mallinfo(arena+hblkhd)
         57549 MiB available memory on the node where the printing process lives
     GPU memory used/free/total (MiB): 1856 / 14424 / 16280
------------------
     ethr =  1.51E-08,  avg # of iterations =  1.0

     total cpu time spent up to now is      113.1 secs

     total energy              =    -342.05283844 Ry
     estimated scf accuracy    <       0.00006765 Ry

     total magnetization       =     5.80 Bohr mag/cell
     absolute magnetization    =     5.96 Bohr mag/cell
[tb_dev] Currently allocated     4.10E+00 Mbytes, locked:    0 /   9
[tb_pin] Currently allocated     0.00E+00 Mbytes, locked:    0 /   0

     iteration # 19     ecut=    60.00 Ry     beta= 0.10
     Davidson diagonalization with overlap

---- Real-time Memory Report at c_bands before calling an iterative solver
          1704 MiB given to the printing process from OS
          1487 MiB allocation reported by mallinfo(arena+hblkhd)
         57547 MiB available memory on the node where the printing process lives
     GPU memory used/free/total (MiB): 1856 / 14424 / 16280
------------------
     ethr =  1.51E-08,  avg # of iterations =  3.0

     total cpu time spent up to now is      119.9 secs

     total energy              =    -342.05292913 Ry
     estimated scf accuracy    <       0.00002961 Ry

     total magnetization       =     5.91 Bohr mag/cell
     absolute magnetization    =     6.00 Bohr mag/cell
[tb_dev] Currently allocated     4.10E+00 Mbytes, locked:    0 /   9
[tb_pin] Currently allocated     0.00E+00 Mbytes, locked:    0 /   0

     iteration # 20     ecut=    60.00 Ry     beta= 0.10
     Davidson diagonalization with overlap

---- Real-time Memory Report at c_bands before calling an iterative solver
          1704 MiB given to the printing process from OS
          1487 MiB allocation reported by mallinfo(arena+hblkhd)
         57549 MiB available memory on the node where the printing process lives
     GPU memory used/free/total (MiB): 1856 / 14424 / 16280
------------------
     ethr =  1.51E-08,  avg # of iterations =  1.0

     total cpu time spent up to now is      124.3 secs

     total energy              =    -342.05292513 Ry
     estimated scf accuracy    <       0.00003487 Ry

     total magnetization       =     5.89 Bohr mag/cell
     absolute magnetization    =     5.99 Bohr mag/cell
[tb_dev] Currently allocated     4.10E+00 Mbytes, locked:    0 /   9
[tb_pin] Currently allocated     0.00E+00 Mbytes, locked:    0 /   0

     iteration # 21     ecut=    60.00 Ry     beta= 0.10
     Davidson diagonalization with overlap

---- Real-time Memory Report at c_bands before calling an iterative solver
          1704 MiB given to the printing process from OS
          1487 MiB allocation reported by mallinfo(arena+hblkhd)
         57550 MiB available memory on the node where the printing process lives
     GPU memory used/free/total (MiB): 1856 / 14424 / 16280
------------------
     ethr =  1.51E-08,  avg # of iterations =  1.0

     total cpu time spent up to now is      128.7 secs

     total energy              =    -342.05290132 Ry
     estimated scf accuracy    <       0.00003060 Ry

     total magnetization       =     5.90 Bohr mag/cell
     absolute magnetization    =     6.00 Bohr mag/cell
[tb_dev] Currently allocated     4.10E+00 Mbytes, locked:    0 /   9
[tb_pin] Currently allocated     0.00E+00 Mbytes, locked:    0 /   0

     iteration # 22     ecut=    60.00 Ry     beta= 0.10
     Davidson diagonalization with overlap

---- Real-time Memory Report at c_bands before calling an iterative solver
          1704 MiB given to the printing process from OS
          1487 MiB allocation reported by mallinfo(arena+hblkhd)
         57550 MiB available memory on the node where the printing process lives
     GPU memory used/free/total (MiB): 1856 / 14424 / 16280
------------------
     ethr =  1.51E-08,  avg # of iterations =  2.0

     total cpu time spent up to now is      134.5 secs

     total energy              =    -342.05290329 Ry
     estimated scf accuracy    <       0.00002602 Ry

     total magnetization       =     5.95 Bohr mag/cell
     absolute magnetization    =     6.03 Bohr mag/cell
[tb_dev] Currently allocated     4.10E+00 Mbytes, locked:    0 /   9
[tb_pin] Currently allocated     0.00E+00 Mbytes, locked:    0 /   0

     iteration # 23     ecut=    60.00 Ry     beta= 0.10
     Davidson diagonalization with overlap

---- Real-time Memory Report at c_bands before calling an iterative solver
          1704 MiB given to the printing process from OS
          1487 MiB allocation reported by mallinfo(arena+hblkhd)
         57550 MiB available memory on the node where the printing process lives
     GPU memory used/free/total (MiB): 1856 / 14424 / 16280
------------------
     ethr =  1.51E-08,  avg # of iterations =  2.0

     total cpu time spent up to now is      140.4 secs

     total energy              =    -342.05293371 Ry
     estimated scf accuracy    <       0.00003143 Ry

     total magnetization       =     5.89 Bohr mag/cell
     absolute magnetization    =     6.00 Bohr mag/cell
[tb_dev] Currently allocated     4.10E+00 Mbytes, locked:    0 /   9
[tb_pin] Currently allocated     0.00E+00 Mbytes, locked:    0 /   0

     iteration # 24     ecut=    60.00 Ry     beta= 0.10
     Davidson diagonalization with overlap

---- Real-time Memory Report at c_bands before calling an iterative solver
          1704 MiB given to the printing process from OS
          1487 MiB allocation reported by mallinfo(arena+hblkhd)
         57550 MiB available memory on the node where the printing process lives
     GPU memory used/free/total (MiB): 1856 / 14424 / 16280
------------------
     ethr =  1.51E-08,  avg # of iterations =  1.0

     total cpu time spent up to now is      144.9 secs

     total energy              =    -342.05265708 Ry
     estimated scf accuracy    <       0.00004601 Ry

     total magnetization       =     5.88 Bohr mag/cell
     absolute magnetization    =     5.99 Bohr mag/cell
[tb_dev] Currently allocated     4.10E+00 Mbytes, locked:    0 /   9
[tb_pin] Currently allocated     0.00E+00 Mbytes, locked:    0 /   0

     iteration # 25     ecut=    60.00 Ry     beta= 0.10
     Davidson diagonalization with overlap

---- Real-time Memory Report at c_bands before calling an iterative solver
          1704 MiB given to the printing process from OS
          1487 MiB allocation reported by mallinfo(arena+hblkhd)
         57550 MiB available memory on the node where the printing process lives
     GPU memory used/free/total (MiB): 1856 / 14424 / 16280
------------------
     ethr =  1.51E-08,  avg # of iterations =  3.9

     total cpu time spent up to now is      152.5 secs

     total energy              =    -342.05249972 Ry
     estimated scf accuracy    <       0.00005771 Ry

     total magnetization       =     6.06 Bohr mag/cell
     absolute magnetization    =     6.11 Bohr mag/cell
[tb_dev] Currently allocated     4.10E+00 Mbytes, locked:    0 /   9
[tb_pin] Currently allocated     0.00E+00 Mbytes, locked:    0 /   0

     iteration # 26     ecut=    60.00 Ry     beta= 0.10
     Davidson diagonalization with overlap

---- Real-time Memory Report at c_bands before calling an iterative solver
          1704 MiB given to the printing process from OS
          1487 MiB allocation reported by mallinfo(arena+hblkhd)
         57550 MiB available memory on the node where the printing process lives
     GPU memory used/free/total (MiB): 1856 / 14424 / 16280
------------------
     ethr =  1.51E-08,  avg # of iterations =  4.0

     total cpu time spent up to now is      160.5 secs

     total energy              =    -342.05275223 Ry
     estimated scf accuracy    <       0.00032519 Ry

     total magnetization       =     6.26 Bohr mag/cell
     absolute magnetization    =     6.31 Bohr mag/cell
[tb_dev] Currently allocated     4.10E+00 Mbytes, locked:    0 /   9
[tb_pin] Currently allocated     0.00E+00 Mbytes, locked:    0 /   0

     iteration # 27     ecut=    60.00 Ry     beta= 0.10
     Davidson diagonalization with overlap

---- Real-time Memory Report at c_bands before calling an iterative solver
          1704 MiB given to the printing process from OS
          1487 MiB allocation reported by mallinfo(arena+hblkhd)
         57550 MiB available memory on the node where the printing process lives
     GPU memory used/free/total (MiB): 1856 / 14424 / 16280
------------------
     ethr =  1.51E-08,  avg # of iterations =  3.0

     total cpu time spent up to now is      167.3 secs

     total energy              =    -342.05286109 Ry
     estimated scf accuracy    <       0.00010128 Ry

     total magnetization       =     6.13 Bohr mag/cell
     absolute magnetization    =     6.18 Bohr mag/cell
[tb_dev] Currently allocated     4.10E+00 Mbytes, locked:    0 /   9
[tb_pin] Currently allocated     0.00E+00 Mbytes, locked:    0 /   0

     iteration # 28     ecut=    60.00 Ry     beta= 0.10
     Davidson diagonalization with overlap

---- Real-time Memory Report at c_bands before calling an iterative solver
          1704 MiB given to the printing process from OS
          1487 MiB allocation reported by mallinfo(arena+hblkhd)
         57550 MiB available memory on the node where the printing process lives
     GPU memory used/free/total (MiB): 1856 / 14424 / 16280
------------------
     ethr =  1.51E-08,  avg # of iterations =  1.5

     total cpu time spent up to now is      172.0 secs

     total energy              =    -342.05263864 Ry
     estimated scf accuracy    <       0.00011365 Ry

     total magnetization       =     6.15 Bohr mag/cell
     absolute magnetization    =     6.20 Bohr mag/cell
[tb_dev] Currently allocated     4.10E+00 Mbytes, locked:    0 /   9
[tb_pin] Currently allocated     0.00E+00 Mbytes, locked:    0 /   0

     iteration # 29     ecut=    60.00 Ry     beta= 0.10
     Davidson diagonalization with overlap

---- Real-time Memory Report at c_bands before calling an iterative solver
          1704 MiB given to the printing process from OS
          1487 MiB allocation reported by mallinfo(arena+hblkhd)
         57550 MiB available memory on the node where the printing process lives
     GPU memory used/free/total (MiB): 1856 / 14424 / 16280
------------------
     ethr =  1.51E-08,  avg # of iterations =  3.1

     total cpu time spent up to now is      178.9 secs

     total energy              =    -342.05242695 Ry
     estimated scf accuracy    <       0.00038382 Ry

     total magnetization       =     6.29 Bohr mag/cell
     absolute magnetization    =     6.34 Bohr mag/cell
[tb_dev] Currently allocated     4.10E+00 Mbytes, locked:    0 /   9
[tb_pin] Currently allocated     0.00E+00 Mbytes, locked:    0 /   0

     iteration # 30     ecut=    60.00 Ry     beta= 0.10
     Davidson diagonalization with overlap

---- Real-time Memory Report at c_bands before calling an iterative solver
          1704 MiB given to the printing process from OS
          1487 MiB allocation reported by mallinfo(arena+hblkhd)
         57550 MiB available memory on the node where the printing process lives
     GPU memory used/free/total (MiB): 1856 / 14424 / 16280
------------------
     ethr =  1.51E-08,  avg # of iterations =  4.4

     total cpu time spent up to now is      187.3 secs

     total energy              =    -342.05288697 Ry
     estimated scf accuracy    <       0.00004492 Ry

     total magnetization       =     6.04 Bohr mag/cell
     absolute magnetization    =     6.09 Bohr mag/cell
[tb_dev] Currently allocated     4.10E+00 Mbytes, locked:    0 /   9
[tb_pin] Currently allocated     0.00E+00 Mbytes, locked:    0 /   0

     iteration # 31     ecut=    60.00 Ry     beta= 0.10
     Davidson diagonalization with overlap

---- Real-time Memory Report at c_bands before calling an iterative solver
          1704 MiB given to the printing process from OS
          1487 MiB allocation reported by mallinfo(arena+hblkhd)
         57550 MiB available memory on the node where the printing process lives
     GPU memory used/free/total (MiB): 1856 / 14424 / 16280
------------------
     ethr =  1.51E-08,  avg # of iterations =  2.5

     total cpu time spent up to now is      193.6 secs

     total energy              =    -342.05283824 Ry
     estimated scf accuracy    <       0.00005179 Ry

     total magnetization       =     5.99 Bohr mag/cell
     absolute magnetization    =     6.05 Bohr mag/cell
[tb_dev] Currently allocated     4.10E+00 Mbytes, locked:    0 /   9
[tb_pin] Currently allocated     0.00E+00 Mbytes, locked:    0 /   0

     iteration # 32     ecut=    60.00 Ry     beta= 0.10
     Davidson diagonalization with overlap

---- Real-time Memory Report at c_bands before calling an iterative solver
          1704 MiB given to the printing process from OS
          1487 MiB allocation reported by mallinfo(arena+hblkhd)
         57551 MiB available memory on the node where the printing process lives
     GPU memory used/free/total (MiB): 1856 / 14424 / 16280
------------------
     ethr =  1.51E-08,  avg # of iterations =  3.0

     total cpu time spent up to now is      200.5 secs

     total energy              =    -342.05285474 Ry
     estimated scf accuracy    <       0.00007352 Ry

     total magnetization       =     5.87 Bohr mag/cell
     absolute magnetization    =     5.99 Bohr mag/cell
[tb_dev] Currently allocated     4.10E+00 Mbytes, locked:    0 /   9
[tb_pin] Currently allocated     0.00E+00 Mbytes, locked:    0 /   0

     iteration # 33     ecut=    60.00 Ry     beta= 0.10
     Davidson diagonalization with overlap

---- Real-time Memory Report at c_bands before calling an iterative solver
          1704 MiB given to the printing process from OS
          1487 MiB allocation reported by mallinfo(arena+hblkhd)
         57551 MiB available memory on the node where the printing process lives
     GPU memory used/free/total (MiB): 1856 / 14424 / 16280
------------------
     ethr =  1.51E-08,  avg # of iterations =  3.0

     total cpu time spent up to now is      207.3 secs

     total energy              =    -342.05297686 Ry
     estimated scf accuracy    <       0.00024650 Ry

     total magnetization       =     5.74 Bohr mag/cell
     absolute magnetization    =     5.95 Bohr mag/cell
[tb_dev] Currently allocated     4.10E+00 Mbytes, locked:    0 /   9
[tb_pin] Currently allocated     0.00E+00 Mbytes, locked:    0 /   0

     iteration # 34     ecut=    60.00 Ry     beta= 0.10
     Davidson diagonalization with overlap

---- Real-time Memory Report at c_bands before calling an iterative solver
          1704 MiB given to the printing process from OS
          1487 MiB allocation reported by mallinfo(arena+hblkhd)
         57549 MiB available memory on the node where the printing process lives
     GPU memory used/free/total (MiB): 1856 / 14424 / 16280
------------------
     ethr =  1.51E-08,  avg # of iterations =  1.0

     total cpu time spent up to now is      211.8 secs

     total energy              =    -342.05294473 Ry
     estimated scf accuracy    <       0.00017383 Ry

     total magnetization       =     5.76 Bohr mag/cell
     absolute magnetization    =     5.96 Bohr mag/cell
[tb_dev] Currently allocated     4.10E+00 Mbytes, locked:    0 /   9
[tb_pin] Currently allocated     0.00E+00 Mbytes, locked:    0 /   0

     iteration # 35     ecut=    60.00 Ry     beta= 0.10
     Davidson diagonalization with overlap

---- Real-time Memory Report at c_bands before calling an iterative solver
          1704 MiB given to the printing process from OS
          1487 MiB allocation reported by mallinfo(arena+hblkhd)
         57549 MiB available memory on the node where the printing process lives
     GPU memory used/free/total (MiB): 1856 / 14424 / 16280
------------------
     ethr =  1.51E-08,  avg # of iterations =  3.0

     total cpu time spent up to now is      218.7 secs

     total energy              =    -342.05290260 Ry
     estimated scf accuracy    <       0.00058182 Ry

     total magnetization       =     5.64 Bohr mag/cell
     absolute magnetization    =     5.94 Bohr mag/cell
[tb_dev] Currently allocated     4.10E+00 Mbytes, locked:    0 /   9
[tb_pin] Currently allocated     0.00E+00 Mbytes, locked:    0 /   0

     iteration # 36     ecut=    60.00 Ry     beta= 0.10
     Davidson diagonalization with overlap

---- Real-time Memory Report at c_bands before calling an iterative solver
          1704 MiB given to the printing process from OS
          1487 MiB allocation reported by mallinfo(arena+hblkhd)
         57550 MiB available memory on the node where the printing process lives
     GPU memory used/free/total (MiB): 1856 / 14424 / 16280
------------------
     ethr =  1.51E-08,  avg # of iterations =  3.0

     total cpu time spent up to now is      225.4 secs

     total energy              =    -342.05300218 Ry
     estimated scf accuracy    <       0.00019886 Ry

     total magnetization       =     5.74 Bohr mag/cell
     absolute magnetization    =     5.95 Bohr mag/cell
[tb_dev] Currently allocated     4.10E+00 Mbytes, locked:    0 /   9
[tb_pin] Currently allocated     0.00E+00 Mbytes, locked:    0 /   0

     iteration # 37     ecut=    60.00 Ry     beta= 0.10
     Davidson diagonalization with overlap

---- Real-time Memory Report at c_bands before calling an iterative solver
          1704 MiB given to the printing process from OS
          1487 MiB allocation reported by mallinfo(arena+hblkhd)
         57543 MiB available memory on the node where the printing process lives
     GPU memory used/free/total (MiB): 1856 / 14424 / 16280
------------------
     ethr =  1.51E-08,  avg # of iterations =  2.0

     total cpu time spent up to now is      231.2 secs

     total energy              =    -342.05268421 Ry
     estimated scf accuracy    <       0.00033867 Ry

     total magnetization       =     5.69 Bohr mag/cell
     absolute magnetization    =     5.94 Bohr mag/cell
[tb_dev] Currently allocated     4.10E+00 Mbytes, locked:    0 /   9
[tb_pin] Currently allocated     0.00E+00 Mbytes, locked:    0 /   0

     iteration # 38     ecut=    60.00 Ry     beta= 0.10
     Davidson diagonalization with overlap

---- Real-time Memory Report at c_bands before calling an iterative solver
          1704 MiB given to the printing process from OS
          1487 MiB allocation reported by mallinfo(arena+hblkhd)
         57544 MiB available memory on the node where the printing process lives
     GPU memory used/free/total (MiB): 1856 / 14424 / 16280
------------------
     ethr =  1.51E-08,  avg # of iterations =  3.2

     total cpu time spent up to now is      238.2 secs

     total energy              =    -342.05294051 Ry
     estimated scf accuracy    <       0.00005431 Ry

     total magnetization       =     5.86 Bohr mag/cell
     absolute magnetization    =     5.99 Bohr mag/cell
[tb_dev] Currently allocated     4.10E+00 Mbytes, locked:    0 /   9
[tb_pin] Currently allocated     0.00E+00 Mbytes, locked:    0 /   0

     iteration # 39     ecut=    60.00 Ry     beta= 0.10
     Davidson diagonalization with overlap

---- Real-time Memory Report at c_bands before calling an iterative solver
          1704 MiB given to the printing process from OS
          1487 MiB allocation reported by mallinfo(arena+hblkhd)
         57546 MiB available memory on the node where the printing process lives
     GPU memory used/free/total (MiB): 1856 / 14424 / 16280
------------------
     ethr =  1.51E-08,  avg # of iterations =  1.0

     total cpu time spent up to now is      242.7 secs

     total energy              =    -342.05293072 Ry
     estimated scf accuracy    <       0.00004782 Ry

     total magnetization       =     5.85 Bohr mag/cell
     absolute magnetization    =     5.98 Bohr mag/cell
[tb_dev] Currently allocated     4.10E+00 Mbytes, locked:    0 /   9
[tb_pin] Currently allocated     0.00E+00 Mbytes, locked:    0 /   0

     iteration # 40     ecut=    60.00 Ry     beta= 0.10
     Davidson diagonalization with overlap

---- Real-time Memory Report at c_bands before calling an iterative solver
          1704 MiB given to the printing process from OS
          1487 MiB allocation reported by mallinfo(arena+hblkhd)
         57547 MiB available memory on the node where the printing process lives
     GPU memory used/free/total (MiB): 1856 / 14424 / 16280
------------------
     ethr =  1.51E-08,  avg # of iterations =  1.7

     total cpu time spent up to now is      247.6 secs

     total energy              =    -342.05291803 Ry
     estimated scf accuracy    <       0.00003660 Ry

     total magnetization       =     5.88 Bohr mag/cell
     absolute magnetization    =     5.99 Bohr mag/cell
[tb_dev] Currently allocated     4.10E+00 Mbytes, locked:    0 /   9
[tb_pin] Currently allocated     0.00E+00 Mbytes, locked:    0 /   0

     iteration # 41     ecut=    60.00 Ry     beta= 0.10
     Davidson diagonalization with overlap

---- Real-time Memory Report at c_bands before calling an iterative solver
          1704 MiB given to the printing process from OS
          1487 MiB allocation reported by mallinfo(arena+hblkhd)
         57547 MiB available memory on the node where the printing process lives
     GPU memory used/free/total (MiB): 1856 / 14424 / 16280
------------------
     ethr =  1.51E-08,  avg # of iterations =  2.0

     total cpu time spent up to now is      253.2 secs

     total energy              =    -342.05292806 Ry
     estimated scf accuracy    <       0.00002768 Ry

     total magnetization       =     5.91 Bohr mag/cell
     absolute magnetization    =     6.00 Bohr mag/cell
[tb_dev] Currently allocated     4.10E+00 Mbytes, locked:    0 /   9
[tb_pin] Currently allocated     0.00E+00 Mbytes, locked:    0 /   0

     iteration # 42     ecut=    60.00 Ry     beta= 0.10
     Davidson diagonalization with overlap

---- Real-time Memory Report at c_bands before calling an iterative solver
          1704 MiB given to the printing process from OS
          1487 MiB allocation reported by mallinfo(arena+hblkhd)
         57548 MiB available memory on the node where the printing process lives
     GPU memory used/free/total (MiB): 1856 / 14424 / 16280
------------------
     ethr =  1.51E-08,  avg # of iterations =  1.0

     total cpu time spent up to now is      257.6 secs

     total energy              =    -342.05292650 Ry
     estimated scf accuracy    <       0.00002905 Ry

     total magnetization       =     5.90 Bohr mag/cell
     absolute magnetization    =     6.00 Bohr mag/cell
[tb_dev] Currently allocated     4.10E+00 Mbytes, locked:    0 /   9
[tb_pin] Currently allocated     0.00E+00 Mbytes, locked:    0 /   0

     iteration # 43     ecut=    60.00 Ry     beta= 0.10
     Davidson diagonalization with overlap

---- Real-time Memory Report at c_bands before calling an iterative solver
          1704 MiB given to the printing process from OS
          1487 MiB allocation reported by mallinfo(arena+hblkhd)
         57549 MiB available memory on the node where the printing process lives
     GPU memory used/free/total (MiB): 1856 / 14424 / 16280
------------------
     ethr =  1.51E-08,  avg # of iterations =  1.0

     total cpu time spent up to now is      262.1 secs

     total energy              =    -342.05292325 Ry
     estimated scf accuracy    <       0.00002800 Ry

     total magnetization       =     5.91 Bohr mag/cell
     absolute magnetization    =     6.00 Bohr mag/cell
[tb_dev] Currently allocated     4.10E+00 Mbytes, locked:    0 /   9
[tb_pin] Currently allocated     0.00E+00 Mbytes, locked:    0 /   0

     iteration # 44     ecut=    60.00 Ry     beta= 0.10
     Davidson diagonalization with overlap

---- Real-time Memory Report at c_bands before calling an iterative solver
          1704 MiB given to the printing process from OS
          1487 MiB allocation reported by mallinfo(arena+hblkhd)
         57548 MiB available memory on the node where the printing process lives
     GPU memory used/free/total (MiB): 1856 / 14424 / 16280
------------------
     ethr =  1.51E-08,  avg # of iterations =  2.0

     total cpu time spent up to now is      267.9 secs

     total energy              =    -342.05293859 Ry
     estimated scf accuracy    <       0.00003825 Ry

     total magnetization       =     5.86 Bohr mag/cell
     absolute magnetization    =     5.98 Bohr mag/cell
[tb_dev] Currently allocated     4.10E+00 Mbytes, locked:    0 /   9
[tb_pin] Currently allocated     0.00E+00 Mbytes, locked:    0 /   0

     iteration # 45     ecut=    60.00 Ry     beta= 0.10
     Davidson diagonalization with overlap

---- Real-time Memory Report at c_bands before calling an iterative solver
          1704 MiB given to the printing process from OS
          1487 MiB allocation reported by mallinfo(arena+hblkhd)
         57549 MiB available memory on the node where the printing process lives
     GPU memory used/free/total (MiB): 1856 / 14424 / 16280
------------------
     ethr =  1.51E-08,  avg # of iterations =  1.0

     total cpu time spent up to now is      272.4 secs

     total energy              =    -342.05293044 Ry
     estimated scf accuracy    <       0.00003842 Ry

     total magnetization       =     5.86 Bohr mag/cell
     absolute magnetization    =     5.98 Bohr mag/cell
[tb_dev] Currently allocated     4.10E+00 Mbytes, locked:    0 /   9
[tb_pin] Currently allocated     0.00E+00 Mbytes, locked:    0 /   0

     iteration # 46     ecut=    60.00 Ry     beta= 0.10
     Davidson diagonalization with overlap

---- Real-time Memory Report at c_bands before calling an iterative solver
          1704 MiB given to the printing process from OS
          1487 MiB allocation reported by mallinfo(arena+hblkhd)
         57548 MiB available memory on the node where the printing process lives
     GPU memory used/free/total (MiB): 1856 / 14424 / 16280
------------------
     ethr =  1.51E-08,  avg # of iterations =  1.1

     total cpu time spent up to now is      276.9 secs

     total energy              =    -342.05240851 Ry
     estimated scf accuracy    <       0.00003410 Ry

     total magnetization       =     5.88 Bohr mag/cell
     absolute magnetization    =     5.99 Bohr mag/cell
[tb_dev] Currently allocated     4.10E+00 Mbytes, locked:    0 /   9
[tb_pin] Currently allocated     0.00E+00 Mbytes, locked:    0 /   0

     iteration # 47     ecut=    60.00 Ry     beta= 0.10
     Davidson diagonalization with overlap

---- Real-time Memory Report at c_bands before calling an iterative solver
          1704 MiB given to the printing process from OS
          1487 MiB allocation reported by mallinfo(arena+hblkhd)
         57549 MiB available memory on the node where the printing process lives
     GPU memory used/free/total (MiB): 1856 / 14424 / 16280
------------------
     ethr =  1.51E-08,  avg # of iterations =  4.0

     total cpu time spent up to now is      284.9 secs

     total energy              =    -342.05286767 Ry
     estimated scf accuracy    <       0.00009064 Ry

     total magnetization       =     6.12 Bohr mag/cell
     absolute magnetization    =     6.17 Bohr mag/cell
[tb_dev] Currently allocated     4.10E+00 Mbytes, locked:    0 /   9
[tb_pin] Currently allocated     0.00E+00 Mbytes, locked:    0 /   0

     iteration # 48     ecut=    60.00 Ry     beta= 0.10
     Davidson diagonalization with overlap

---- Real-time Memory Report at c_bands before calling an iterative solver
          1704 MiB given to the printing process from OS
          1487 MiB allocation reported by mallinfo(arena+hblkhd)
         57551 MiB available memory on the node where the printing process lives
     GPU memory used/free/total (MiB): 1856 / 14424 / 16280
------------------
     ethr =  1.51E-08,  avg # of iterations =  2.0

     total cpu time spent up to now is      290.8 secs

     total energy              =    -342.05289018 Ry
     estimated scf accuracy    <       0.00005476 Ry

     total magnetization       =     6.07 Bohr mag/cell
     absolute magnetization    =     6.12 Bohr mag/cell
[tb_dev] Currently allocated     4.10E+00 Mbytes, locked:    0 /   9
[tb_pin] Currently allocated     0.00E+00 Mbytes, locked:    0 /   0

     iteration # 49     ecut=    60.00 Ry     beta= 0.10
     Davidson diagonalization with overlap

---- Real-time Memory Report at c_bands before calling an iterative solver
          1704 MiB given to the printing process from OS
          1487 MiB allocation reported by mallinfo(arena+hblkhd)
         57551 MiB available memory on the node where the printing process lives
     GPU memory used/free/total (MiB): 1856 / 14424 / 16280
------------------
     ethr =  1.51E-08,  avg # of iterations =  1.0

     total cpu time spent up to now is      295.2 secs

     total energy              =    -342.05288932 Ry
     estimated scf accuracy    <       0.00005226 Ry

     total magnetization       =     6.07 Bohr mag/cell
     absolute magnetization    =     6.12 Bohr mag/cell
[tb_dev] Currently allocated     4.10E+00 Mbytes, locked:    0 /   9
[tb_pin] Currently allocated     0.00E+00 Mbytes, locked:    0 /   0

     iteration # 50     ecut=    60.00 Ry     beta= 0.10
     Davidson diagonalization with overlap

---- Real-time Memory Report at c_bands before calling an iterative solver
          1704 MiB given to the printing process from OS
          1487 MiB allocation reported by mallinfo(arena+hblkhd)
         57551 MiB available memory on the node where the printing process lives
     GPU memory used/free/total (MiB): 1856 / 14424 / 16280
------------------
     ethr =  1.51E-08,  avg # of iterations =  2.0

     total cpu time spent up to now is      301.0 secs

     total energy              =    -342.05244660 Ry
     estimated scf accuracy    <       0.00005215 Ry

     total magnetization       =     6.03 Bohr mag/cell
     absolute magnetization    =     6.09 Bohr mag/cell
[tb_dev] Currently allocated     4.10E+00 Mbytes, locked:    0 /   9
[tb_pin] Currently allocated     0.00E+00 Mbytes, locked:    0 /   0

     iteration # 51     ecut=    60.00 Ry     beta= 0.10
     Davidson diagonalization with overlap

---- Real-time Memory Report at c_bands before calling an iterative solver
          1704 MiB given to the printing process from OS
          1487 MiB allocation reported by mallinfo(arena+hblkhd)
         57551 MiB available memory on the node where the printing process lives
     GPU memory used/free/total (MiB): 1856 / 14424 / 16280
------------------
     ethr =  1.51E-08,  avg # of iterations =  4.2

     total cpu time spent up to now is      309.2 secs

     total energy              =    -342.05284725 Ry
     estimated scf accuracy    <       0.00016550 Ry

     total magnetization       =     5.77 Bohr mag/cell
     absolute magnetization    =     5.96 Bohr mag/cell
[tb_dev] Currently allocated     4.10E+00 Mbytes, locked:    0 /   9
[tb_pin] Currently allocated     0.00E+00 Mbytes, locked:    0 /   0

     iteration # 52     ecut=    60.00 Ry     beta= 0.10
     Davidson diagonalization with overlap

---- Real-time Memory Report at c_bands before calling an iterative solver
          1704 MiB given to the printing process from OS
          1487 MiB allocation reported by mallinfo(arena+hblkhd)
         57551 MiB available memory on the node where the printing process lives
     GPU memory used/free/total (MiB): 1856 / 14424 / 16280
------------------
     ethr =  1.51E-08,  avg # of iterations =  3.0

     total cpu time spent up to now is      315.9 secs

     total energy              =    -342.05285923 Ry
     estimated scf accuracy    <       0.00004444 Ry

     total magnetization       =     5.87 Bohr mag/cell
     absolute magnetization    =     5.99 Bohr mag/cell
[tb_dev] Currently allocated     4.10E+00 Mbytes, locked:    0 /   9
[tb_pin] Currently allocated     0.00E+00 Mbytes, locked:    0 /   0

     iteration # 53     ecut=    60.00 Ry     beta= 0.10
     Davidson diagonalization with overlap

---- Real-time Memory Report at c_bands before calling an iterative solver
          1704 MiB given to the printing process from OS
          1487 MiB allocation reported by mallinfo(arena+hblkhd)
         57551 MiB available memory on the node where the printing process lives
     GPU memory used/free/total (MiB): 1856 / 14424 / 16280
------------------
     ethr =  1.51E-08,  avg # of iterations =  3.0

     total cpu time spent up to now is      322.7 secs

     total energy              =    -342.05288935 Ry
     estimated scf accuracy    <       0.00003362 Ry

     total magnetization       =     5.95 Bohr mag/cell
     absolute magnetization    =     6.03 Bohr mag/cell
[tb_dev] Currently allocated     4.10E+00 Mbytes, locked:    0 /   9
[tb_pin] Currently allocated     0.00E+00 Mbytes, locked:    0 /   0

     iteration # 54     ecut=    60.00 Ry     beta= 0.10
     Davidson diagonalization with overlap

---- Real-time Memory Report at c_bands before calling an iterative solver
          1704 MiB given to the printing process from OS
          1487 MiB allocation reported by mallinfo(arena+hblkhd)
         57551 MiB available memory on the node where the printing process lives
     GPU memory used/free/total (MiB): 1856 / 14424 / 16280
------------------
     ethr =  1.51E-08,  avg # of iterations =  2.0

     total cpu time spent up to now is      328.5 secs

     total energy              =    -342.05282888 Ry
     estimated scf accuracy    <       0.00003264 Ry

     total magnetization       =     6.00 Bohr mag/cell
     absolute magnetization    =     6.06 Bohr mag/cell
[tb_dev] Currently allocated     4.10E+00 Mbytes, locked:    0 /   9
[tb_pin] Currently allocated     0.00E+00 Mbytes, locked:    0 /   0

     iteration # 55     ecut=    60.00 Ry     beta= 0.10
     Davidson diagonalization with overlap

---- Real-time Memory Report at c_bands before calling an iterative solver
          1704 MiB given to the printing process from OS
          1487 MiB allocation reported by mallinfo(arena+hblkhd)
         57551 MiB available memory on the node where the printing process lives
     GPU memory used/free/total (MiB): 1856 / 14424 / 16280
------------------
     ethr =  1.51E-08,  avg # of iterations =  3.0

     total cpu time spent up to now is      335.3 secs

     total energy              =    -342.05277635 Ry
     estimated scf accuracy    <       0.00005114 Ry

     total magnetization       =     6.08 Bohr mag/cell
     absolute magnetization    =     6.13 Bohr mag/cell
[tb_dev] Currently allocated     4.10E+00 Mbytes, locked:    0 /   9
[tb_pin] Currently allocated     0.00E+00 Mbytes, locked:    0 /   0

     iteration # 56     ecut=    60.00 Ry     beta= 0.10
     Davidson diagonalization with overlap

---- Real-time Memory Report at c_bands before calling an iterative solver
          1704 MiB given to the printing process from OS
          1487 MiB allocation reported by mallinfo(arena+hblkhd)
         57546 MiB available memory on the node where the printing process lives
     GPU memory used/free/total (MiB): 1856 / 14424 / 16280
------------------
     ethr =  1.51E-08,  avg # of iterations =  3.0

     total cpu time spent up to now is      342.2 secs

     total energy              =    -342.05282619 Ry
     estimated scf accuracy    <       0.00012894 Ry

     total magnetization       =     6.18 Bohr mag/cell
     absolute magnetization    =     6.23 Bohr mag/cell
[tb_dev] Currently allocated     4.10E+00 Mbytes, locked:    0 /   9
[tb_pin] Currently allocated     0.00E+00 Mbytes, locked:    0 /   0

     iteration # 57     ecut=    60.00 Ry     beta= 0.10
     Davidson diagonalization with overlap

---- Real-time Memory Report at c_bands before calling an iterative solver
          1704 MiB given to the printing process from OS
          1487 MiB allocation reported by mallinfo(arena+hblkhd)
         57549 MiB available memory on the node where the printing process lives
     GPU memory used/free/total (MiB): 1856 / 14424 / 16280
------------------
[...]
         57549 MiB available memory on the node where the printing process lives
     GPU memory used/free/total (MiB): 1856 / 14424 / 16280
------------------
     ethr =  1.51E-08,  avg # of iterations =  1.0

     total cpu time spent up to now is      398.9 secs

     total energy              =    -342.05323958 Ry
     estimated scf accuracy    <       0.00116432 Ry

     total magnetization       =     5.54 Bohr mag/cell
     absolute magnetization    =     5.94 Bohr mag/cell
[tb_dev] Currently allocated     4.10E+00 Mbytes, locked:    0 /   9
[tb_pin] Currently allocated     0.00E+00 Mbytes, locked:    0 /   0

     iteration # 65     ecut=    60.00 Ry     beta= 0.10
     Davidson diagonalization with overlap

---- Real-time Memory Report at c_bands before calling an iterative solver
          1704 MiB given to the printing process from OS
          1487 MiB allocation reported by mallinfo(arena+hblkhd)
         57550 MiB available memory on the node where the printing process lives
     GPU memory used/free/total (MiB): 1856 / 14424 / 16280
------------------
     ethr =  1.51E-08,  avg # of iterations =  2.1

     total cpu time spent up to now is      404.9 secs

     total energy              =    -342.05317441 Ry
     estimated scf accuracy    <       0.00200232 Ry

     total magnetization       =     5.46 Bohr mag/cell
     absolute magnetization    =     5.95 Bohr mag/cell
[tb_dev] Currently allocated     4.10E+00 Mbytes, locked:    0 /   9
[tb_pin] Currently allocated     0.00E+00 Mbytes, locked:    0 /   0

     iteration # 66     ecut=    60.00 Ry     beta= 0.10
     Davidson diagonalization with overlap

---- Real-time Memory Report at c_bands before calling an iterative solver
          1704 MiB given to the printing process from OS
          1487 MiB allocation reported by mallinfo(arena+hblkhd)
         57550 MiB available memory on the node where the printing process lives
     GPU memory used/free/total (MiB): 1856 / 14424 / 16280
------------------
     ethr =  1.51E-08,  avg # of iterations =  2.0

     total cpu time spent up to now is      410.7 secs

     total energy              =    -342.05274681 Ry
     estimated scf accuracy    <       0.00136781 Ry

     total magnetization       =     5.52 Bohr mag/cell
     absolute magnetization    =     5.94 Bohr mag/cell
[tb_dev] Currently allocated     4.10E+00 Mbytes, locked:    0 /   9
[tb_pin] Currently allocated     0.00E+00 Mbytes, locked:    0 /   0

     iteration # 67     ecut=    60.00 Ry     beta= 0.10
     Davidson diagonalization with overlap

---- Real-time Memory Report at c_bands before calling an iterative solver
          1704 MiB given to the printing process from OS
          1487 MiB allocation reported by mallinfo(arena+hblkhd)
         57551 MiB available memory on the node where the printing process lives
     GPU memory used/free/total (MiB): 1856 / 14424 / 16280
------------------
     ethr =  1.51E-08,  avg # of iterations =  3.5

     total cpu time spent up to now is      417.9 secs

     total energy              =    -342.05297737 Ry
     estimated scf accuracy    <       0.00030295 Ry

     total magnetization       =     5.70 Bohr mag/cell
     absolute magnetization    =     5.94 Bohr mag/cell
[tb_dev] Currently allocated     4.10E+00 Mbytes, locked:    0 /   9
[tb_pin] Currently allocated     0.00E+00 Mbytes, locked:    0 /   0

     iteration # 68     ecut=    60.00 Ry     beta= 0.10
     Davidson diagonalization with overlap

---- Real-time Memory Report at c_bands before calling an iterative solver
          1704 MiB given to the printing process from OS
          1487 MiB allocation reported by mallinfo(arena+hblkhd)
         57551 MiB available memory on the node where the printing process lives
     GPU memory used/free/total (MiB): 1856 / 14424 / 16280
------------------
     ethr =  1.51E-08,  avg # of iterations =  2.0

     total cpu time spent up to now is      423.6 secs

     total energy              =    -342.05300062 Ry
     estimated scf accuracy    <       0.00019165 Ry

     total magnetization       =     5.74 Bohr mag/cell
     absolute magnetization    =     5.95 Bohr mag/cell
[tb_dev] Currently allocated     4.10E+00 Mbytes, locked:    0 /   9
[tb_pin] Currently allocated     0.00E+00 Mbytes, locked:    0 /   0

     iteration # 69     ecut=    60.00 Ry     beta= 0.10
     Davidson diagonalization with overlap

---- Real-time Memory Report at c_bands before calling an iterative solver
          1704 MiB given to the printing process from OS
          1487 MiB allocation reported by mallinfo(arena+hblkhd)
         57550 MiB available memory on the node where the printing process lives
     GPU memory used/free/total (MiB): 1856 / 14424 / 16280
------------------
     ethr =  1.51E-08,  avg # of iterations =  2.0

     total cpu time spent up to now is      429.5 secs

     total energy              =    -342.05289719 Ry
     estimated scf accuracy    <       0.00030384 Ry

     total magnetization       =     5.69 Bohr mag/cell
     absolute magnetization    =     5.94 Bohr mag/cell
[tb_dev] Currently allocated     4.10E+00 Mbytes, locked:    0 /   9
[tb_pin] Currently allocated     0.00E+00 Mbytes, locked:    0 /   0

     iteration # 70     ecut=    60.00 Ry     beta= 0.10
     Davidson diagonalization with overlap

---- Real-time Memory Report at c_bands before calling an iterative solver
          1704 MiB given to the printing process from OS
          1487 MiB allocation reported by mallinfo(arena+hblkhd)
         57550 MiB available memory on the node where the printing process lives
     GPU memory used/free/total (MiB): 1856 / 14424 / 16280
------------------
     ethr =  1.51E-08,  avg # of iterations =  3.0

     total cpu time spent up to now is      436.6 secs

     total energy              =    -342.05275801 Ry
     estimated scf accuracy    <       0.00011234 Ry

     total magnetization       =     5.78 Bohr mag/cell
     absolute magnetization    =     5.96 Bohr mag/cell
[tb_dev] Currently allocated     4.10E+00 Mbytes, locked:    0 /   9
[tb_pin] Currently allocated     0.00E+00 Mbytes, locked:    0 /   0

     iteration # 71     ecut=    60.00 Ry     beta= 0.10
     Davidson diagonalization with overlap

---- Real-time Memory Report at c_bands before calling an iterative solver
          1704 MiB given to the printing process from OS
          1487 MiB allocation reported by mallinfo(arena+hblkhd)
         57549 MiB available memory on the node where the printing process lives
     GPU memory used/free/total (MiB): 1856 / 14424 / 16280
------------------
     ethr =  1.51E-08,  avg # of iterations =  3.0

     total cpu time spent up to now is      443.6 secs

     total energy              =    -342.05289793 Ry
     estimated scf accuracy    <       0.00002812 Ry

     total magnetization       =     5.92 Bohr mag/cell
     absolute magnetization    =     6.01 Bohr mag/cell
[tb_dev] Currently allocated     4.10E+00 Mbytes, locked:    0 /   9
[tb_pin] Currently allocated     0.00E+00 Mbytes, locked:    0 /   0

     iteration # 72     ecut=    60.00 Ry     beta= 0.10
     Davidson diagonalization with overlap

---- Real-time Memory Report at c_bands before calling an iterative solver
          1704 MiB given to the printing process from OS
          1487 MiB allocation reported by mallinfo(arena+hblkhd)
         57549 MiB available memory on the node where the printing process lives
     GPU memory used/free/total (MiB): 1856 / 14424 / 16280
------------------
     ethr =  1.51E-08,  avg # of iterations =  2.0

     total cpu time spent up to now is      449.4 secs

     total energy              =    -342.05290719 Ry
     estimated scf accuracy    <       0.00002820 Ry

     total magnetization       =     5.97 Bohr mag/cell
     absolute magnetization    =     6.04 Bohr mag/cell
[tb_dev] Currently allocated     4.10E+00 Mbytes, locked:    0 /   9
[tb_pin] Currently allocated     0.00E+00 Mbytes, locked:    0 /   0

     iteration # 73     ecut=    60.00 Ry     beta= 0.10
     Davidson diagonalization with overlap

---- Real-time Memory Report at c_bands before calling an iterative solver
          1704 MiB given to the printing process from OS
          1487 MiB allocation reported by mallinfo(arena+hblkhd)
         57550 MiB available memory on the node where the printing process lives
     GPU memory used/free/total (MiB): 1856 / 14424 / 16280
------------------
     ethr =  1.51E-08,  avg # of iterations =  2.0

     total cpu time spent up to now is      454.5 secs

     total energy              =    -342.05290371 Ry
     estimated scf accuracy    <       0.00003030 Ry

     total magnetization       =     5.98 Bohr mag/cell
     absolute magnetization    =     6.05 Bohr mag/cell
[tb_dev] Currently allocated     4.10E+00 Mbytes, locked:    0 /   9
[tb_pin] Currently allocated     0.00E+00 Mbytes, locked:    0 /   0

     iteration # 74     ecut=    60.00 Ry     beta= 0.10
     Davidson diagonalization with overlap

---- Real-time Memory Report at c_bands before calling an iterative solver
          1704 MiB given to the printing process from OS
          1487 MiB allocation reported by mallinfo(arena+hblkhd)
         57551 MiB available memory on the node where the printing process lives
     GPU memory used/free/total (MiB): 1856 / 14424 / 16280
------------------
     ethr =  1.51E-08,  avg # of iterations =  2.0

     total cpu time spent up to now is      460.3 secs

     total energy              =    -342.05288620 Ry
     estimated scf accuracy    <       0.00002525 Ry

     total magnetization       =     5.94 Bohr mag/cell
     absolute magnetization    =     6.02 Bohr mag/cell
[tb_dev] Currently allocated     4.10E+00 Mbytes, locked:    0 /   9
[tb_pin] Currently allocated     0.00E+00 Mbytes, locked:    0 /   0

     iteration # 75     ecut=    60.00 Ry     beta= 0.10
     Davidson diagonalization with overlap

---- Real-time Memory Report at c_bands before calling an iterative solver
          1704 MiB given to the printing process from OS
          1487 MiB allocation reported by mallinfo(arena+hblkhd)
         57551 MiB available memory on the node where the printing process lives
     GPU memory used/free/total (MiB): 1856 / 14424 / 16280
------------------
     ethr =  1.51E-08,  avg # of iterations =  2.0

     total cpu time spent up to now is      466.2 secs

     total energy              =    -342.05290983 Ry
     estimated scf accuracy    <       0.00003362 Ry

     total magnetization       =     5.99 Bohr mag/cell
     absolute magnetization    =     6.05 Bohr mag/cell
[tb_dev] Currently allocated     4.10E+00 Mbytes, locked:    0 /   9
[tb_pin] Currently allocated     0.00E+00 Mbytes, locked:    0 /   0

     iteration # 76     ecut=    60.00 Ry     beta= 0.10
     Davidson diagonalization with overlap

---- Real-time Memory Report at c_bands before calling an iterative solver
          1704 MiB given to the printing process from OS
          1487 MiB allocation reported by mallinfo(arena+hblkhd)
         57551 MiB available memory on the node where the printing process lives
     GPU memory used/free/total (MiB): 1856 / 14424 / 16280
------------------
     ethr =  1.51E-08,  avg # of iterations =  1.0

     total cpu time spent up to now is      470.6 secs

     total energy              =    -342.05290307 Ry
     estimated scf accuracy    <       0.00002976 Ry

     total magnetization       =     5.98 Bohr mag/cell
     absolute magnetization    =     6.04 Bohr mag/cell
[tb_dev] Currently allocated     4.10E+00 Mbytes, locked:    0 /   9
[tb_pin] Currently allocated     0.00E+00 Mbytes, locked:    0 /   0

     iteration # 77     ecut=    60.00 Ry     beta= 0.10
     Davidson diagonalization with overlap

---- Real-time Memory Report at c_bands before calling an iterative solver
          1704 MiB given to the printing process from OS
          1487 MiB allocation reported by mallinfo(arena+hblkhd)
         57551 MiB available memory on the node where the printing process lives
     GPU memory used/free/total (MiB): 1856 / 14424 / 16280
------------------
     ethr =  1.51E-08,  avg # of iterations =  2.0

     total cpu time spent up to now is      476.5 secs

     total energy              =    -342.05291609 Ry
     estimated scf accuracy    <       0.00002819 Ry

     total magnetization       =     5.93 Bohr mag/cell
     absolute magnetization    =     6.01 Bohr mag/cell
[tb_dev] Currently allocated     4.10E+00 Mbytes, locked:    0 /   9
[tb_pin] Currently allocated     0.00E+00 Mbytes, locked:    0 /   0

     iteration # 78     ecut=    60.00 Ry     beta= 0.10
     Davidson diagonalization with overlap

---- Real-time Memory Report at c_bands before calling an iterative solver
          1704 MiB given to the printing process from OS
          1487 MiB allocation reported by mallinfo(arena+hblkhd)
         57550 MiB available memory on the node where the printing process lives
     GPU memory used/free/total (MiB): 1856 / 14424 / 16280
------------------
     ethr =  1.51E-08,  avg # of iterations =  1.0

     total cpu time spent up to now is      480.9 secs

     total energy              =    -342.05152252 Ry
     estimated scf accuracy    <       0.00002613 Ry

     total magnetization       =     5.94 Bohr mag/cell
     absolute magnetization    =     6.02 Bohr mag/cell
[tb_dev] Currently allocated     4.10E+00 Mbytes, locked:    0 /   9
[tb_pin] Currently allocated     0.00E+00 Mbytes, locked:    0 /   0

     iteration # 79     ecut=    60.00 Ry     beta= 0.10
     Davidson diagonalization with overlap

---- Real-time Memory Report at c_bands before calling an iterative solver
          1704 MiB given to the printing process from OS
          1487 MiB allocation reported by mallinfo(arena+hblkhd)
         57549 MiB available memory on the node where the printing process lives
     GPU memory used/free/total (MiB): 1856 / 14424 / 16280
------------------
     ethr =  1.51E-08,  avg # of iterations =  5.0

     total cpu time spent up to now is      489.9 secs

     total energy              =    -342.05251170 Ry
     estimated scf accuracy    <       0.00053376 Ry

     total magnetization       =     6.33 Bohr mag/cell
     absolute magnetization    =     6.39 Bohr mag/cell
[tb_dev] Currently allocated     4.10E+00 Mbytes, locked:    0 /   9
[tb_pin] Currently allocated     0.00E+00 Mbytes, locked:    0 /   0

     iteration # 80     ecut=    60.00 Ry     beta= 0.10
     Davidson diagonalization with overlap

---- Real-time Memory Report at c_bands before calling an iterative solver
          1704 MiB given to the printing process from OS
          1487 MiB allocation reported by mallinfo(arena+hblkhd)
         57549 MiB available memory on the node where the printing process lives
     GPU memory used/free/total (MiB): 1856 / 14424 / 16280
------------------
     ethr =  1.51E-08,  avg # of iterations =  3.0

     total cpu time spent up to now is      496.8 secs

     total energy              =    -342.05141628 Ry
     estimated scf accuracy    <       0.00115302 Ry

     total magnetization       =     6.44 Bohr mag/cell
     absolute magnetization    =     6.50 Bohr mag/cell

     End of self-consistent calculation

     convergence NOT achieved after  80 iterations: stopping

     Writing config to output data dir ./out/aiida.save/
 
     init_run     :     10.46s CPU      2.50s WALL (       1 calls)
     electrons    :    660.99s CPU    493.86s WALL (       1 calls)

     Called by init_run:
     wfcinit      :      0.33s CPU      0.33s WALL (       1 calls)
                                        0.33s GPU  (       1 calls)
     potinit      :      0.36s CPU      0.11s WALL (       1 calls)
     hinit0       :      7.42s CPU      1.39s WALL (       1 calls)

     Called by electrons:
     c_bands      :    492.89s CPU    416.23s WALL (      81 calls)
     sum_band     :     60.41s CPU     67.53s WALL (      81 calls)
     v_of_rho     :     26.91s CPU      2.46s WALL (      81 calls)
     v_h          :      3.85s CPU      0.34s WALL (      81 calls)
     v_xc         :     23.06s CPU      2.12s WALL (      81 calls)
     newd         :     39.25s CPU      3.87s WALL (      81 calls)
                                        3.87s GPU  (      81 calls)
     mix_rho      :     31.43s CPU      3.02s WALL (      81 calls)

     Called by c_bands:
     init_us_2    :     30.90s CPU     29.55s WALL (   28512 calls)
     init_us_2:gp :     30.34s CPU     29.07s WALL (   28512 calls)
     cegterg      :    419.15s CPU    353.19s WALL (   14256 calls)

     Called by sum_band:
     sum_band:wei :      0.48s CPU      0.49s WALL (      81 calls)
                                        0.49s GPU  (      81 calls)
     sum_band:loo :     55.34s CPU     62.36s WALL (      81 calls)
                                       62.36s GPU  (      81 calls)
     sum_band:buf :     15.14s CPU     16.87s WALL (   14256 calls)
                                       16.78s GPU  (   14256 calls)
     sum_band:ini :     12.54s CPU     14.44s WALL (   14256 calls)
                                       14.36s GPU  (   14256 calls)
     sum_band:cal :      0.36s CPU      2.58s WALL (   14256 calls)
                                        2.39s GPU  (   14256 calls)
     sum_band:bec :      3.08s CPU      3.69s WALL (   14256 calls)
                                        3.59s GPU  (   14256 calls)
     addusdens    :      3.04s CPU      3.12s WALL (      81 calls)
                                        3.12s GPU  (      81 calls)
     addusd:skk   :      0.03s CPU      0.03s WALL (     243 calls)
                                        0.03s GPU  (     243 calls)

     Called by *egterg:
     cdiaghg      :    146.63s CPU    131.23s WALL (   47551 calls)
                                      130.92s GPU  (   47551 calls)
     cegterg:over :     10.62s CPU      8.80s WALL (   33647 calls)
     cegterg:upda :     17.97s CPU     14.80s WALL (   33647 calls)
     cegterg:last :      8.10s CPU      6.94s WALL (   29951 calls)
     h_psi        :    200.44s CPU    163.30s WALL (   47903 calls)
                                      162.89s GPU  (   47903 calls)
     s_psi        :      7.19s CPU     11.41s WALL (   47903 calls)
                                       10.58s GPU  (   47903 calls)
     g_psi        :      0.29s CPU      1.27s WALL (   33647 calls)
                                        1.05s GPU  (   33647 calls)

     Called by h_psi:
     h_psi:calbec :      1.94s CPU      8.06s WALL (   47903 calls)
                                        7.75s GPU  (   47903 calls)
     vloc_psi     :    167.77s CPU    137.24s WALL (   47903 calls)
                                      136.94s GPU  (   47903 calls)
     add_vuspsi   :     12.36s CPU     14.46s WALL (   47903 calls)
                                       14.15s GPU  (   47903 calls)

     General routines
     calbec       :      1.66s CPU      1.42s WALL (   62159 calls)
     fft          :      2.48s CPU      0.46s WALL (    2025 calls)
                                        0.38s GPU  (    1863 calls)
     ffts         :      0.10s CPU      0.04s WALL (     324 calls)
                                        0.01s GPU  (     162 calls)
     fftw         :      6.36s CPU    100.49s WALL (  275698 calls)
                                       98.96s GPU  (  275698 calls)
     interpolate  :      3.47s CPU      0.31s WALL (     162 calls)
     davcio       :      1.14s CPU      1.24s WALL (     370 calls)
 
     Parallel routines
 
     PWSCF        :  11m14.30s CPU   8m17.91s WALL

 
   This run was terminated on:  20:34: 2  23Oct2023            

=------------------------------------------------------------------------------=
   JOB DONE.
=------------------------------------------------------------------------------=
