
     Program PWSCF v.7.2 starts on 22Oct2023 at 18:44: 1 

     This program is part of the open-source Quantum ESPRESSO suite
     for quantum simulation of materials; please cite
         "P. Giannozzi et al., J. Phys.:Condens. Matter 21 395502 (2009);
         "P. Giannozzi et al., J. Phys.:Condens. Matter 29 465901 (2017);
         "P. Giannozzi et al., J. Chem. Phys. 152 154105 (2020);
          URL http://www.quantum-espresso.org", 
     in publications or presentations arising from this work. More details at
     http://www.quantum-espresso.org/quote

     Parallel version (MPI & OpenMP), running on      12 processor cores
     Number of MPI processes:                 1
     Threads/MPI process:                    12

     MPI processes distributed on     1 nodes
     60086 MiB available memory on the printing compute node when the environment starts
 
     Reading input from aiida.in

     Current dimensions of program PWSCF are:
     Max number of different atomic species (ntypx) = 10
     Max number of k-points (npk) =  40000
     Max angular momentum in pseudopotentials (lmaxx) =  4
     Message from routine setup:
     using ibrav=0 with symmetry is DISCOURAGED, use correct ibrav instead
 
     Subspace diagonalization in iterative solution of the eigenvalue problem:
     a serial algorithm will be used

 
     G-vector sticks info
     --------------------
     sticks:   dense  smooth     PW     G-vecs:    dense   smooth      PW
     Sum        2769    1527    459                95543    39561    6405
 
     Using Slab Decomposition
 


     bravais-lattice index     =            0
     lattice parameter (alat)  =      10.6384  a.u.
     unit-cell volume          =     828.6733 (a.u.)^3
     number of atoms/cell      =            8
     number of atomic types    =            3
     number of electrons       =        71.00
     number of Kohn-Sham states=           43
     kinetic-energy cutoff     =      50.0000  Ry
     charge density cutoff     =     360.0000  Ry
     scf convergence threshold =      1.6E-09
     mixing beta               =       0.4000
     number of iterations used =            8  plain     mixing
     Exchange-correlation= PBESOL
                           (   1   4  10   8   0   0   0)

     GPU acceleration is ACTIVE.


     GPU used by master process:

        Device Number: 0
        Device name: Tesla P100-PCIE-16GB
        Compute capability : 60
        Ratio of single to double precision performance  : 2
        Memory Clock Rate (KHz): 715000
        Memory Bus Width (bits): 4096
        Peak Memory Bandwidth (GB/s): 732.16

     celldm(1)=  10.638388  celldm(2)=   0.000000  celldm(3)=   0.000000
     celldm(4)=   0.000000  celldm(5)=   0.000000  celldm(6)=   0.000000

     crystal axes: (cart. coord. in units of alat)
               a(1) = (   0.491155   0.283568   0.823624 )  
               a(2) = (  -0.491155   0.283568   0.823624 )  
               a(3) = (  -0.000000  -0.567136   0.823624 )  

     reciprocal axes: (cart. coord. in units 2 pi/alat)
               b(1) = (  1.018009  0.587748  0.404715 )  
               b(2) = ( -1.018009  0.587748  0.404715 )  
               b(3) = (  0.000000 -1.175496  0.404715 )  


     PseudoPot. # 1 for Co read from file:
     ./pseudo/co_pbesol_v1.2.uspp.F.UPF
     MD5 check sum: 3b4cd4e7cc7df4da9fdede0fd33e2193
     Pseudo is Ultrasoft + core correction, Zval = 17.0
     Generated by new atomic code, or converted to UPF format
     Using radial grid of  863 points,  6 beta functions with: 
                l(1) =   0
                l(2) =   0
                l(3) =   1
                l(4) =   1
                l(5) =   2
                l(6) =   2
     Q(r) pseudized with  8 coefficients,  rinner =    1.200   1.200   1.200
                                                       1.200   1.200

     PseudoPot. # 2 for F  read from file:
     ./pseudo/f_pbesol_v1.4.uspp.F.UPF
     MD5 check sum: d2815ecb49b17b99c5724ffd2f9bbd8d
     Pseudo is Ultrasoft, Zval =  7.0
     Generated by new atomic code, or converted to UPF format
     Using radial grid of  799 points,  4 beta functions with: 
                l(1) =   0
                l(2) =   0
                l(3) =   1
                l(4) =   1
     Q(r) pseudized with  8 coefficients,  rinner =    0.950   0.950   0.950


     PseudoPot. # 3 for Hf read from file:
     ./pseudo/Hf-sp.oncvpsp.upf
     MD5 check sum: 3619c98de2ee908b1d969add25be4863
     Pseudo is Norm-conserving + core correction, Zval = 12.0
     Generated using ONCVPSP code by D. R. Hamann
     Using radial grid of 1656 points,  8 beta functions with: 
                l(1) =   0
                l(2) =   0
                l(3) =   1
                l(4) =   1
                l(5) =   2
                l(6) =   2
                l(7) =   3
                l(8) =   3

     atomic species   valence    mass     pseudopotential
        Co            17.00    58.93319     Co( 1.00)
        F              7.00    18.99840     F ( 1.00)
        Hf            12.00   178.49000     Hf( 1.00)

     Starting magnetic structure 
     atomic species   magnetization
        Co           0.294
        F            0.100
        Hf           0.417

      6 Sym. Ops., with inversion, found


                                    s                        frac. trans.

      isym =  1     identity                                     

 cryst.   s( 1) = (     1          0          0      )
                  (     0          1          0      )
                  (     0          0          1      )

 cart.    s( 1) = (  1.0000000 -0.0000000 -0.0000000 )
                  (  0.0000000  1.0000000 -0.0000000 )
                  (  0.0000000  0.0000000  1.0000000 )


      isym =  2     120 deg rotation - cryst. axis [0,0,1]       

 cryst.   s( 2) = (     0          1          0      )
                  (     0          0          1      )
                  (     1          0          0      )

 cart.    s( 2) = ( -0.5000000 -0.8660254 -0.0000000 )
                  (  0.8660254 -0.5000000 -0.0000000 )
                  (  0.0000000 -0.0000000  1.0000000 )


      isym =  3     120 deg rotation - cryst. axis [0,0,-1]      

 cryst.   s( 3) = (     0          0          1      )
                  (     1          0          0      )
                  (     0          1          0      )

 cart.    s( 3) = ( -0.5000000  0.8660254 -0.0000000 )
                  ( -0.8660254 -0.5000000 -0.0000000 )
                  ( -0.0000000 -0.0000000  1.0000000 )


      isym =  4     inversion                                    

 cryst.   s( 4) = (    -1          0          0      )
                  (     0         -1          0      )
                  (     0          0         -1      )

 cart.    s( 4) = ( -1.0000000  0.0000000  0.0000000 )
                  ( -0.0000000 -1.0000000  0.0000000 )
                  ( -0.0000000 -0.0000000 -1.0000000 )


      isym =  5     inv. 120 deg rotation - cryst. axis [0,0,1]  

 cryst.   s( 5) = (     0         -1          0      )
                  (     0          0         -1      )
                  (    -1          0          0      )

 cart.    s( 5) = (  0.5000000  0.8660254  0.0000000 )
                  ( -0.8660254  0.5000000  0.0000000 )
                  ( -0.0000000  0.0000000 -1.0000000 )


      isym =  6     inv. 120 deg rotation - cryst. axis [0,0,-1] 

 cryst.   s( 6) = (     0          0         -1      )
                  (    -1          0          0      )
                  (     0         -1          0      )

 cart.    s( 6) = (  0.5000000 -0.8660254  0.0000000 )
                  (  0.8660254  0.5000000  0.0000000 )
                  (  0.0000000  0.0000000 -1.0000000 )


   Cartesian axes

     site n.     atom                  positions (alat units)
         1           Hf  tau(   1) = (  -0.0000000   0.5671364   0.4118119  )
         2           Co  tau(   2) = (   0.0000000   0.0000000   0.0000000  )
         3           F   tau(   3) = (  -0.3081504   0.6256082   0.1974226  )
         4           F   tau(   4) = (   0.3877174   0.0125337   0.6262012  )
         5           F   tau(   5) = (   0.7775959   0.3295063   0.6262012  )
         6           F   tau(   6) = (   0.3081504   0.5086647   0.6262012  )
         7           F   tau(   7) = (   0.1034372   0.2710345   0.1974226  )
         8           F   tau(   8) = (   0.2047132   0.8047666   0.1974226  )

   Crystallographic axes

     site n.     atom                  positions (cryst. coord.)
         1           Hf  tau(   1) = (  0.5000000  0.5000000 -0.5000000  )
         2           Co  tau(   2) = (  0.0000000  0.0000000  0.0000000  )
         3           F   tau(   3) = (  0.1339000  0.7613000 -0.6555000  )
         4           F   tau(   4) = (  0.6555000 -0.1339000  0.2387000  )
         5           F   tau(   5) = (  1.2387000 -0.3445000 -0.1339000  )
         6           F   tau(   6) = (  0.8661000  0.2387000 -0.3445000  )
         7           F   tau(   7) = (  0.3445000  0.1339000 -0.2387000  )
         8           F   tau(   8) = (  0.7613000  0.3445000 -0.8661000  )

     number of k points=   172  Marzari-Vanderbilt smearing, width (Ry)=  0.0100
                       cart. coord. in units 2pi/alat
        k(    1) = (   0.0000000   0.0000000   0.0000000), wk =   0.0010000
        k(    2) = (   0.0000000  -0.1175496   0.0404715), wk =   0.0060000
        k(    3) = (   0.0000000  -0.2350992   0.0809431), wk =   0.0060000
        k(    4) = (   0.0000000  -0.3526488   0.1214146), wk =   0.0060000
        k(    5) = (   0.0000000  -0.4701984   0.1618862), wk =   0.0060000
        k(    6) = (  -0.0000000   0.5877480  -0.2023577), wk =   0.0030000
        k(    7) = (  -0.1018009  -0.0587748   0.0809431), wk =   0.0060000
        k(    8) = (  -0.1018009  -0.1763244   0.1214146), wk =   0.0060000
        k(    9) = (  -0.1018009  -0.2938740   0.1618862), wk =   0.0060000
        k(   10) = (  -0.1018009  -0.4114236   0.2023577), wk =   0.0060000
        k(   11) = (  -0.1018009   0.6465229  -0.1618862), wk =   0.0060000
        k(   12) = (  -0.1018009   0.5289732  -0.1214146), wk =   0.0060000
        k(   13) = (  -0.1018009   0.4114236  -0.0809431), wk =   0.0060000
        k(   14) = (  -0.1018009   0.2938740  -0.0404715), wk =   0.0060000
        k(   15) = (  -0.1018009   0.1763244   0.0000000), wk =   0.0060000
        k(   16) = (  -0.2036019  -0.1175496   0.1618862), wk =   0.0060000
        k(   17) = (  -0.2036019  -0.2350992   0.2023577), wk =   0.0060000
        k(   18) = (  -0.2036019  -0.3526488   0.2428293), wk =   0.0060000
        k(   19) = (  -0.2036019   0.7052977  -0.1214146), wk =   0.0060000
        k(   20) = (  -0.2036019   0.5877480  -0.0809431), wk =   0.0060000
        k(   21) = (  -0.2036019   0.4701984  -0.0404715), wk =   0.0060000
        k(   22) = (  -0.2036019   0.3526488   0.0000000), wk =   0.0060000
        k(   23) = (  -0.3054028  -0.1763244   0.2428293), wk =   0.0060000
        k(   24) = (  -0.3054028  -0.2938740   0.2833008), wk =   0.0060000
        k(   25) = (  -0.3054028   0.7640725  -0.0809431), wk =   0.0060000
        k(   26) = (  -0.3054028   0.6465229  -0.0404715), wk =   0.0060000
        k(   27) = (  -0.3054028   0.5289732  -0.0000000), wk =   0.0060000
        k(   28) = (  -0.4072038  -0.2350992   0.3237724), wk =   0.0060000
        k(   29) = (  -0.4072038   0.8228473  -0.0404715), wk =   0.0060000
        k(   30) = (  -0.4072038   0.7052977   0.0000000), wk =   0.0060000
        k(   31) = (   0.5090047   0.2938740  -0.4047155), wk =   0.0030000
        k(   32) = (   0.0000000  -0.0000000   0.1214146), wk =   0.0020000
        k(   33) = (   0.0000000  -0.1175496   0.1618862), wk =   0.0060000
        k(   34) = (   0.0000000  -0.2350992   0.2023577), wk =   0.0060000
        k(   35) = (   0.0000000  -0.3526488   0.2428293), wk =   0.0060000
        k(   36) = (   0.0000000   0.7052977  -0.1214146), wk =   0.0060000
        k(   37) = (   0.0000000   0.5877480  -0.0809431), wk =   0.0060000
        k(   38) = (   0.0000000   0.4701984  -0.0404715), wk =   0.0060000
        k(   39) = (   0.0000000   0.3526488   0.0000000), wk =   0.0060000
        k(   40) = (   0.0000000   0.2350992   0.0404715), wk =   0.0060000
        k(   41) = (  -0.1018009  -0.0587748   0.2023577), wk =   0.0060000
        k(   42) = (  -0.1018009  -0.1763244   0.2428293), wk =   0.0060000
        k(   43) = (  -0.1018009  -0.2938740   0.2833008), wk =   0.0060000
        k(   44) = (  -0.1018009   0.7640725  -0.0809431), wk =   0.0060000
        k(   45) = (  -0.1018009   0.6465229  -0.0404715), wk =   0.0060000
        k(   46) = (  -0.1018009   0.5289732  -0.0000000), wk =   0.0060000
        k(   47) = (  -0.1018009   0.4114236   0.0404715), wk =   0.0060000
        k(   48) = (  -0.1018009   0.2938740   0.0809431), wk =   0.0060000
        k(   49) = (  -0.2036019  -0.1175496   0.2833008), wk =   0.0060000
        k(   50) = (  -0.2036019  -0.2350992   0.3237724), wk =   0.0060000
        k(   51) = (  -0.2036019   0.8228473  -0.0404715), wk =   0.0060000
        k(   52) = (  -0.2036019   0.7052977  -0.0000000), wk =   0.0060000
        k(   53) = (  -0.2036019   0.5877480   0.0404715), wk =   0.0060000
        k(   54) = (  -0.2036019   0.4701984   0.0809431), wk =   0.0060000
        k(   55) = (  -0.2036019   0.3526488   0.1214146), wk =   0.0060000
        k(   56) = (  -0.3054028  -0.1763244   0.3642439), wk =   0.0060000
        k(   57) = (  -0.3054028   0.8816221   0.0000000), wk =   0.0060000
        k(   58) = (  -0.3054028   0.7640725   0.0404715), wk =   0.0060000
        k(   59) = (  -0.3054028   0.6465229   0.0809431), wk =   0.0060000
        k(   60) = (  -0.3054028   0.5289732   0.1214146), wk =   0.0060000
        k(   61) = (  -0.3054028   0.4114236   0.1618862), wk =   0.0060000
        k(   62) = (   0.6108057   0.3526488  -0.3642439), wk =   0.0060000
        k(   63) = (   0.6108057   0.2350992  -0.3237724), wk =   0.0060000
        k(   64) = (   0.6108057   0.1175496  -0.2833008), wk =   0.0060000
        k(   65) = (   0.6108057  -0.0000000  -0.2428293), wk =   0.0060000
        k(   66) = (   0.6108057  -0.1175496  -0.2023577), wk =   0.0060000
        k(   67) = (   0.5090047   0.2938740  -0.2833008), wk =   0.0060000
        k(   68) = (   0.5090047   0.1763244  -0.2428293), wk =   0.0060000
        k(   69) = (   0.5090047   0.0587748  -0.2023577), wk =   0.0060000
        k(   70) = (   0.4072038   0.2350992  -0.2023577), wk =   0.0060000
        k(   71) = (   0.4072038   0.1175496  -0.1618862), wk =   0.0060000
        k(   72) = (   0.3054028   0.1763244  -0.1214146), wk =   0.0060000
        k(   73) = (   0.0000000  -0.0000000   0.2428293), wk =   0.0020000
        k(   74) = (   0.0000000  -0.1175496   0.2833008), wk =   0.0060000
        k(   75) = (   0.0000000  -0.2350992   0.3237724), wk =   0.0060000
        k(   76) = (   0.0000000   0.8228473  -0.0404715), wk =   0.0060000
        k(   77) = (   0.0000000   0.7052977   0.0000000), wk =   0.0060000
        k(   78) = (   0.0000000   0.5877480   0.0404715), wk =   0.0060000
        k(   79) = (   0.0000000   0.4701984   0.0809431), wk =   0.0060000
        k(   80) = (  -0.1018009  -0.0587748   0.3237724), wk =   0.0060000
        k(   81) = (  -0.1018009  -0.1763244   0.3642439), wk =   0.0060000
        k(   82) = (  -0.1018009   0.8816221   0.0000000), wk =   0.0060000
        k(   83) = (  -0.1018009   0.7640725   0.0404715), wk =   0.0060000
        k(   84) = (  -0.1018009   0.6465229   0.0809431), wk =   0.0060000
        k(   85) = (  -0.1018009   0.5289732   0.1214146), wk =   0.0060000
        k(   86) = (  -0.2036019  -0.1175496   0.4047155), wk =   0.0060000
        k(   87) = (  -0.2036019   0.9403969   0.0404715), wk =   0.0060000
        k(   88) = (  -0.2036019   0.8228473   0.0809431), wk =   0.0060000
        k(   89) = (  -0.2036019   0.7052977   0.1214146), wk =   0.0060000
        k(   90) = (  -0.2036019   0.5877480   0.1618862), wk =   0.0060000
        k(   91) = (   0.7126066   0.4114236  -0.3237724), wk =   0.0060000
        k(   92) = (   0.7126066   0.2938740  -0.2833008), wk =   0.0060000
        k(   93) = (   0.7126066   0.1763244  -0.2428293), wk =   0.0060000
        k(   94) = (   0.7126066   0.0587748  -0.2023577), wk =   0.0060000
        k(   95) = (   0.6108057   0.3526488  -0.2428293), wk =   0.0060000
        k(   96) = (   0.6108057   0.2350992  -0.2023577), wk =   0.0060000
        k(   97) = (   0.5090047   0.2938740  -0.1618862), wk =   0.0060000
        k(   98) = (  -0.0000000  -0.0000000   0.3642439), wk =   0.0020000
        k(   99) = (  -0.0000000  -0.1175496   0.4047155), wk =   0.0060000
        k(  100) = (  -0.0000000   0.9403969   0.0404715), wk =   0.0060000
        k(  101) = (  -0.0000000   0.8228473   0.0809431), wk =   0.0060000
        k(  102) = (  -0.0000000   0.7052977   0.1214146), wk =   0.0060000
        k(  103) = (  -0.1018009  -0.0587748   0.4451870), wk =   0.0060000
        k(  104) = (  -0.1018009   0.9991717   0.0809431), wk =   0.0060000
        k(  105) = (  -0.1018009   0.8816221   0.1214146), wk =   0.0060000
        k(  106) = (  -0.1018009   0.7640725   0.1618862), wk =   0.0060000
        k(  107) = (   0.8144076   0.4701984  -0.2833008), wk =   0.0060000
        k(  108) = (   0.8144076   0.3526488  -0.2428293), wk =   0.0060000
        k(  109) = (   0.8144076   0.2350992  -0.2023577), wk =   0.0060000
        k(  110) = (   0.7126066   0.4114236  -0.2023577), wk =   0.0060000
        k(  111) = (   0.0000000  -0.0000000   0.4856586), wk =   0.0020000
        k(  112) = (   0.0000000   1.0579465   0.1214146), wk =   0.0060000
        k(  113) = (   0.0000000   0.9403969   0.1618862), wk =   0.0060000
        k(  114) = (   0.9162085   0.5289732  -0.2428293), wk =   0.0060000
        k(  115) = (   0.9162085   0.4114236  -0.2023577), wk =   0.0060000
        k(  116) = (  -0.0000000   0.0000000  -0.6070732), wk =   0.0010000
        k(  117) = (  -0.1018009   0.1763244  -0.1214146), wk =   0.0060000
        k(  118) = (  -0.1018009   0.2938740  -0.1618862), wk =   0.0060000
        k(  119) = (  -0.1018009   0.4114236  -0.2023577), wk =   0.0060000
        k(  120) = (  -0.1018009  -0.6465229   0.1618862), wk =   0.0060000
        k(  121) = (  -0.1018009  -0.5289732   0.1214146), wk =   0.0060000
        k(  122) = (  -0.1018009  -0.4114236   0.0809431), wk =   0.0060000
        k(  123) = (  -0.1018009  -0.2938740   0.0404715), wk =   0.0060000
        k(  124) = (  -0.2036019   0.2350992  -0.2023577), wk =   0.0060000
        k(  125) = (  -0.2036019   0.3526488  -0.2428293), wk =   0.0060000
        k(  126) = (  -0.2036019  -0.7052977   0.1214146), wk =   0.0060000
        k(  127) = (  -0.2036019  -0.5877480   0.0809431), wk =   0.0060000
        k(  128) = (  -0.2036019  -0.4701984   0.0404715), wk =   0.0060000
        k(  129) = (  -0.3054028   0.2938740  -0.2833008), wk =   0.0060000
        k(  130) = (  -0.3054028  -0.7640725   0.0809431), wk =   0.0060000
        k(  131) = (  -0.3054028  -0.6465229   0.0404715), wk =   0.0060000
        k(  132) = (  -0.4072038  -0.8228473   0.0404715), wk =   0.0060000
        k(  133) = (  -0.1018009   0.1763244  -0.2428293), wk =   0.0060000
        k(  134) = (  -0.1018009   0.2938740  -0.2833008), wk =   0.0060000
        k(  135) = (  -0.1018009  -0.7640725   0.0809431), wk =   0.0060000
        k(  136) = (  -0.1018009  -0.6465229   0.0404715), wk =   0.0060000
        k(  137) = (  -0.1018009  -0.5289732   0.0000000), wk =   0.0060000
        k(  138) = (  -0.1018009  -0.4114236  -0.0404715), wk =   0.0060000
        k(  139) = (  -0.1018009  -0.2938740  -0.0809431), wk =   0.0060000
        k(  140) = (  -0.2036019   0.2350992  -0.3237724), wk =   0.0060000
        k(  141) = (  -0.2036019  -0.8228473   0.0404715), wk =   0.0060000
        k(  142) = (  -0.2036019  -0.7052977   0.0000000), wk =   0.0060000
        k(  143) = (  -0.2036019  -0.5877480  -0.0404715), wk =   0.0060000
        k(  144) = (  -0.2036019  -0.4701984  -0.0809431), wk =   0.0060000
        k(  145) = (  -0.2036019  -0.3526488  -0.1214146), wk =   0.0060000
        k(  146) = (  -0.3054028  -0.8816221  -0.0000000), wk =   0.0060000
        k(  147) = (  -0.3054028  -0.7640725  -0.0404715), wk =   0.0060000
        k(  148) = (  -0.3054028  -0.6465229  -0.0809431), wk =   0.0060000
        k(  149) = (  -0.3054028  -0.5289732  -0.1214146), wk =   0.0060000
        k(  150) = (  -0.3054028  -0.4114236  -0.1618862), wk =   0.0060000
        k(  151) = (   0.6108057  -0.2350992   0.3237724), wk =   0.0060000
        k(  152) = (   0.6108057  -0.1175496   0.2833008), wk =   0.0060000
        k(  153) = (   0.6108057   0.0000000   0.2428293), wk =   0.0060000
        k(  154) = (   0.5090047  -0.1763244   0.2428293), wk =   0.0060000
        k(  155) = (   0.5090047  -0.0587748   0.2023577), wk =   0.0060000
        k(  156) = (   0.4072038  -0.1175496   0.1618862), wk =   0.0060000
        k(  157) = (  -0.1018009   0.1763244  -0.3642439), wk =   0.0060000
        k(  158) = (  -0.1018009  -0.8816221   0.0000000), wk =   0.0060000
        k(  159) = (  -0.1018009  -0.7640725  -0.0404715), wk =   0.0060000
        k(  160) = (  -0.1018009  -0.6465229  -0.0809431), wk =   0.0060000
        k(  161) = (  -0.1018009  -0.5289732  -0.1214146), wk =   0.0060000
        k(  162) = (  -0.2036019  -0.9403969  -0.0404715), wk =   0.0060000
        k(  163) = (  -0.2036019  -0.8228473  -0.0809431), wk =   0.0060000
        k(  164) = (  -0.2036019  -0.7052977  -0.1214146), wk =   0.0060000
        k(  165) = (  -0.2036019  -0.5877480  -0.1618862), wk =   0.0060000
        k(  166) = (   0.7126066  -0.2938740   0.2833008), wk =   0.0060000
        k(  167) = (   0.7126066  -0.1763244   0.2428293), wk =   0.0060000
        k(  168) = (   0.6108057  -0.2350992   0.2023577), wk =   0.0060000
        k(  169) = (  -0.1018009  -0.9991717  -0.0809431), wk =   0.0060000
        k(  170) = (  -0.1018009  -0.8816221  -0.1214146), wk =   0.0060000
        k(  171) = (  -0.1018009  -0.7640725  -0.1618862), wk =   0.0060000
        k(  172) = (   0.8144076  -0.3526488   0.2428293), wk =   0.0060000

                       cryst. coord.
        k(    1) = (   0.0000000   0.0000000   0.0000000), wk =   0.0010000
        k(    2) = (   0.0000000   0.0000000   0.1000000), wk =   0.0060000
        k(    3) = (   0.0000000   0.0000000   0.2000000), wk =   0.0060000
        k(    4) = (   0.0000000   0.0000000   0.3000000), wk =   0.0060000
        k(    5) = (   0.0000000   0.0000000   0.4000000), wk =   0.0060000
        k(    6) = (  -0.0000000   0.0000000  -0.5000000), wk =   0.0030000
        k(    7) = (   0.0000000   0.1000000   0.1000000), wk =   0.0060000
        k(    8) = (   0.0000000   0.1000000   0.2000000), wk =   0.0060000
        k(    9) = (   0.0000000   0.1000000   0.3000000), wk =   0.0060000
        k(   10) = (   0.0000000   0.1000000   0.4000000), wk =   0.0060000
        k(   11) = (  -0.0000000   0.1000000  -0.5000000), wk =   0.0060000
        k(   12) = (  -0.0000000   0.1000000  -0.4000000), wk =   0.0060000
        k(   13) = (  -0.0000000   0.1000000  -0.3000000), wk =   0.0060000
        k(   14) = (  -0.0000000   0.1000000  -0.2000000), wk =   0.0060000
        k(   15) = (  -0.0000000   0.1000000  -0.1000000), wk =   0.0060000
        k(   16) = (   0.0000000   0.2000000   0.2000000), wk =   0.0060000
        k(   17) = (  -0.0000000   0.2000000   0.3000000), wk =   0.0060000
        k(   18) = (   0.0000000   0.2000000   0.4000000), wk =   0.0060000
        k(   19) = (  -0.0000000   0.2000000  -0.5000000), wk =   0.0060000
        k(   20) = (  -0.0000000   0.2000000  -0.4000000), wk =   0.0060000
        k(   21) = (  -0.0000000   0.2000000  -0.3000000), wk =   0.0060000
        k(   22) = (  -0.0000000   0.2000000  -0.2000000), wk =   0.0060000
        k(   23) = (  -0.0000000   0.3000000   0.3000000), wk =   0.0060000
        k(   24) = (   0.0000000   0.3000000   0.4000000), wk =   0.0060000
        k(   25) = (  -0.0000000   0.3000000  -0.5000000), wk =   0.0060000
        k(   26) = (  -0.0000000   0.3000000  -0.4000000), wk =   0.0060000
        k(   27) = (   0.0000000   0.3000000  -0.3000000), wk =   0.0060000
        k(   28) = (   0.0000000   0.4000000   0.4000000), wk =   0.0060000
        k(   29) = (  -0.0000000   0.4000000  -0.5000000), wk =   0.0060000
        k(   30) = (  -0.0000000   0.4000000  -0.4000000), wk =   0.0060000
        k(   31) = (  -0.0000000  -0.5000000  -0.5000000), wk =   0.0030000
        k(   32) = (   0.1000000   0.1000000   0.1000000), wk =   0.0020000
        k(   33) = (   0.1000000   0.1000000   0.2000000), wk =   0.0060000
        k(   34) = (   0.1000000   0.1000000   0.3000000), wk =   0.0060000
        k(   35) = (   0.1000000   0.1000000   0.4000000), wk =   0.0060000
        k(   36) = (   0.1000000   0.1000000  -0.5000000), wk =   0.0060000
        k(   37) = (   0.1000000   0.1000000  -0.4000000), wk =   0.0060000
        k(   38) = (   0.1000000   0.1000000  -0.3000000), wk =   0.0060000
        k(   39) = (   0.1000000   0.1000000  -0.2000000), wk =   0.0060000
        k(   40) = (   0.1000000   0.1000000  -0.1000000), wk =   0.0060000
        k(   41) = (   0.1000000   0.2000000   0.2000000), wk =   0.0060000
        k(   42) = (   0.1000000   0.2000000   0.3000000), wk =   0.0060000
        k(   43) = (   0.1000000   0.2000000   0.4000000), wk =   0.0060000
        k(   44) = (   0.1000000   0.2000000  -0.5000000), wk =   0.0060000
        k(   45) = (   0.1000000   0.2000000  -0.4000000), wk =   0.0060000
        k(   46) = (   0.1000000   0.2000000  -0.3000000), wk =   0.0060000
        k(   47) = (   0.1000000   0.2000000  -0.2000000), wk =   0.0060000
        k(   48) = (   0.1000000   0.2000000  -0.1000000), wk =   0.0060000
        k(   49) = (   0.1000000   0.3000000   0.3000000), wk =   0.0060000
        k(   50) = (   0.1000000   0.3000000   0.4000000), wk =   0.0060000
        k(   51) = (   0.1000000   0.3000000  -0.5000000), wk =   0.0060000
        k(   52) = (   0.1000000   0.3000000  -0.4000000), wk =   0.0060000
        k(   53) = (   0.1000000   0.3000000  -0.3000000), wk =   0.0060000
        k(   54) = (   0.1000000   0.3000000  -0.2000000), wk =   0.0060000
        k(   55) = (   0.1000000   0.3000000  -0.1000000), wk =   0.0060000
        k(   56) = (   0.1000000   0.4000000   0.4000000), wk =   0.0060000
        k(   57) = (   0.1000000   0.4000000  -0.5000000), wk =   0.0060000
        k(   58) = (   0.1000000   0.4000000  -0.4000000), wk =   0.0060000
        k(   59) = (   0.1000000   0.4000000  -0.3000000), wk =   0.0060000
        k(   60) = (   0.1000000   0.4000000  -0.2000000), wk =   0.0060000
        k(   61) = (   0.1000000   0.4000000  -0.1000000), wk =   0.0060000
        k(   62) = (   0.1000000  -0.5000000  -0.5000000), wk =   0.0060000
        k(   63) = (   0.1000000  -0.5000000  -0.4000000), wk =   0.0060000
        k(   64) = (   0.1000000  -0.5000000  -0.3000000), wk =   0.0060000
        k(   65) = (   0.1000000  -0.5000000  -0.2000000), wk =   0.0060000
        k(   66) = (   0.1000000  -0.5000000  -0.1000000), wk =   0.0060000
        k(   67) = (   0.1000000  -0.4000000  -0.4000000), wk =   0.0060000
        k(   68) = (   0.1000000  -0.4000000  -0.3000000), wk =   0.0060000
        k(   69) = (   0.1000000  -0.4000000  -0.2000000), wk =   0.0060000
        k(   70) = (   0.1000000  -0.3000000  -0.3000000), wk =   0.0060000
        k(   71) = (   0.1000000  -0.3000000  -0.2000000), wk =   0.0060000
        k(   72) = (   0.1000000  -0.2000000  -0.2000000), wk =   0.0060000
        k(   73) = (   0.2000000   0.2000000   0.2000000), wk =   0.0020000
        k(   74) = (   0.2000000   0.2000000   0.3000000), wk =   0.0060000
        k(   75) = (   0.2000000   0.2000000   0.4000000), wk =   0.0060000
        k(   76) = (   0.2000000   0.2000000  -0.5000000), wk =   0.0060000
        k(   77) = (   0.2000000   0.2000000  -0.4000000), wk =   0.0060000
        k(   78) = (   0.2000000   0.2000000  -0.3000000), wk =   0.0060000
        k(   79) = (   0.2000000   0.2000000  -0.2000000), wk =   0.0060000
        k(   80) = (   0.2000000   0.3000000   0.3000000), wk =   0.0060000
        k(   81) = (   0.2000000   0.3000000   0.4000000), wk =   0.0060000
        k(   82) = (   0.2000000   0.3000000  -0.5000000), wk =   0.0060000
        k(   83) = (   0.2000000   0.3000000  -0.4000000), wk =   0.0060000
        k(   84) = (   0.2000000   0.3000000  -0.3000000), wk =   0.0060000
        k(   85) = (   0.2000000   0.3000000  -0.2000000), wk =   0.0060000
        k(   86) = (   0.2000000   0.4000000   0.4000000), wk =   0.0060000
        k(   87) = (   0.2000000   0.4000000  -0.5000000), wk =   0.0060000
        k(   88) = (   0.2000000   0.4000000  -0.4000000), wk =   0.0060000
        k(   89) = (   0.2000000   0.4000000  -0.3000000), wk =   0.0060000
        k(   90) = (   0.2000000   0.4000000  -0.2000000), wk =   0.0060000
        k(   91) = (   0.2000000  -0.5000000  -0.5000000), wk =   0.0060000
        k(   92) = (   0.2000000  -0.5000000  -0.4000000), wk =   0.0060000
        k(   93) = (   0.2000000  -0.5000000  -0.3000000), wk =   0.0060000
        k(   94) = (   0.2000000  -0.5000000  -0.2000000), wk =   0.0060000
        k(   95) = (   0.2000000  -0.4000000  -0.4000000), wk =   0.0060000
        k(   96) = (   0.2000000  -0.4000000  -0.3000000), wk =   0.0060000
        k(   97) = (   0.2000000  -0.3000000  -0.3000000), wk =   0.0060000
        k(   98) = (   0.3000000   0.3000000   0.3000000), wk =   0.0020000
        k(   99) = (   0.3000000   0.3000000   0.4000000), wk =   0.0060000
        k(  100) = (   0.3000000   0.3000000  -0.5000000), wk =   0.0060000
        k(  101) = (   0.3000000   0.3000000  -0.4000000), wk =   0.0060000
        k(  102) = (   0.3000000   0.3000000  -0.3000000), wk =   0.0060000
        k(  103) = (   0.3000000   0.4000000   0.4000000), wk =   0.0060000
        k(  104) = (   0.3000000   0.4000000  -0.5000000), wk =   0.0060000
        k(  105) = (   0.3000000   0.4000000  -0.4000000), wk =   0.0060000
        k(  106) = (   0.3000000   0.4000000  -0.3000000), wk =   0.0060000
        k(  107) = (   0.3000000  -0.5000000  -0.5000000), wk =   0.0060000
        k(  108) = (   0.3000000  -0.5000000  -0.4000000), wk =   0.0060000
        k(  109) = (   0.3000000  -0.5000000  -0.3000000), wk =   0.0060000
        k(  110) = (   0.3000000  -0.4000000  -0.4000000), wk =   0.0060000
        k(  111) = (   0.4000000   0.4000000   0.4000000), wk =   0.0020000
        k(  112) = (   0.4000000   0.4000000  -0.5000000), wk =   0.0060000
        k(  113) = (   0.4000000   0.4000000  -0.4000000), wk =   0.0060000
        k(  114) = (   0.4000000  -0.5000000  -0.5000000), wk =   0.0060000
        k(  115) = (   0.4000000  -0.5000000  -0.4000000), wk =   0.0060000
        k(  116) = (  -0.5000000  -0.5000000  -0.5000000), wk =   0.0010000
        k(  117) = (  -0.1000000   0.0000000  -0.2000000), wk =   0.0060000
        k(  118) = (  -0.1000000  -0.0000000  -0.3000000), wk =   0.0060000
        k(  119) = (  -0.1000000  -0.0000000  -0.4000000), wk =   0.0060000
        k(  120) = (  -0.1000000   0.0000000   0.5000000), wk =   0.0060000
        k(  121) = (  -0.1000000   0.0000000   0.4000000), wk =   0.0060000
        k(  122) = (  -0.1000000   0.0000000   0.3000000), wk =   0.0060000
        k(  123) = (  -0.1000000   0.0000000   0.2000000), wk =   0.0060000
        k(  124) = (  -0.2000000   0.0000000  -0.3000000), wk =   0.0060000
        k(  125) = (  -0.2000000   0.0000000  -0.4000000), wk =   0.0060000
        k(  126) = (  -0.2000000   0.0000000   0.5000000), wk =   0.0060000
        k(  127) = (  -0.2000000   0.0000000   0.4000000), wk =   0.0060000
        k(  128) = (  -0.2000000   0.0000000   0.3000000), wk =   0.0060000
        k(  129) = (  -0.3000000  -0.0000000  -0.4000000), wk =   0.0060000
        k(  130) = (  -0.3000000  -0.0000000   0.5000000), wk =   0.0060000
        k(  131) = (  -0.3000000   0.0000000   0.4000000), wk =   0.0060000
        k(  132) = (  -0.4000000   0.0000000   0.5000000), wk =   0.0060000
        k(  133) = (  -0.2000000  -0.1000000  -0.3000000), wk =   0.0060000
        k(  134) = (  -0.2000000  -0.1000000  -0.4000000), wk =   0.0060000
        k(  135) = (  -0.2000000  -0.1000000   0.5000000), wk =   0.0060000
        k(  136) = (  -0.2000000  -0.1000000   0.4000000), wk =   0.0060000
        k(  137) = (  -0.2000000  -0.1000000   0.3000000), wk =   0.0060000
        k(  138) = (  -0.2000000  -0.1000000   0.2000000), wk =   0.0060000
        k(  139) = (  -0.2000000  -0.1000000   0.1000000), wk =   0.0060000
        k(  140) = (  -0.3000000  -0.1000000  -0.4000000), wk =   0.0060000
        k(  141) = (  -0.3000000  -0.1000000   0.5000000), wk =   0.0060000
        k(  142) = (  -0.3000000  -0.1000000   0.4000000), wk =   0.0060000
        k(  143) = (  -0.3000000  -0.1000000   0.3000000), wk =   0.0060000
        k(  144) = (  -0.3000000  -0.1000000   0.2000000), wk =   0.0060000
        k(  145) = (  -0.3000000  -0.1000000   0.1000000), wk =   0.0060000
        k(  146) = (  -0.4000000  -0.1000000   0.5000000), wk =   0.0060000
        k(  147) = (  -0.4000000  -0.1000000   0.4000000), wk =   0.0060000
        k(  148) = (  -0.4000000  -0.1000000   0.3000000), wk =   0.0060000
        k(  149) = (  -0.4000000  -0.1000000   0.2000000), wk =   0.0060000
        k(  150) = (  -0.4000000  -0.1000000   0.1000000), wk =   0.0060000
        k(  151) = (   0.5000000  -0.1000000   0.4000000), wk =   0.0060000
        k(  152) = (   0.5000000  -0.1000000   0.3000000), wk =   0.0060000
        k(  153) = (   0.5000000  -0.1000000   0.2000000), wk =   0.0060000
        k(  154) = (   0.4000000  -0.1000000   0.3000000), wk =   0.0060000
        k(  155) = (   0.4000000  -0.1000000   0.2000000), wk =   0.0060000
        k(  156) = (   0.3000000  -0.1000000   0.2000000), wk =   0.0060000
        k(  157) = (  -0.3000000  -0.2000000  -0.4000000), wk =   0.0060000
        k(  158) = (  -0.3000000  -0.2000000   0.5000000), wk =   0.0060000
        k(  159) = (  -0.3000000  -0.2000000   0.4000000), wk =   0.0060000
        k(  160) = (  -0.3000000  -0.2000000   0.3000000), wk =   0.0060000
        k(  161) = (  -0.3000000  -0.2000000   0.2000000), wk =   0.0060000
        k(  162) = (  -0.4000000  -0.2000000   0.5000000), wk =   0.0060000
        k(  163) = (  -0.4000000  -0.2000000   0.4000000), wk =   0.0060000
        k(  164) = (  -0.4000000  -0.2000000   0.3000000), wk =   0.0060000
        k(  165) = (  -0.4000000  -0.2000000   0.2000000), wk =   0.0060000
        k(  166) = (   0.5000000  -0.2000000   0.4000000), wk =   0.0060000
        k(  167) = (   0.5000000  -0.2000000   0.3000000), wk =   0.0060000
        k(  168) = (   0.4000000  -0.2000000   0.3000000), wk =   0.0060000
        k(  169) = (  -0.4000000  -0.3000000   0.5000000), wk =   0.0060000
        k(  170) = (  -0.4000000  -0.3000000   0.4000000), wk =   0.0060000
        k(  171) = (  -0.4000000  -0.3000000   0.3000000), wk =   0.0060000
        k(  172) = (   0.5000000  -0.3000000   0.4000000), wk =   0.0060000

     Dense  grid:    95543 G-vectors     FFT dimensions: (  72,  72,  72)

     Smooth grid:    39561 G-vectors     FFT dimensions: (  48,  48,  48)

     Dynamical RAM for                 wfc:       3.25 MB

     Dynamical RAM for     wfc (w. buffer):    1120.05 MB

     Dynamical RAM for           str. fact:       4.37 MB

     Dynamical RAM for           local pot:       0.00 MB

     Dynamical RAM for          nlocal pot:       7.40 MB

     Dynamical RAM for                qrad:      10.96 MB

     Dynamical RAM for          rho,v,vnew:      25.83 MB

     Dynamical RAM for               rhoin:       8.61 MB

     Dynamical RAM for            rho*nmix:      46.65 MB

     Dynamical RAM for           G-vectors:       5.77 MB

     Dynamical RAM for          h,s,v(r/c):       0.34 MB

     Dynamical RAM for          <psi|beta>:       0.06 MB

     Dynamical RAM for                 psi:       6.49 MB

     Dynamical RAM for                hpsi:       6.49 MB

     Dynamical RAM for                spsi:       6.49 MB

     Dynamical RAM for      wfcinit/wfcrot:       7.15 MB

     Dynamical RAM for           addusdens:     298.86 MB

     Dynamical RAM for          addusforce:     313.49 MB

     Dynamical RAM for         addusstress:     330.21 MB

     Estimated static dynamical RAM per process >       1.18 GB

     Estimated max dynamical RAM per process >       1.55 GB

     Check: negative core charge=   -0.000003
     Generating pointlists ...
     new r_m :   0.1447 (alat units)  1.5399 (a.u.) for type    1
     new r_m :   0.1447 (alat units)  1.5399 (a.u.) for type    2
     new r_m :   0.1567 (alat units)  1.6672 (a.u.) for type    3

     Initial potential from superposition of free atoms

     starting charge      69.9983, renormalised to      71.0000
     Starting wfcs are   47 randomized atomic wfcs

     total cpu time spent up to now is        9.0 secs

     per-process dynamical memory:  1874.2 Mb

     Self-consistent Calculation
[tb_dev] Currently allocated     5.83E+00 Mbytes, locked:    0 /  12
[tb_pin] Currently allocated     0.00E+00 Mbytes, locked:    0 /   0

     iteration #  1     ecut=    50.00 Ry     beta= 0.40
     Davidson diagonalization with overlap

---- Real-time Memory Report at c_bands before calling an iterative solver
          2039 MiB given to the printing process from OS
          1838 MiB allocation reported by mallinfo(arena+hblkhd)
         57583 MiB available memory on the node where the printing process lives
     GPU memory used/free/total (MiB): 992 / 15288 / 16280
------------------
     ethr =  1.00E-02,  avg # of iterations =  3.1

     total cpu time spent up to now is       20.4 secs

     total energy              =    -702.40001345 Ry
     estimated scf accuracy    <       1.54682889 Ry

     total magnetization       =     3.04 Bohr mag/cell
     absolute magnetization    =     3.34 Bohr mag/cell
[tb_dev] Currently allocated     5.83E+00 Mbytes, locked:    0 /  10
[tb_pin] Currently allocated     0.00E+00 Mbytes, locked:    0 /   0

     iteration #  2     ecut=    50.00 Ry     beta= 0.40
     Davidson diagonalization with overlap

---- Real-time Memory Report at c_bands before calling an iterative solver
          2082 MiB given to the printing process from OS
          1880 MiB allocation reported by mallinfo(arena+hblkhd)
         57560 MiB available memory on the node where the printing process lives
     GPU memory used/free/total (MiB): 1382 / 14898 / 16280
------------------
     ethr =  2.18E-03,  avg # of iterations =  2.6

     total cpu time spent up to now is       33.0 secs

     total energy              =    -702.74373692 Ry
     estimated scf accuracy    <       0.26960081 Ry

     total magnetization       =     3.00 Bohr mag/cell
     absolute magnetization    =     3.24 Bohr mag/cell
[tb_dev] Currently allocated     5.83E+00 Mbytes, locked:    0 /  10
[tb_pin] Currently allocated     0.00E+00 Mbytes, locked:    0 /   0

     iteration #  3     ecut=    50.00 Ry     beta= 0.40
     Davidson diagonalization with overlap

---- Real-time Memory Report at c_bands before calling an iterative solver
          2086 MiB given to the printing process from OS
          1884 MiB allocation reported by mallinfo(arena+hblkhd)
         57556 MiB available memory on the node where the printing process lives
     GPU memory used/free/total (MiB): 1486 / 14794 / 16280
------------------
     ethr =  3.80E-04,  avg # of iterations =  4.5

     total cpu time spent up to now is       46.8 secs

     total energy              =    -702.81706818 Ry
     estimated scf accuracy    <       0.08016779 Ry

     total magnetization       =     3.00 Bohr mag/cell
     absolute magnetization    =     3.17 Bohr mag/cell
[tb_dev] Currently allocated     5.83E+00 Mbytes, locked:    0 /  10
[tb_pin] Currently allocated     0.00E+00 Mbytes, locked:    0 /   0

     iteration #  4     ecut=    50.00 Ry     beta= 0.40
     Davidson diagonalization with overlap

---- Real-time Memory Report at c_bands before calling an iterative solver
          2088 MiB given to the printing process from OS
          1886 MiB allocation reported by mallinfo(arena+hblkhd)
         57557 MiB available memory on the node where the printing process lives
     GPU memory used/free/total (MiB): 1486 / 14794 / 16280
------------------
     ethr =  1.13E-04,  avg # of iterations =  2.8

     total cpu time spent up to now is       58.2 secs

     total energy              =    -702.82637399 Ry
     estimated scf accuracy    <       0.01588764 Ry

     total magnetization       =     3.00 Bohr mag/cell
     absolute magnetization    =     3.08 Bohr mag/cell
[tb_dev] Currently allocated     5.83E+00 Mbytes, locked:    0 /  10
[tb_pin] Currently allocated     0.00E+00 Mbytes, locked:    0 /   0

     iteration #  5     ecut=    50.00 Ry     beta= 0.40
     Davidson diagonalization with overlap

---- Real-time Memory Report at c_bands before calling an iterative solver
          2092 MiB given to the printing process from OS
          1890 MiB allocation reported by mallinfo(arena+hblkhd)
         57553 MiB available memory on the node where the printing process lives
     GPU memory used/free/total (MiB): 1486 / 14794 / 16280
------------------
     ethr =  2.24E-05,  avg # of iterations =  4.0

     total cpu time spent up to now is       71.9 secs

     total energy              =    -702.82851515 Ry
     estimated scf accuracy    <       0.00138958 Ry

     total magnetization       =     3.00 Bohr mag/cell
     absolute magnetization    =     3.07 Bohr mag/cell
[tb_dev] Currently allocated     5.83E+00 Mbytes, locked:    0 /  10
[tb_pin] Currently allocated     0.00E+00 Mbytes, locked:    0 /   0

     iteration #  6     ecut=    50.00 Ry     beta= 0.40
     Davidson diagonalization with overlap

---- Real-time Memory Report at c_bands before calling an iterative solver
          2093 MiB given to the printing process from OS
          1891 MiB allocation reported by mallinfo(arena+hblkhd)
         57554 MiB available memory on the node where the printing process lives
     GPU memory used/free/total (MiB): 1486 / 14794 / 16280
------------------
     ethr =  1.96E-06,  avg # of iterations =  3.5

     total cpu time spent up to now is       85.1 secs

     total energy              =    -702.82875496 Ry
     estimated scf accuracy    <       0.00009192 Ry

     total magnetization       =     3.00 Bohr mag/cell
     absolute magnetization    =     3.06 Bohr mag/cell
[tb_dev] Currently allocated     5.83E+00 Mbytes, locked:    0 /  10
[tb_pin] Currently allocated     0.00E+00 Mbytes, locked:    0 /   0

     iteration #  7     ecut=    50.00 Ry     beta= 0.40
     Davidson diagonalization with overlap

---- Real-time Memory Report at c_bands before calling an iterative solver
          2098 MiB given to the printing process from OS
          1896 MiB allocation reported by mallinfo(arena+hblkhd)
         57549 MiB available memory on the node where the printing process lives
     GPU memory used/free/total (MiB): 1486 / 14794 / 16280
------------------
     ethr =  1.29E-07,  avg # of iterations =  2.0

     total cpu time spent up to now is       95.8 secs

     total energy              =    -702.82878059 Ry
     estimated scf accuracy    <       0.00002806 Ry

     total magnetization       =     3.00 Bohr mag/cell
     absolute magnetization    =     3.06 Bohr mag/cell
[tb_dev] Currently allocated     5.83E+00 Mbytes, locked:    0 /  10
[tb_pin] Currently allocated     0.00E+00 Mbytes, locked:    0 /   0

     iteration #  8     ecut=    50.00 Ry     beta= 0.40
     Davidson diagonalization with overlap

---- Real-time Memory Report at c_bands before calling an iterative solver
          2101 MiB given to the printing process from OS
          1899 MiB allocation reported by mallinfo(arena+hblkhd)
         57548 MiB available memory on the node where the printing process lives
     GPU memory used/free/total (MiB): 1486 / 14794 / 16280
------------------
     ethr =  3.95E-08,  avg # of iterations =  2.0

     total cpu time spent up to now is      106.9 secs

     total energy              =    -702.82879377 Ry
     estimated scf accuracy    <       0.00002445 Ry

     total magnetization       =     3.00 Bohr mag/cell
     absolute magnetization    =     3.05 Bohr mag/cell
[tb_dev] Currently allocated     5.83E+00 Mbytes, locked:    0 /  10
[tb_pin] Currently allocated     0.00E+00 Mbytes, locked:    0 /   0

     iteration #  9     ecut=    50.00 Ry     beta= 0.40
     Davidson diagonalization with overlap

---- Real-time Memory Report at c_bands before calling an iterative solver
          2103 MiB given to the printing process from OS
          1901 MiB allocation reported by mallinfo(arena+hblkhd)
         57544 MiB available memory on the node where the printing process lives
     GPU memory used/free/total (MiB): 1510 / 14770 / 16280
------------------
     ethr =  3.44E-08,  avg # of iterations =  1.0

     total cpu time spent up to now is      115.7 secs

     total energy              =    -702.82878500 Ry
     estimated scf accuracy    <       0.00002424 Ry

     total magnetization       =     3.00 Bohr mag/cell
     absolute magnetization    =     3.05 Bohr mag/cell
[tb_dev] Currently allocated     5.83E+00 Mbytes, locked:    0 /  10
[tb_pin] Currently allocated     0.00E+00 Mbytes, locked:    0 /   0

     iteration # 10     ecut=    50.00 Ry     beta= 0.40
     Davidson diagonalization with overlap

---- Real-time Memory Report at c_bands before calling an iterative solver
          2104 MiB given to the printing process from OS
          1902 MiB allocation reported by mallinfo(arena+hblkhd)
         57544 MiB available memory on the node where the printing process lives
     GPU memory used/free/total (MiB): 1510 / 14770 / 16280
------------------
     ethr =  3.41E-08,  avg # of iterations =  2.0

     total cpu time spent up to now is      126.7 secs

     total energy              =    -702.82874085 Ry
     estimated scf accuracy    <       0.00002481 Ry

     total magnetization       =     3.00 Bohr mag/cell
     absolute magnetization    =     3.05 Bohr mag/cell
[tb_dev] Currently allocated     5.83E+00 Mbytes, locked:    0 /  10
[tb_pin] Currently allocated     0.00E+00 Mbytes, locked:    0 /   0

     iteration # 11     ecut=    50.00 Ry     beta= 0.40
     Davidson diagonalization with overlap

---- Real-time Memory Report at c_bands before calling an iterative solver
          2106 MiB given to the printing process from OS
          1902 MiB allocation reported by mallinfo(arena+hblkhd)
         57543 MiB available memory on the node where the printing process lives
     GPU memory used/free/total (MiB): 1510 / 14770 / 16280
------------------
     ethr =  3.41E-08,  avg # of iterations =  2.0

     total cpu time spent up to now is      137.5 secs

     total energy              =    -702.82853702 Ry
     estimated scf accuracy    <       0.00002103 Ry

     total magnetization       =     3.00 Bohr mag/cell
     absolute magnetization    =     3.05 Bohr mag/cell
[tb_dev] Currently allocated     5.83E+00 Mbytes, locked:    0 /  10
[tb_pin] Currently allocated     0.00E+00 Mbytes, locked:    0 /   0

     iteration # 12     ecut=    50.00 Ry     beta= 0.40
     Davidson diagonalization with overlap

---- Real-time Memory Report at c_bands before calling an iterative solver
          2107 MiB given to the printing process from OS
          1902 MiB allocation reported by mallinfo(arena+hblkhd)
         57542 MiB available memory on the node where the printing process lives
     GPU memory used/free/total (MiB): 1510 / 14770 / 16280
------------------
     ethr =  2.96E-08,  avg # of iterations =  3.2

     total cpu time spent up to now is      151.7 secs

     total energy              =    -702.82710962 Ry
     estimated scf accuracy    <       0.00004361 Ry

     total magnetization       =     3.00 Bohr mag/cell
     absolute magnetization    =     3.05 Bohr mag/cell
[tb_dev] Currently allocated     5.83E+00 Mbytes, locked:    0 /  10
[tb_pin] Currently allocated     0.00E+00 Mbytes, locked:    0 /   0

     iteration # 13     ecut=    50.00 Ry     beta= 0.40
     Davidson diagonalization with overlap

---- Real-time Memory Report at c_bands before calling an iterative solver
          2107 MiB given to the printing process from OS
          1902 MiB allocation reported by mallinfo(arena+hblkhd)
         57543 MiB available memory on the node where the printing process lives
     GPU memory used/free/total (MiB): 1510 / 14770 / 16280
------------------
     ethr =  2.96E-08,  avg # of iterations =  4.0

     total cpu time spent up to now is      167.5 secs

     total energy              =    -702.82736967 Ry
     estimated scf accuracy    <       0.00009335 Ry

     total magnetization       =     3.00 Bohr mag/cell
     absolute magnetization    =     3.05 Bohr mag/cell
[tb_dev] Currently allocated     5.83E+00 Mbytes, locked:    0 /  10
[tb_pin] Currently allocated     0.00E+00 Mbytes, locked:    0 /   0

     iteration # 14     ecut=    50.00 Ry     beta= 0.40
     Davidson diagonalization with overlap

---- Real-time Memory Report at c_bands before calling an iterative solver
          2107 MiB given to the printing process from OS
          1902 MiB allocation reported by mallinfo(arena+hblkhd)
         57543 MiB available memory on the node where the printing process lives
     GPU memory used/free/total (MiB): 1510 / 14770 / 16280
------------------
     ethr =  2.96E-08,  avg # of iterations =  4.0

     total cpu time spent up to now is      183.4 secs

     total energy              =    -702.82862666 Ry
     estimated scf accuracy    <       0.00005719 Ry

     total magnetization       =     3.00 Bohr mag/cell
     absolute magnetization    =     3.05 Bohr mag/cell
[tb_dev] Currently allocated     5.83E+00 Mbytes, locked:    0 /  10
[tb_pin] Currently allocated     0.00E+00 Mbytes, locked:    0 /   0

     iteration # 15     ecut=    50.00 Ry     beta= 0.40
     Davidson diagonalization with overlap

---- Real-time Memory Report at c_bands before calling an iterative solver
          2107 MiB given to the printing process from OS
          1902 MiB allocation reported by mallinfo(arena+hblkhd)
         57540 MiB available memory on the node where the printing process lives
     GPU memory used/free/total (MiB): 1510 / 14770 / 16280
------------------
     ethr =  2.96E-08,  avg # of iterations =  3.0

     total cpu time spent up to now is      196.5 secs

     total energy              =    -702.82721123 Ry
     estimated scf accuracy    <       0.00002715 Ry

     total magnetization       =     3.00 Bohr mag/cell
     absolute magnetization    =     3.05 Bohr mag/cell
[tb_dev] Currently allocated     5.83E+00 Mbytes, locked:    0 /  10
[tb_pin] Currently allocated     0.00E+00 Mbytes, locked:    0 /   0

     iteration # 16     ecut=    50.00 Ry     beta= 0.40
     Davidson diagonalization with overlap

---- Real-time Memory Report at c_bands before calling an iterative solver
          2107 MiB given to the printing process from OS
          1902 MiB allocation reported by mallinfo(arena+hblkhd)
         57542 MiB available memory on the node where the printing process lives
     GPU memory used/free/total (MiB): 1510 / 14770 / 16280
------------------
     ethr =  2.96E-08,  avg # of iterations =  4.0

     total cpu time spent up to now is      212.4 secs

     total energy              =    -702.82797112 Ry
     estimated scf accuracy    <       0.00024977 Ry

     total magnetization       =     3.00 Bohr mag/cell
     absolute magnetization    =     3.05 Bohr mag/cell
[tb_dev] Currently allocated     5.83E+00 Mbytes, locked:    0 /  10
[tb_pin] Currently allocated     0.00E+00 Mbytes, locked:    0 /   0

     iteration # 17     ecut=    50.00 Ry     beta= 0.40
     Davidson diagonalization with overlap

---- Real-time Memory Report at c_bands before calling an iterative solver
          2107 MiB given to the printing process from OS
          1902 MiB allocation reported by mallinfo(arena+hblkhd)
         57540 MiB available memory on the node where the printing process lives
     GPU memory used/free/total (MiB): 1510 / 14770 / 16280
------------------
     ethr =  2.96E-08,  avg # of iterations =  4.0

     total cpu time spent up to now is      228.0 secs

     total energy              =    -702.82854275 Ry
     estimated scf accuracy    <       0.00002887 Ry

     total magnetization       =     3.00 Bohr mag/cell
     absolute magnetization    =     3.05 Bohr mag/cell
[tb_dev] Currently allocated     5.83E+00 Mbytes, locked:    0 /  10
[tb_pin] Currently allocated     0.00E+00 Mbytes, locked:    0 /   0

     iteration # 18     ecut=    50.00 Ry     beta= 0.40
     Davidson diagonalization with overlap

---- Real-time Memory Report at c_bands before calling an iterative solver
          2107 MiB given to the printing process from OS
          1902 MiB allocation reported by mallinfo(arena+hblkhd)
         57541 MiB available memory on the node where the printing process lives
     GPU memory used/free/total (MiB): 1510 / 14770 / 16280
------------------
     ethr =  2.96E-08,  avg # of iterations =  3.1

     total cpu time spent up to now is      241.9 secs

     total energy              =    -702.82867967 Ry
     estimated scf accuracy    <       0.00005656 Ry

     total magnetization       =     3.00 Bohr mag/cell
     absolute magnetization    =     3.05 Bohr mag/cell
[tb_dev] Currently allocated     5.83E+00 Mbytes, locked:    0 /  10
[tb_pin] Currently allocated     0.00E+00 Mbytes, locked:    0 /   0

     iteration # 19     ecut=    50.00 Ry     beta= 0.40
     Davidson diagonalization with overlap

---- Real-time Memory Report at c_bands before calling an iterative solver
          2107 MiB given to the printing process from OS
          1902 MiB allocation reported by mallinfo(arena+hblkhd)
         57542 MiB available memory on the node where the printing process lives
     GPU memory used/free/total (MiB): 1510 / 14770 / 16280
------------------
     ethr =  2.96E-08,  avg # of iterations =  3.1

     total cpu time spent up to now is      255.5 secs

     total energy              =    -702.82899522 Ry
     estimated scf accuracy    <       0.00016118 Ry

     total magnetization       =     3.00 Bohr mag/cell
     absolute magnetization    =     3.06 Bohr mag/cell
[tb_dev] Currently allocated     5.83E+00 Mbytes, locked:    0 /  10
[tb_pin] Currently allocated     0.00E+00 Mbytes, locked:    0 /   0

     iteration # 20     ecut=    50.00 Ry     beta= 0.40
     Davidson diagonalization with overlap

---- Real-time Memory Report at c_bands before calling an iterative solver
          2107 MiB given to the printing process from OS
          1902 MiB allocation reported by mallinfo(arena+hblkhd)
         57541 MiB available memory on the node where the printing process lives
     GPU memory used/free/total (MiB): 1510 / 14770 / 16280
------------------
     ethr =  2.96E-08,  avg # of iterations =  1.0

     total cpu time spent up to now is      264.3 secs

     total energy              =    -702.82757642 Ry
     estimated scf accuracy    <       0.00016454 Ry

     total magnetization       =     3.00 Bohr mag/cell
     absolute magnetization    =     3.06 Bohr mag/cell
[tb_dev] Currently allocated     5.83E+00 Mbytes, locked:    0 /  10
[tb_pin] Currently allocated     0.00E+00 Mbytes, locked:    0 /   0

     iteration # 21     ecut=    50.00 Ry     beta= 0.40
     Davidson diagonalization with overlap

---- Real-time Memory Report at c_bands before calling an iterative solver
          2107 MiB given to the printing process from OS
          1902 MiB allocation reported by mallinfo(arena+hblkhd)
         57538 MiB available memory on the node where the printing process lives
     GPU memory used/free/total (MiB): 1510 / 14770 / 16280
------------------
     ethr =  2.96E-08,  avg # of iterations =  4.0

     total cpu time spent up to now is      280.0 secs

     total energy              =    -702.82846880 Ry
     estimated scf accuracy    <       0.00002365 Ry

     total magnetization       =     3.00 Bohr mag/cell
     absolute magnetization    =     3.05 Bohr mag/cell
[tb_dev] Currently allocated     5.83E+00 Mbytes, locked:    0 /  10
[tb_pin] Currently allocated     0.00E+00 Mbytes, locked:    0 /   0

     iteration # 22     ecut=    50.00 Ry     beta= 0.40
     Davidson diagonalization with overlap

---- Real-time Memory Report at c_bands before calling an iterative solver
          2107 MiB given to the printing process from OS
          1902 MiB allocation reported by mallinfo(arena+hblkhd)
         57542 MiB available memory on the node where the printing process lives
     GPU memory used/free/total (MiB): 1510 / 14770 / 16280
------------------
     ethr =  2.96E-08,  avg # of iterations =  3.0

     total cpu time spent up to now is      293.5 secs

     total energy              =    -702.82731714 Ry
     estimated scf accuracy    <       0.00005191 Ry

     total magnetization       =     3.00 Bohr mag/cell
     absolute magnetization    =     3.05 Bohr mag/cell
[tb_dev] Currently allocated     5.83E+00 Mbytes, locked:    0 /  10
[tb_pin] Currently allocated     0.00E+00 Mbytes, locked:    0 /   0

     iteration # 23     ecut=    50.00 Ry     beta= 0.40
     Davidson diagonalization with overlap

---- Real-time Memory Report at c_bands before calling an iterative solver
          2107 MiB given to the printing process from OS
          1902 MiB allocation reported by mallinfo(arena+hblkhd)
         57542 MiB available memory on the node where the printing process lives
     GPU memory used/free/total (MiB): 1510 / 14770 / 16280
------------------
     ethr =  2.96E-08,  avg # of iterations =  4.0

     total cpu time spent up to now is      309.3 secs

     total energy              =    -702.82851825 Ry
     estimated scf accuracy    <       0.00009109 Ry

     total magnetization       =     3.00 Bohr mag/cell
     absolute magnetization    =     3.05 Bohr mag/cell
[tb_dev] Currently allocated     5.83E+00 Mbytes, locked:    0 /  10
[tb_pin] Currently allocated     0.00E+00 Mbytes, locked:    0 /   0

     iteration # 24     ecut=    50.00 Ry     beta= 0.40
     Davidson diagonalization with overlap

---- Real-time Memory Report at c_bands before calling an iterative solver
          2107 MiB given to the printing process from OS
          1902 MiB allocation reported by mallinfo(arena+hblkhd)
         57542 MiB available memory on the node where the printing process lives
     GPU memory used/free/total (MiB): 1510 / 14770 / 16280
------------------
     ethr =  2.96E-08,  avg # of iterations =  4.0

     total cpu time spent up to now is      325.2 secs

     total energy              =    -702.82930732 Ry
     estimated scf accuracy    <       0.00029105 Ry

     total magnetization       =     3.00 Bohr mag/cell
     absolute magnetization    =     3.06 Bohr mag/cell
[tb_dev] Currently allocated     5.83E+00 Mbytes, locked:    0 /  10
[tb_pin] Currently allocated     0.00E+00 Mbytes, locked:    0 /   0

     iteration # 25     ecut=    50.00 Ry     beta= 0.40
     Davidson diagonalization with overlap

---- Real-time Memory Report at c_bands before calling an iterative solver
          2107 MiB given to the printing process from OS
          1902 MiB allocation reported by mallinfo(arena+hblkhd)
         57541 MiB available memory on the node where the printing process lives
     GPU memory used/free/total (MiB): 1510 / 14770 / 16280
------------------
     ethr =  2.96E-08,  avg # of iterations =  3.0

     total cpu time spent up to now is      337.8 secs

     total energy              =    -702.82444315 Ry
     estimated scf accuracy    <       0.00037050 Ry

     total magnetization       =     3.00 Bohr mag/cell
     absolute magnetization    =     3.06 Bohr mag/cell
[tb_dev] Currently allocated     5.83E+00 Mbytes, locked:    0 /  10
[tb_pin] Currently allocated     0.00E+00 Mbytes, locked:    0 /   0

     iteration # 26     ecut=    50.00 Ry     beta= 0.40
     Davidson diagonalization with overlap

---- Real-time Memory Report at c_bands before calling an iterative solver
          2107 MiB given to the printing process from OS
          1902 MiB allocation reported by mallinfo(arena+hblkhd)
         57542 MiB available memory on the node where the printing process lives
     GPU memory used/free/total (MiB): 1510 / 14770 / 16280
------------------
     ethr =  2.96E-08,  avg # of iterations =  5.0

     total cpu time spent up to now is      355.6 secs

     total energy              =    -702.82862320 Ry
     estimated scf accuracy    <       0.00003831 Ry

     total magnetization       =     3.00 Bohr mag/cell
     absolute magnetization    =     3.05 Bohr mag/cell
[tb_dev] Currently allocated     5.83E+00 Mbytes, locked:    0 /  10
[tb_pin] Currently allocated     0.00E+00 Mbytes, locked:    0 /   0

     iteration # 27     ecut=    50.00 Ry     beta= 0.40
     Davidson diagonalization with overlap

---- Real-time Memory Report at c_bands before calling an iterative solver
          2107 MiB given to the printing process from OS
          1902 MiB allocation reported by mallinfo(arena+hblkhd)
         57541 MiB available memory on the node where the printing process lives
     GPU memory used/free/total (MiB): 1510 / 14770 / 16280
------------------
     ethr =  2.96E-08,  avg # of iterations =  3.0

     total cpu time spent up to now is      368.7 secs

     total energy              =    -702.82797316 Ry
     estimated scf accuracy    <       0.00005161 Ry

     total magnetization       =     3.00 Bohr mag/cell
     absolute magnetization    =     3.05 Bohr mag/cell
[tb_dev] Currently allocated     5.83E+00 Mbytes, locked:    0 /  10
[tb_pin] Currently allocated     0.00E+00 Mbytes, locked:    0 /   0

     iteration # 28     ecut=    50.00 Ry     beta= 0.40
     Davidson diagonalization with overlap

---- Real-time Memory Report at c_bands before calling an iterative solver
          2107 MiB given to the printing process from OS
          1902 MiB allocation reported by mallinfo(arena+hblkhd)
         57542 MiB available memory on the node where the printing process lives
     GPU memory used/free/total (MiB): 1510 / 14770 / 16280
------------------
     ethr =  2.96E-08,  avg # of iterations =  4.0

     total cpu time spent up to now is      384.4 secs

     total energy              =    -702.82357278 Ry
     estimated scf accuracy    <       0.00027557 Ry

     total magnetization       =     3.00 Bohr mag/cell
     absolute magnetization    =     3.06 Bohr mag/cell
[tb_dev] Currently allocated     5.83E+00 Mbytes, locked:    0 /  10
[tb_pin] Currently allocated     0.00E+00 Mbytes, locked:    0 /   0

     iteration # 29     ecut=    50.00 Ry     beta= 0.40
     Davidson diagonalization with overlap

---- Real-time Memory Report at c_bands before calling an iterative solver
          2107 MiB given to the printing process from OS
          1902 MiB allocation reported by mallinfo(arena+hblkhd)
         57542 MiB available memory on the node where the printing process lives
     GPU memory used/free/total (MiB): 1510 / 14770 / 16280
------------------
     ethr =  2.96E-08,  avg # of iterations =  5.1

     total cpu time spent up to now is      402.5 secs

     total energy              =    -702.82857334 Ry
     estimated scf accuracy    <       0.00018138 Ry

     total magnetization       =     3.00 Bohr mag/cell
     absolute magnetization    =     3.05 Bohr mag/cell
[tb_dev] Currently allocated     5.83E+00 Mbytes, locked:    0 /  10
[tb_pin] Currently allocated     0.00E+00 Mbytes, locked:    0 /   0

     iteration # 30     ecut=    50.00 Ry     beta= 0.40
     Davidson diagonalization with overlap

---- Real-time Memory Report at c_bands before calling an iterative solver
          2107 MiB given to the printing process from OS
          1902 MiB allocation reported by mallinfo(arena+hblkhd)
         57541 MiB available memory on the node where the printing process lives
     GPU memory used/free/total (MiB): 1510 / 14770 / 16280
------------------
     ethr =  2.96E-08,  avg # of iterations =  3.0

     total cpu time spent up to now is      415.6 secs

     total energy              =    -702.82842345 Ry
     estimated scf accuracy    <       0.00006121 Ry

     total magnetization       =     3.00 Bohr mag/cell
     absolute magnetization    =     3.05 Bohr mag/cell
[tb_dev] Currently allocated     5.83E+00 Mbytes, locked:    0 /  10
[tb_pin] Currently allocated     0.00E+00 Mbytes, locked:    0 /   0

     iteration # 31     ecut=    50.00 Ry     beta= 0.40
     Davidson diagonalization with overlap

---- Real-time Memory Report at c_bands before calling an iterative solver
          2107 MiB given to the printing process from OS
          1902 MiB allocation reported by mallinfo(arena+hblkhd)
         57541 MiB available memory on the node where the printing process lives
     GPU memory used/free/total (MiB): 1510 / 14770 / 16280
------------------
     ethr =  2.96E-08,  avg # of iterations =  3.0

     total cpu time spent up to now is      428.8 secs

     total energy              =    -702.82861564 Ry
     estimated scf accuracy    <       0.00018775 Ry

     total magnetization       =     3.00 Bohr mag/cell
     absolute magnetization    =     3.05 Bohr mag/cell
[tb_dev] Currently allocated     5.83E+00 Mbytes, locked:    0 /  10
[tb_pin] Currently allocated     0.00E+00 Mbytes, locked:    0 /   0

     iteration # 32     ecut=    50.00 Ry     beta= 0.40
     Davidson diagonalization with overlap

---- Real-time Memory Report at c_bands before calling an iterative solver
          2107 MiB given to the printing process from OS
          1902 MiB allocation reported by mallinfo(arena+hblkhd)
         57541 MiB available memory on the node where the printing process lives
     GPU memory used/free/total (MiB): 1510 / 14770 / 16280
------------------
     ethr =  2.96E-08,  avg # of iterations =  2.5

     total cpu time spent up to now is      440.6 secs

     total energy              =    -702.82854022 Ry
     estimated scf accuracy    <       0.00009014 Ry

     total magnetization       =     3.00 Bohr mag/cell
     absolute magnetization    =     3.05 Bohr mag/cell
[tb_dev] Currently allocated     5.83E+00 Mbytes, locked:    0 /  10
[tb_pin] Currently allocated     0.00E+00 Mbytes, locked:    0 /   0

     iteration # 33     ecut=    50.00 Ry     beta= 0.40
     Davidson diagonalization with overlap

---- Real-time Memory Report at c_bands before calling an iterative solver
          2107 MiB given to the printing process from OS
          1902 MiB allocation reported by mallinfo(arena+hblkhd)
         57541 MiB available memory on the node where the printing process lives
     GPU memory used/free/total (MiB): 1510 / 14770 / 16280
------------------
     ethr =  2.96E-08,  avg # of iterations =  3.1

     total cpu time spent up to now is      454.3 secs

     total energy              =    -702.82871174 Ry
     estimated scf accuracy    <       0.00002608 Ry

     total magnetization       =     3.00 Bohr mag/cell
     absolute magnetization    =     3.05 Bohr mag/cell
[tb_dev] Currently allocated     5.83E+00 Mbytes, locked:    0 /  10
[tb_pin] Currently allocated     0.00E+00 Mbytes, locked:    0 /   0

     iteration # 34     ecut=    50.00 Ry     beta= 0.40
     Davidson diagonalization with overlap

---- Real-time Memory Report at c_bands before calling an iterative solver
          2107 MiB given to the printing process from OS
          1902 MiB allocation reported by mallinfo(arena+hblkhd)
         57542 MiB available memory on the node where the printing process lives
     GPU memory used/free/total (MiB): 1510 / 14770 / 16280
------------------
     ethr =  2.96E-08,  avg # of iterations =  2.0

     total cpu time spent up to now is      464.9 secs

     total energy              =    -702.82870282 Ry
     estimated scf accuracy    <       0.00003813 Ry

     total magnetization       =     3.00 Bohr mag/cell
     absolute magnetization    =     3.05 Bohr mag/cell
[tb_dev] Currently allocated     5.83E+00 Mbytes, locked:    0 /  10
[tb_pin] Currently allocated     0.00E+00 Mbytes, locked:    0 /   0

     iteration # 35     ecut=    50.00 Ry     beta= 0.40
     Davidson diagonalization with overlap

---- Real-time Memory Report at c_bands before calling an iterative solver
          2107 MiB given to the printing process from OS
          1902 MiB allocation reported by mallinfo(arena+hblkhd)
         57542 MiB available memory on the node where the printing process lives
     GPU memory used/free/total (MiB): 1510 / 14770 / 16280
------------------
     ethr =  2.96E-08,  avg # of iterations =  2.5

     total cpu time spent up to now is      476.8 secs

     total energy              =    -702.82858141 Ry
     estimated scf accuracy    <       0.00002958 Ry

     total magnetization       =     3.00 Bohr mag/cell
     absolute magnetization    =     3.05 Bohr mag/cell
[tb_dev] Currently allocated     5.83E+00 Mbytes, locked:    0 /  10
[tb_pin] Currently allocated     0.00E+00 Mbytes, locked:    0 /   0

     iteration # 36     ecut=    50.00 Ry     beta= 0.40
     Davidson diagonalization with overlap

---- Real-time Memory Report at c_bands before calling an iterative solver
          2107 MiB given to the printing process from OS
          1902 MiB allocation reported by mallinfo(arena+hblkhd)
         57541 MiB available memory on the node where the printing process lives
     GPU memory used/free/total (MiB): 1510 / 14770 / 16280
------------------
     ethr =  2.96E-08,  avg # of iterations =  3.1

     total cpu time spent up to now is      490.5 secs

     total energy              =    -702.82884526 Ry
     estimated scf accuracy    <       0.00004909 Ry

     total magnetization       =     3.00 Bohr mag/cell
     absolute magnetization    =     3.05 Bohr mag/cell
[tb_dev] Currently allocated     5.83E+00 Mbytes, locked:    0 /  10
[tb_pin] Currently allocated     0.00E+00 Mbytes, locked:    0 /   0

     iteration # 37     ecut=    50.00 Ry     beta= 0.40
     Davidson diagonalization with overlap

---- Real-time Memory Report at c_bands before calling an iterative solver
          2107 MiB given to the printing process from OS
          1902 MiB allocation reported by mallinfo(arena+hblkhd)
         57541 MiB available memory on the node where the printing process lives
     GPU memory used/free/total (MiB): 1510 / 14770 / 16280
------------------
     ethr =  2.96E-08,  avg # of iterations =  1.0

     total cpu time spent up to now is      499.3 secs

     total energy              =    -702.82884946 Ry
     estimated scf accuracy    <       0.00005054 Ry

     total magnetization       =     3.00 Bohr mag/cell
     absolute magnetization    =     3.05 Bohr mag/cell
[tb_dev] Currently allocated     5.83E+00 Mbytes, locked:    0 /  10
[tb_pin] Currently allocated     0.00E+00 Mbytes, locked:    0 /   0

     iteration # 38     ecut=    50.00 Ry     beta= 0.40
     Davidson diagonalization with overlap

---- Real-time Memory Report at c_bands before calling an iterative solver
          2107 MiB given to the printing process from OS
          1902 MiB allocation reported by mallinfo(arena+hblkhd)
         57541 MiB available memory on the node where the printing process lives
     GPU memory used/free/total (MiB): 1510 / 14770 / 16280
------------------
     ethr =  2.96E-08,  avg # of iterations =  2.0

     total cpu time spent up to now is      509.8 secs

     total energy              =    -702.82866738 Ry
     estimated scf accuracy    <       0.00006755 Ry

     total magnetization       =     3.00 Bohr mag/cell
     absolute magnetization    =     3.05 Bohr mag/cell
[tb_dev] Currently allocated     5.83E+00 Mbytes, locked:    0 /  10
[tb_pin] Currently allocated     0.00E+00 Mbytes, locked:    0 /   0

     iteration # 39     ecut=    50.00 Ry     beta= 0.40
     Davidson diagonalization with overlap

---- Real-time Memory Report at c_bands before calling an iterative solver
          2107 MiB given to the printing process from OS
          1902 MiB allocation reported by mallinfo(arena+hblkhd)
         57541 MiB available memory on the node where the printing process lives
     GPU memory used/free/total (MiB): 1510 / 14770 / 16280
------------------
     ethr =  2.96E-08,  avg # of iterations =  3.0

     total cpu time spent up to now is      522.7 secs

     total energy              =    -702.82809614 Ry
     estimated scf accuracy    <       0.00003517 Ry

     total magnetization       =     3.00 Bohr mag/cell
     absolute magnetization    =     3.05 Bohr mag/cell
[tb_dev] Currently allocated     5.83E+00 Mbytes, locked:    0 /  10
[tb_pin] Currently allocated     0.00E+00 Mbytes, locked:    0 /   0

     iteration # 40     ecut=    50.00 Ry     beta= 0.40
     Davidson diagonalization with overlap

---- Real-time Memory Report at c_bands before calling an iterative solver
          2107 MiB given to the printing process from OS
          1902 MiB allocation reported by mallinfo(arena+hblkhd)
         57541 MiB available memory on the node where the printing process lives
     GPU memory used/free/total (MiB): 1510 / 14770 / 16280
------------------
     ethr =  2.96E-08,  avg # of iterations =  3.9

     total cpu time spent up to now is      538.3 secs

     total energy              =    -702.82865551 Ry
     estimated scf accuracy    <       0.00007600 Ry

     total magnetization       =     3.00 Bohr mag/cell
     absolute magnetization    =     3.05 Bohr mag/cell
[tb_dev] Currently allocated     5.83E+00 Mbytes, locked:    0 /  10
[tb_pin] Currently allocated     0.00E+00 Mbytes, locked:    0 /   0

     iteration # 41     ecut=    50.00 Ry     beta= 0.40
     Davidson diagonalization with overlap

---- Real-time Memory Report at c_bands before calling an iterative solver
          2107 MiB given to the printing process from OS
          1902 MiB allocation reported by mallinfo(arena+hblkhd)
         57541 MiB available memory on the node where the printing process lives
     GPU memory used/free/total (MiB): 1510 / 14770 / 16280
------------------
     ethr =  2.96E-08,  avg # of iterations =  2.0

     total cpu time spent up to now is      548.8 secs

     total energy              =    -702.82867855 Ry
     estimated scf accuracy    <       0.00010745 Ry

     total magnetization       =     3.00 Bohr mag/cell
     absolute magnetization    =     3.05 Bohr mag/cell
[tb_dev] Currently allocated     5.83E+00 Mbytes, locked:    0 /  10
[tb_pin] Currently allocated     0.00E+00 Mbytes, locked:    0 /   0

     iteration # 42     ecut=    50.00 Ry     beta= 0.40
     Davidson diagonalization with overlap

---- Real-time Memory Report at c_bands before calling an iterative solver
          2107 MiB given to the printing process from OS
          1902 MiB allocation reported by mallinfo(arena+hblkhd)
         57542 MiB available memory on the node where the printing process lives
     GPU memory used/free/total (MiB): 1510 / 14770 / 16280
------------------
     ethr =  2.96E-08,  avg # of iterations =  2.0

     total cpu time spent up to now is      559.5 secs

     total energy              =    -702.82752951 Ry
     estimated scf accuracy    <       0.00006033 Ry

     total magnetization       =     3.00 Bohr mag/cell
     absolute magnetization    =     3.05 Bohr mag/cell
[tb_dev] Currently allocated     5.83E+00 Mbytes, locked:    0 /  10
[tb_pin] Currently allocated     0.00E+00 Mbytes, locked:    0 /   0

     iteration # 43     ecut=    50.00 Ry     beta= 0.40
     Davidson diagonalization with overlap

---- Real-time Memory Report at c_bands before calling an iterative solver
          2107 MiB given to the printing process from OS
          1902 MiB allocation reported by mallinfo(arena+hblkhd)
         57543 MiB available memory on the node where the printing process lives
     GPU memory used/free/total (MiB): 1510 / 14770 / 16280
------------------
     ethr =  2.96E-08,  avg # of iterations =  4.0

     total cpu time spent up to now is      575.4 secs

     total energy              =    -702.82851731 Ry
     estimated scf accuracy    <       0.00007142 Ry

     total magnetization       =     3.00 Bohr mag/cell
     absolute magnetization    =     3.05 Bohr mag/cell
[tb_dev] Currently allocated     5.83E+00 Mbytes, locked:    0 /  10
[tb_pin] Currently allocated     0.00E+00 Mbytes, locked:    0 /   0

     iteration # 44     ecut=    50.00 Ry     beta= 0.40
     Davidson diagonalization with overlap

---- Real-time Memory Report at c_bands before calling an iterative solver
          2107 MiB given to the printing process from OS
          1902 MiB allocation reported by mallinfo(arena+hblkhd)
         57543 MiB available memory on the node where the printing process lives
     GPU memory used/free/total (MiB): 1510 / 14770 / 16280
------------------
     ethr =  2.96E-08,  avg # of iterations =  3.0

     total cpu time spent up to now is      588.8 secs

     total energy              =    -702.82875693 Ry
     estimated scf accuracy    <       0.00002946 Ry

     total magnetization       =     3.00 Bohr mag/cell
     absolute magnetization    =     3.05 Bohr mag/cell
[tb_dev] Currently allocated     5.83E+00 Mbytes, locked:    0 /  10
[tb_pin] Currently allocated     0.00E+00 Mbytes, locked:    0 /   0

     iteration # 45     ecut=    50.00 Ry     beta= 0.40
     Davidson diagonalization with overlap

---- Real-time Memory Report at c_bands before calling an iterative solver
          2107 MiB given to the printing process from OS
          1902 MiB allocation reported by mallinfo(arena+hblkhd)
         57542 MiB available memory on the node where the printing process lives
     GPU memory used/free/total (MiB): 1510 / 14770 / 16280
------------------
     ethr =  2.96E-08,  avg # of iterations =  2.5

     total cpu time spent up to now is      600.8 secs

     total energy              =    -702.82862019 Ry
     estimated scf accuracy    <       0.00004657 Ry

     total magnetization       =     3.00 Bohr mag/cell
     absolute magnetization    =     3.05 Bohr mag/cell
[tb_dev] Currently allocated     5.83E+00 Mbytes, locked:    0 /  10
[tb_pin] Currently allocated     0.00E+00 Mbytes, locked:    0 /   0

     iteration # 46     ecut=    50.00 Ry     beta= 0.40
     Davidson diagonalization with overlap

---- Real-time Memory Report at c_bands before calling an iterative solver
          2107 MiB given to the printing process from OS
          1902 MiB allocation reported by mallinfo(arena+hblkhd)
         57542 MiB available memory on the node where the printing process lives
     GPU memory used/free/total (MiB): 1510 / 14770 / 16280
------------------
     ethr =  2.96E-08,  avg # of iterations =  3.0

     total cpu time spent up to now is      613.8 secs

     total energy              =    -702.82878198 Ry
     estimated scf accuracy    <       0.00002738 Ry

     total magnetization       =     3.00 Bohr mag/cell
     absolute magnetization    =     3.05 Bohr mag/cell
[...]

     total energy              =    -702.82884118 Ry
     estimated scf accuracy    <       0.00010425 Ry

     total magnetization       =     3.00 Bohr mag/cell
     absolute magnetization    =     3.05 Bohr mag/cell
[tb_dev] Currently allocated     5.83E+00 Mbytes, locked:    0 /  10
[tb_pin] Currently allocated     0.00E+00 Mbytes, locked:    0 /   0

     iteration # 65     ecut=    50.00 Ry     beta= 0.40
     Davidson diagonalization with overlap

---- Real-time Memory Report at c_bands before calling an iterative solver
          2107 MiB given to the printing process from OS
          1902 MiB allocation reported by mallinfo(arena+hblkhd)
         57561 MiB available memory on the node where the printing process lives
     GPU memory used/free/total (MiB): 1510 / 14770 / 16280
------------------
     ethr =  2.96E-08,  avg # of iterations =  3.0

     total cpu time spent up to now is      864.6 secs

     total energy              =    -702.82905675 Ry
     estimated scf accuracy    <       0.00024020 Ry

     total magnetization       =     3.00 Bohr mag/cell
     absolute magnetization    =     3.06 Bohr mag/cell
[tb_dev] Currently allocated     5.83E+00 Mbytes, locked:    0 /  10
[tb_pin] Currently allocated     0.00E+00 Mbytes, locked:    0 /   0

     iteration # 66     ecut=    50.00 Ry     beta= 0.40
     Davidson diagonalization with overlap

---- Real-time Memory Report at c_bands before calling an iterative solver
          2107 MiB given to the printing process from OS
          1902 MiB allocation reported by mallinfo(arena+hblkhd)
         57561 MiB available memory on the node where the printing process lives
     GPU memory used/free/total (MiB): 1510 / 14770 / 16280
------------------
     ethr =  2.96E-08,  avg # of iterations =  2.0

     total cpu time spent up to now is      874.8 secs

     total energy              =    -702.82909883 Ry
     estimated scf accuracy    <       0.00021712 Ry

     total magnetization       =     3.00 Bohr mag/cell
     absolute magnetization    =     3.06 Bohr mag/cell
[tb_dev] Currently allocated     5.83E+00 Mbytes, locked:    0 /  10
[tb_pin] Currently allocated     0.00E+00 Mbytes, locked:    0 /   0

     iteration # 67     ecut=    50.00 Ry     beta= 0.40
     Davidson diagonalization with overlap

---- Real-time Memory Report at c_bands before calling an iterative solver
          2107 MiB given to the printing process from OS
          1902 MiB allocation reported by mallinfo(arena+hblkhd)
         57561 MiB available memory on the node where the printing process lives
     GPU memory used/free/total (MiB): 1510 / 14770 / 16280
------------------
     ethr =  2.96E-08,  avg # of iterations =  3.0

     total cpu time spent up to now is      887.6 secs

     total energy              =    -702.82560450 Ry
     estimated scf accuracy    <       0.00032295 Ry

     total magnetization       =     3.00 Bohr mag/cell
     absolute magnetization    =     3.06 Bohr mag/cell
[tb_dev] Currently allocated     5.83E+00 Mbytes, locked:    0 /  10
[tb_pin] Currently allocated     0.00E+00 Mbytes, locked:    0 /   0

     iteration # 68     ecut=    50.00 Ry     beta= 0.40
     Davidson diagonalization with overlap

---- Real-time Memory Report at c_bands before calling an iterative solver
          2107 MiB given to the printing process from OS
          1902 MiB allocation reported by mallinfo(arena+hblkhd)
         57561 MiB available memory on the node where the printing process lives
     GPU memory used/free/total (MiB): 1510 / 14770 / 16280
------------------
     ethr =  2.96E-08,  avg # of iterations =  4.2

     total cpu time spent up to now is      903.6 secs

     total energy              =    -702.82857771 Ry
     estimated scf accuracy    <       0.00003394 Ry

     total magnetization       =     3.00 Bohr mag/cell
     absolute magnetization    =     3.05 Bohr mag/cell
[tb_dev] Currently allocated     5.83E+00 Mbytes, locked:    0 /  10
[tb_pin] Currently allocated     0.00E+00 Mbytes, locked:    0 /   0

     iteration # 69     ecut=    50.00 Ry     beta= 0.40
     Davidson diagonalization with overlap

---- Real-time Memory Report at c_bands before calling an iterative solver
          2107 MiB given to the printing process from OS
          1902 MiB allocation reported by mallinfo(arena+hblkhd)
         57561 MiB available memory on the node where the printing process lives
     GPU memory used/free/total (MiB): 1510 / 14770 / 16280
------------------
     ethr =  2.96E-08,  avg # of iterations =  3.0

     total cpu time spent up to now is      917.0 secs

     total energy              =    -702.82880411 Ry
     estimated scf accuracy    <       0.00004556 Ry

     total magnetization       =     3.00 Bohr mag/cell
     absolute magnetization    =     3.05 Bohr mag/cell
[tb_dev] Currently allocated     5.83E+00 Mbytes, locked:    0 /  10
[tb_pin] Currently allocated     0.00E+00 Mbytes, locked:    0 /   0

     iteration # 70     ecut=    50.00 Ry     beta= 0.40
     Davidson diagonalization with overlap

---- Real-time Memory Report at c_bands before calling an iterative solver
          2107 MiB given to the printing process from OS
          1902 MiB allocation reported by mallinfo(arena+hblkhd)
         57561 MiB available memory on the node where the printing process lives
     GPU memory used/free/total (MiB): 1510 / 14770 / 16280
------------------
     ethr =  2.96E-08,  avg # of iterations =  2.5

     total cpu time spent up to now is      928.9 secs

     total energy              =    -702.82887495 Ry
     estimated scf accuracy    <       0.00007489 Ry

     total magnetization       =     3.00 Bohr mag/cell
     absolute magnetization    =     3.05 Bohr mag/cell
[tb_dev] Currently allocated     5.83E+00 Mbytes, locked:    0 /  10
[tb_pin] Currently allocated     0.00E+00 Mbytes, locked:    0 /   0

     iteration # 71     ecut=    50.00 Ry     beta= 0.40
     Davidson diagonalization with overlap

---- Real-time Memory Report at c_bands before calling an iterative solver
          2107 MiB given to the printing process from OS
          1902 MiB allocation reported by mallinfo(arena+hblkhd)
         57561 MiB available memory on the node where the printing process lives
     GPU memory used/free/total (MiB): 1510 / 14770 / 16280
------------------
     ethr =  2.96E-08,  avg # of iterations =  1.0

     total cpu time spent up to now is      937.7 secs

     total energy              =    -702.82746253 Ry
     estimated scf accuracy    <       0.00006989 Ry

     total magnetization       =     3.00 Bohr mag/cell
     absolute magnetization    =     3.05 Bohr mag/cell
[tb_dev] Currently allocated     5.83E+00 Mbytes, locked:    0 /  10
[tb_pin] Currently allocated     0.00E+00 Mbytes, locked:    0 /   0

     iteration # 72     ecut=    50.00 Ry     beta= 0.40
     Davidson diagonalization with overlap

---- Real-time Memory Report at c_bands before calling an iterative solver
          2107 MiB given to the printing process from OS
          1902 MiB allocation reported by mallinfo(arena+hblkhd)
         57557 MiB available memory on the node where the printing process lives
     GPU memory used/free/total (MiB): 1510 / 14770 / 16280
------------------
     ethr =  2.96E-08,  avg # of iterations =  4.0

     total cpu time spent up to now is      953.4 secs

     total energy              =    -702.82769742 Ry
     estimated scf accuracy    <       0.00006115 Ry

     total magnetization       =     3.00 Bohr mag/cell
     absolute magnetization    =     3.05 Bohr mag/cell
[tb_dev] Currently allocated     5.83E+00 Mbytes, locked:    0 /  10
[tb_pin] Currently allocated     0.00E+00 Mbytes, locked:    0 /   0

     iteration # 73     ecut=    50.00 Ry     beta= 0.40
     Davidson diagonalization with overlap

---- Real-time Memory Report at c_bands before calling an iterative solver
          2107 MiB given to the printing process from OS
          1902 MiB allocation reported by mallinfo(arena+hblkhd)
         57559 MiB available memory on the node where the printing process lives
     GPU memory used/free/total (MiB): 1510 / 14770 / 16280
------------------
     ethr =  2.96E-08,  avg # of iterations =  4.0

     total cpu time spent up to now is      969.0 secs

     total energy              =    -702.81963019 Ry
     estimated scf accuracy    <       0.00064695 Ry

     total magnetization       =     3.00 Bohr mag/cell
     absolute magnetization    =     3.05 Bohr mag/cell
[tb_dev] Currently allocated     5.83E+00 Mbytes, locked:    0 /  10
[tb_pin] Currently allocated     0.00E+00 Mbytes, locked:    0 /   0

     iteration # 74     ecut=    50.00 Ry     beta= 0.40
     Davidson diagonalization with overlap

---- Real-time Memory Report at c_bands before calling an iterative solver
          2107 MiB given to the printing process from OS
          1902 MiB allocation reported by mallinfo(arena+hblkhd)
         57559 MiB available memory on the node where the printing process lives
     GPU memory used/free/total (MiB): 1510 / 14770 / 16280
------------------
     ethr =  2.96E-08,  avg # of iterations =  5.3

     total cpu time spent up to now is      988.0 secs

     total energy              =    -702.82906937 Ry
     estimated scf accuracy    <       0.00038734 Ry

     total magnetization       =     3.00 Bohr mag/cell
     absolute magnetization    =     3.06 Bohr mag/cell
[tb_dev] Currently allocated     5.83E+00 Mbytes, locked:    0 /  10
[tb_pin] Currently allocated     0.00E+00 Mbytes, locked:    0 /   0

     iteration # 75     ecut=    50.00 Ry     beta= 0.40
     Davidson diagonalization with overlap

---- Real-time Memory Report at c_bands before calling an iterative solver
          2107 MiB given to the printing process from OS
          1902 MiB allocation reported by mallinfo(arena+hblkhd)
         57559 MiB available memory on the node where the printing process lives
     GPU memory used/free/total (MiB): 1510 / 14770 / 16280
------------------
     ethr =  2.96E-08,  avg # of iterations =  3.0

     total cpu time spent up to now is     1000.8 secs

     total energy              =    -702.82917635 Ry
     estimated scf accuracy    <       0.00030849 Ry

     total magnetization       =     3.00 Bohr mag/cell
     absolute magnetization    =     3.06 Bohr mag/cell
[tb_dev] Currently allocated     5.83E+00 Mbytes, locked:    0 /  10
[tb_pin] Currently allocated     0.00E+00 Mbytes, locked:    0 /   0

     iteration # 76     ecut=    50.00 Ry     beta= 0.40
     Davidson diagonalization with overlap

---- Real-time Memory Report at c_bands before calling an iterative solver
          2107 MiB given to the printing process from OS
          1902 MiB allocation reported by mallinfo(arena+hblkhd)
         57559 MiB available memory on the node where the printing process lives
     GPU memory used/free/total (MiB): 1510 / 14770 / 16280
------------------
     ethr =  2.96E-08,  avg # of iterations =  1.0

     total cpu time spent up to now is     1009.6 secs

     total energy              =    -702.82889960 Ry
     estimated scf accuracy    <       0.00030185 Ry

     total magnetization       =     3.00 Bohr mag/cell
     absolute magnetization    =     3.06 Bohr mag/cell
[tb_dev] Currently allocated     5.83E+00 Mbytes, locked:    0 /  10
[tb_pin] Currently allocated     0.00E+00 Mbytes, locked:    0 /   0

     iteration # 77     ecut=    50.00 Ry     beta= 0.40
     Davidson diagonalization with overlap

---- Real-time Memory Report at c_bands before calling an iterative solver
          2107 MiB given to the printing process from OS
          1902 MiB allocation reported by mallinfo(arena+hblkhd)
         57560 MiB available memory on the node where the printing process lives
     GPU memory used/free/total (MiB): 1510 / 14770 / 16280
------------------
     ethr =  2.96E-08,  avg # of iterations =  3.0

     total cpu time spent up to now is     1022.5 secs

     total energy              =    -702.82889514 Ry
     estimated scf accuracy    <       0.00019620 Ry

     total magnetization       =     3.00 Bohr mag/cell
     absolute magnetization    =     3.06 Bohr mag/cell
[tb_dev] Currently allocated     5.83E+00 Mbytes, locked:    0 /  10
[tb_pin] Currently allocated     0.00E+00 Mbytes, locked:    0 /   0

     iteration # 78     ecut=    50.00 Ry     beta= 0.40
     Davidson diagonalization with overlap

---- Real-time Memory Report at c_bands before calling an iterative solver
          2107 MiB given to the printing process from OS
          1902 MiB allocation reported by mallinfo(arena+hblkhd)
         57559 MiB available memory on the node where the printing process lives
     GPU memory used/free/total (MiB): 1510 / 14770 / 16280
------------------
     ethr =  2.96E-08,  avg # of iterations =  2.5

     total cpu time spent up to now is     1034.1 secs

     total energy              =    -702.82794293 Ry
     estimated scf accuracy    <       0.00013382 Ry

     total magnetization       =     3.00 Bohr mag/cell
     absolute magnetization    =     3.05 Bohr mag/cell
[tb_dev] Currently allocated     5.83E+00 Mbytes, locked:    0 /  10
[tb_pin] Currently allocated     0.00E+00 Mbytes, locked:    0 /   0

     iteration # 79     ecut=    50.00 Ry     beta= 0.40
     Davidson diagonalization with overlap

---- Real-time Memory Report at c_bands before calling an iterative solver
          2107 MiB given to the printing process from OS
          1902 MiB allocation reported by mallinfo(arena+hblkhd)
         57560 MiB available memory on the node where the printing process lives
     GPU memory used/free/total (MiB): 1510 / 14770 / 16280
------------------
     ethr =  2.96E-08,  avg # of iterations =  4.0

     total cpu time spent up to now is     1049.8 secs

     total energy              =    -702.82701531 Ry
     estimated scf accuracy    <       0.00003013 Ry

     total magnetization       =     3.00 Bohr mag/cell
     absolute magnetization    =     3.05 Bohr mag/cell
[tb_dev] Currently allocated     5.83E+00 Mbytes, locked:    0 /  10
[tb_pin] Currently allocated     0.00E+00 Mbytes, locked:    0 /   0

     iteration # 80     ecut=    50.00 Ry     beta= 0.40
     Davidson diagonalization with overlap

---- Real-time Memory Report at c_bands before calling an iterative solver
          2107 MiB given to the printing process from OS
          1902 MiB allocation reported by mallinfo(arena+hblkhd)
         57559 MiB available memory on the node where the printing process lives
     GPU memory used/free/total (MiB): 1510 / 14770 / 16280
------------------
     ethr =  2.96E-08,  avg # of iterations =  4.1

     total cpu time spent up to now is     1065.7 secs

     total energy              =    -702.82840617 Ry
     estimated scf accuracy    <       0.00042154 Ry

     total magnetization       =     3.00 Bohr mag/cell
     absolute magnetization    =     3.05 Bohr mag/cell

     End of self-consistent calculation

     convergence NOT achieved after  80 iterations: stopping

     Writing config to output data dir ./out/aiida.save/
 
     init_run     :     15.01s CPU      8.36s WALL (       1 calls)
     electrons    :   1149.78s CPU   1056.77s WALL (       1 calls)

     Called by init_run:
     wfcinit      :      5.13s CPU      6.89s WALL (       1 calls)
                                        6.89s GPU  (       1 calls)
     wfcinit:atom :      0.14s CPU      0.20s WALL (     344 calls)
                                        0.19s GPU  (     344 calls)
     wfcinit:wfcr :      2.87s CPU      3.68s WALL (     344 calls)
                                        3.68s GPU  (     344 calls)
     potinit      :      0.93s CPU      0.09s WALL (       1 calls)
     hinit0       :      6.51s CPU      0.74s WALL (       1 calls)

     Called by electrons:
     c_bands      :    964.10s CPU    921.20s WALL (      80 calls)
     sum_band     :    111.74s CPU    128.58s WALL (      80 calls)
     v_of_rho     :     24.43s CPU      2.19s WALL (      81 calls)
     v_h          :      3.21s CPU      0.28s WALL (      81 calls)
     v_xc         :     21.21s CPU      1.91s WALL (      81 calls)
     newd         :     21.48s CPU      2.21s WALL (      81 calls)
                                        2.21s GPU  (      81 calls)
     mix_rho      :     21.41s CPU      2.09s WALL (      80 calls)

     Called by c_bands:
     init_us_2    :     68.48s CPU     73.21s WALL (   55384 calls)
     init_us_2:gp :     67.52s CPU     72.31s WALL (   55384 calls)
     cegterg      :    846.19s CPU    808.98s WALL (   27520 calls)

     Called by sum_band:
     sum_band:wei :      0.86s CPU      0.87s WALL (      80 calls)
                                        0.87s GPU  (      80 calls)
     sum_band:loo :    108.14s CPU    124.83s WALL (      80 calls)
                                      124.83s GPU  (      80 calls)
     sum_band:buf :     25.25s CPU     27.89s WALL (   27520 calls)
                                       27.73s GPU  (   27520 calls)
     sum_band:ini :     30.62s CPU     36.36s WALL (   27520 calls)
                                       36.20s GPU  (   27520 calls)
     sum_band:cal :      0.68s CPU      4.67s WALL (   27520 calls)
                                        3.99s GPU  (   27520 calls)
     sum_band:bec :      4.96s CPU      6.19s WALL (   27520 calls)
                                        6.00s GPU  (   27520 calls)
     addusdens    :      1.65s CPU      1.75s WALL (      80 calls)
                                        1.75s GPU  (      80 calls)
     addusd:skk   :      0.02s CPU      0.02s WALL (     160 calls)
                                        0.02s GPU  (     160 calls)

     Called by *egterg:
     cdiaghg      :    368.51s CPU    372.82s WALL (  111522 calls)
                                      372.08s GPU  (  111522 calls)
     cegterg:over :     19.08s CPU     17.61s WALL (   84002 calls)
     cegterg:upda :     38.46s CPU     35.92s WALL (   84002 calls)
     cegterg:last :     12.60s CPU     11.35s WALL (   58265 calls)
     h_psi        :    349.00s CPU    320.57s WALL (  111866 calls)
                                      319.78s GPU  (  111866 calls)
     s_psi        :     13.30s CPU     21.92s WALL (  111866 calls)
                                       20.47s GPU  (  111866 calls)
     g_psi        :      0.64s CPU      2.48s WALL (   84002 calls)
                                        1.94s GPU  (   84002 calls)

     Called by h_psi:
     h_psi:calbec :      3.94s CPU     16.43s WALL (  111866 calls)
                                       15.71s GPU  (  111866 calls)
     vloc_psi     :    290.95s CPU    268.25s WALL (  111866 calls)
                                      267.53s GPU  (  111866 calls)
     add_vuspsi   :     22.49s CPU     28.29s WALL (  111866 calls)
                                       27.58s GPU  (  111866 calls)

     General routines
     calbec       :      3.33s CPU      3.18s WALL (  139386 calls)
     fft          :      2.39s CPU      0.43s WALL (    2023 calls)
                                        0.36s GPU  (    1861 calls)
     ffts         :      0.03s CPU      0.03s WALL (     322 calls)
                                        0.01s GPU  (     160 calls)
     fftw         :     11.73s CPU    193.18s WALL (  578080 calls)
                                      190.00s GPU  (  578080 calls)
     interpolate  :      2.82s CPU      0.26s WALL (     162 calls)
     davcio       :      1.13s CPU      0.72s WALL (     362 calls)
 
     Parallel routines
 
     PWSCF        :  19m28.97s CPU  17m46.66s WALL

 
   This run was terminated on:  19: 1:47  22Oct2023            

=------------------------------------------------------------------------------=
   JOB DONE.
=------------------------------------------------------------------------------=
