
     Program PWSCF v.7.2 starts on 23Oct2023 at 18:21: 9 

     This program is part of the open-source Quantum ESPRESSO suite
     for quantum simulation of materials; please cite
         "P. Giannozzi et al., J. Phys.:Condens. Matter 21 395502 (2009);
         "P. Giannozzi et al., J. Phys.:Condens. Matter 29 465901 (2017);
         "P. Giannozzi et al., J. Chem. Phys. 152 154105 (2020);
          URL http://www.quantum-espresso.org", 
     in publications or presentations arising from this work. More details at
     http://www.quantum-espresso.org/quote

     Parallel version (MPI & OpenMP), running on      12 processor cores
     Number of MPI processes:                 1
     Threads/MPI process:                    12

     MPI processes distributed on     1 nodes
     60330 MiB available memory on the printing compute node when the environment starts
 
     Reading input from aiida.in

     Current dimensions of program PWSCF are:
     Max number of different atomic species (ntypx) = 10
     Max number of k-points (npk) =  40000
     Max angular momentum in pseudopotentials (lmaxx) =  4
     file Al.pbesol-n-kjpaw_psl.1.0.0.UPF: wavefunction(s)  3S 3P renormalized
     file Fe.pbesol-spn-kjpaw_psl.0.2.1.UPF: wavefunction(s)  3D renormalized
     Message from routine setup:
     using ibrav=0 with symmetry is DISCOURAGED, use correct ibrav instead
 
     Subspace diagonalization in iterative solution of the eigenvalue problem:
     a serial algorithm will be used

 
     G-vector sticks info
     --------------------
     sticks:   dense  smooth     PW     G-vecs:    dense   smooth      PW
     Sum        4255    1417    421               182543    35053    5577
 
     Using Slab Decomposition
 


     bravais-lattice index     =            0
     lattice parameter (alat)  =       7.5497  a.u.
     unit-cell volume          =     304.2860 (a.u.)^3
     number of atoms/cell      =            4
     number of atomic types    =            3
     number of electrons       =        50.00
     number of Kohn-Sham states=           30
     kinetic-energy cutoff     =      90.0000  Ry
     charge density cutoff     =    1080.0000  Ry
     scf convergence threshold =      8.0E-10
     mixing beta               =       0.2000
     number of iterations used =            8  plain     mixing
     Exchange-correlation= SLA  PW   PSX  PSC
                           (   1   4  10   8   0   0   0)

     GPU acceleration is ACTIVE.


     GPU used by master process:

        Device Number: 0
        Device name: Tesla P100-PCIE-16GB
        Compute capability : 60
        Ratio of single to double precision performance  : 2
        Memory Clock Rate (KHz): 715000
        Memory Bus Width (bits): 4096
        Peak Memory Bandwidth (GB/s): 732.16

     celldm(1)=   7.549746  celldm(2)=   0.000000  celldm(3)=   0.000000
     celldm(4)=   0.000000  celldm(5)=   0.000000  celldm(6)=   0.000000

     crystal axes: (cart. coord. in units of alat)
               a(1) = (   0.000000   0.707107   0.707107 )  
               a(2) = (   0.707107   0.000000   0.707107 )  
               a(3) = (   0.707107   0.707107   0.000000 )  

     reciprocal axes: (cart. coord. in units 2 pi/alat)
               b(1) = ( -0.707107  0.707107  0.707107 )  
               b(2) = (  0.707107 -0.707107  0.707107 )  
               b(3) = (  0.707107  0.707107 -0.707107 )  


     PseudoPot. # 1 for Al read from file:
     ./pseudo/Al.pbesol-n-kjpaw_psl.1.0.0.UPF
     MD5 check sum: 3401bcfaaf5f9b08e46a00870a1ef39d
     Pseudo is Projector augmented-wave + core cor, Zval =  3.0
     Generated using "atomic" code by A. Dal Corso  v.6.0 svn rev. 13079
     Shape of augmentation charge: PSQ
     Using radial grid of 1135 points,  6 beta functions with: 
                l(1) =   0
                l(2) =   0
                l(3) =   1
                l(4) =   1
                l(5) =   2
                l(6) =   2
     Q(r) pseudized with 0 coefficients 


     PseudoPot. # 2 for Fe read from file:
     ./pseudo/Fe.pbesol-spn-kjpaw_psl.0.2.1.UPF
     MD5 check sum: 4d7ec5aa2156491519a4322664fbbf52
     Pseudo is Projector augmented-wave + core cor, Zval = 16.0
     Generated using "atomic" code by A. Dal Corso  v.6.0 svn rev. 13079
     Shape of augmentation charge: PSQ
     Using radial grid of 1191 points,  6 beta functions with: 
                l(1) =   0
                l(2) =   0
                l(3) =   1
                l(4) =   1
                l(5) =   2
                l(6) =   2
     Q(r) pseudized with 0 coefficients 


     PseudoPot. # 3 for Mn read from file:
     ./pseudo/mn_pbesol_v1.5.uspp.F.UPF
     MD5 check sum: 0716d5f563e6e95a34f9080f4c78c109
     Pseudo is Ultrasoft + core correction, Zval = 15.0
     Generated by new atomic code, or converted to UPF format
     Using radial grid of  859 points,  6 beta functions with: 
                l(1) =   0
                l(2) =   0
                l(3) =   1
                l(4) =   1
                l(5) =   2
                l(6) =   2
     Q(r) pseudized with  8 coefficients,  rinner =    0.950   0.950   0.950
                                                       0.950   0.950

     atomic species   valence    mass     pseudopotential
        Al             3.00    26.98154     Al( 1.00)
        Fe            16.00    55.84500     Fe( 1.00)
        Mn            15.00    54.93805     Mn( 1.00)

     Starting magnetic structure 
     atomic species   magnetization
        Al           0.100
        Fe           0.313
        Mn           0.333

     24 Sym. Ops. (no inversion) found


                                    s                        frac. trans.

      isym =  1     identity                                     

 cryst.   s( 1) = (     1          0          0      )
                  (     0          1          0      )
                  (     0          0          1      )

 cart.    s( 1) = (  1.0000000 -0.0000000  0.0000000 )
                  ( -0.0000000  1.0000000  0.0000000 )
                  ( -0.0000000  0.0000000  1.0000000 )


      isym =  2     180 deg rotation - cart. axis [0,0,1]        

 cryst.   s( 2) = (     0          1         -1      )
                  (     1          0         -1      )
                  (     0          0         -1      )

 cart.    s( 2) = ( -1.0000000  0.0000000  0.0000000 )
                  (  0.0000000 -1.0000000  0.0000000 )
                  (  0.0000000 -0.0000000  1.0000000 )


      isym =  3     180 deg rotation - cart. axis [0,1,0]        

 cryst.   s( 3) = (     0         -1          1      )
                  (     0         -1          0      )
                  (     1         -1          0      )

 cart.    s( 3) = ( -1.0000000 -0.0000000 -0.0000000 )
                  (  0.0000000  1.0000000 -0.0000000 )
                  (  0.0000000  0.0000000 -1.0000000 )


      isym =  4     180 deg rotation - cart. axis [1,0,0]        

 cryst.   s( 4) = (    -1          0          0      )
                  (    -1          0          1      )
                  (    -1          1          0      )

 cart.    s( 4) = (  1.0000000  0.0000000 -0.0000000 )
                  ( -0.0000000 -1.0000000 -0.0000000 )
                  ( -0.0000000 -0.0000000 -1.0000000 )


      isym =  5     120 deg rotation - cart. axis [-1,-1,-1]     

 cryst.   s( 5) = (     0          0          1      )
                  (     1          0          0      )
                  (     0          1          0      )

 cart.    s( 5) = (  0.0000000  1.0000000 -0.0000000 )
                  (  0.0000000 -0.0000000  1.0000000 )
                  (  1.0000000 -0.0000000  0.0000000 )


      isym =  6     120 deg rotation - cart. axis [-1,1,1]       

 cryst.   s( 6) = (     1         -1          0      )
                  (     0         -1          1      )
                  (     0         -1          0      )

 cart.    s( 6) = ( -0.0000000 -1.0000000 -0.0000000 )
                  ( -0.0000000  0.0000000  1.0000000 )
                  ( -1.0000000  0.0000000  0.0000000 )


      isym =  7     120 deg rotation - cart. axis [1,1,-1]       

 cryst.   s( 7) = (    -1          1          0      )
                  (    -1          0          0      )
                  (    -1          0          1      )

 cart.    s( 7) = ( -0.0000000  1.0000000  0.0000000 )
                  ( -0.0000000 -0.0000000 -1.0000000 )
                  ( -1.0000000 -0.0000000 -0.0000000 )


      isym =  8     120 deg rotation - cart. axis [1,-1,1]       

 cryst.   s( 8) = (     0          0         -1      )
                  (     0          1         -1      )
                  (     1          0         -1      )

 cart.    s( 8) = (  0.0000000 -1.0000000  0.0000000 )
                  (  0.0000000  0.0000000 -1.0000000 )
                  (  1.0000000  0.0000000 -0.0000000 )


      isym =  9     120 deg rotation - cart. axis [1,1,1]        

 cryst.   s( 9) = (     0          1          0      )
                  (     0          0          1      )
                  (     1          0          0      )

 cart.    s( 9) = ( -0.0000000  0.0000000  1.0000000 )
                  (  1.0000000  0.0000000 -0.0000000 )
                  (  0.0000000  1.0000000 -0.0000000 )


      isym = 10     120 deg rotation - cart. axis [-1,1,-1]      

 cryst.   s(10) = (    -1          0          1      )
                  (    -1          1          0      )
                  (    -1          0          0      )

 cart.    s(10) = (  0.0000000 -0.0000000  1.0000000 )
                  ( -1.0000000 -0.0000000 -0.0000000 )
                  ( -0.0000000 -1.0000000 -0.0000000 )


      isym = 11     120 deg rotation - cart. axis [1,-1,-1]      

 cryst.   s(11) = (     1          0         -1      )
                  (     0          0         -1      )
                  (     0          1         -1      )

 cart.    s(11) = (  0.0000000  0.0000000 -1.0000000 )
                  ( -1.0000000  0.0000000  0.0000000 )
                  ( -0.0000000  1.0000000  0.0000000 )


      isym = 12     120 deg rotation - cart. axis [-1,-1,1]      

 cryst.   s(12) = (     0         -1          0      )
                  (     1         -1          0      )
                  (     0         -1          1      )

 cart.    s(12) = ( -0.0000000 -0.0000000 -1.0000000 )
                  (  1.0000000 -0.0000000  0.0000000 )
                  (  0.0000000 -1.0000000  0.0000000 )


      isym = 13     inv. 180 deg rotation - cart. axis [1,1,0]   

 cryst.   s(13) = (     1          0         -1      )
                  (     0          1         -1      )
                  (     0          0         -1      )

 cart.    s(13) = (  0.0000000 -1.0000000  0.0000000 )
                  ( -1.0000000  0.0000000  0.0000000 )
                  ( -0.0000000  0.0000000  1.0000000 )


      isym = 14     inv. 180 deg rotation - cart. axis [1,-1,0]  

 cryst.   s(14) = (     0          1          0      )
                  (     1          0          0      )
                  (     0          0          1      )

 cart.    s(14) = ( -0.0000000  1.0000000  0.0000000 )
                  (  1.0000000 -0.0000000  0.0000000 )
                  (  0.0000000 -0.0000000  1.0000000 )


      isym = 15     inv.  90 deg rotation - cart. axis [0,0,-1]  

 cryst.   s(15) = (     0         -1          0      )
                  (     0         -1          1      )
                  (     1         -1          0      )

 cart.    s(15) = ( -0.0000000 -1.0000000 -0.0000000 )
                  (  1.0000000  0.0000000 -0.0000000 )
                  (  0.0000000  0.0000000 -1.0000000 )


      isym = 16     inv.  90 deg rotation - cart. axis [0,0,1]   

 cryst.   s(16) = (    -1          0          1      )
                  (    -1          0          0      )
                  (    -1          1          0      )

 cart.    s(16) = (  0.0000000  1.0000000 -0.0000000 )
                  ( -1.0000000 -0.0000000 -0.0000000 )
                  ( -0.0000000 -0.0000000 -1.0000000 )


      isym = 17     inv. 180 deg rotation - cart. axis [1,0,1]   

 cryst.   s(17) = (     1         -1          0      )
                  (     0         -1          0      )
                  (     0         -1          1      )

 cart.    s(17) = ( -0.0000000 -0.0000000 -1.0000000 )
                  ( -0.0000000  1.0000000  0.0000000 )
                  ( -1.0000000  0.0000000  0.0000000 )


      isym = 18     inv. 180 deg rotation - cart. axis [-1,0,1]  

 cryst.   s(18) = (     0          0          1      )
                  (     0          1          0      )
                  (     1          0          0      )

 cart.    s(18) = (  0.0000000 -0.0000000  1.0000000 )
                  (  0.0000000  1.0000000 -0.0000000 )
                  (  1.0000000  0.0000000 -0.0000000 )


      isym = 19     inv.  90 deg rotation - cart. axis [0,1,0]   

 cryst.   s(19) = (     0          0         -1      )
                  (     1          0         -1      )
                  (     0          1         -1      )

 cart.    s(19) = (  0.0000000  0.0000000 -1.0000000 )
                  (  0.0000000 -1.0000000  0.0000000 )
                  (  1.0000000 -0.0000000  0.0000000 )


      isym = 20     inv.  90 deg rotation - cart. axis [0,-1,0]  

 cryst.   s(20) = (    -1          1          0      )
                  (    -1          0          1      )
                  (    -1          0          0      )

 cart.    s(20) = ( -0.0000000  0.0000000  1.0000000 )
                  ( -0.0000000 -1.0000000 -0.0000000 )
                  ( -1.0000000 -0.0000000 -0.0000000 )


      isym = 21     inv. 180 deg rotation - cart. axis [0,1,1]   

 cryst.   s(21) = (    -1          0          0      )
                  (    -1          1          0      )
                  (    -1          0          1      )

 cart.    s(21) = (  1.0000000 -0.0000000  0.0000000 )
                  ( -0.0000000 -0.0000000 -1.0000000 )
                  ( -0.0000000 -1.0000000 -0.0000000 )


      isym = 22     inv. 180 deg rotation - cart. axis [0,1,-1]  

 cryst.   s(22) = (     1          0          0      )
                  (     0          0          1      )
                  (     0          1          0      )

 cart.    s(22) = (  1.0000000  0.0000000 -0.0000000 )
                  ( -0.0000000  0.0000000  1.0000000 )
                  ( -0.0000000  1.0000000  0.0000000 )


      isym = 23     inv.  90 deg rotation - cart. axis [-1,0,0]  

 cryst.   s(23) = (     0          1         -1      )
                  (     0          0         -1      )
                  (     1          0         -1      )

 cart.    s(23) = ( -1.0000000  0.0000000  0.0000000 )
                  (  0.0000000  0.0000000 -1.0000000 )
                  (  0.0000000  1.0000000 -0.0000000 )


      isym = 24     inv.  90 deg rotation - cart. axis [1,0,0]   

 cryst.   s(24) = (     0         -1          1      )
                  (     1         -1          0      )
                  (     0         -1          0      )

 cart.    s(24) = ( -1.0000000 -0.0000000 -0.0000000 )
                  (  0.0000000 -0.0000000  1.0000000 )
                  (  0.0000000 -1.0000000  0.0000000 )


   Cartesian axes

     site n.     atom                  positions (alat units)
         1           Mn  tau(   1) = (   0.7071068   0.0000000   0.0000000  )
         2           Al  tau(   2) = (   0.3535534   0.3535534   0.3535534  )
         3           Fe  tau(   3) = (   0.0000000   0.0000000   0.0000000  )
         4           Fe  tau(   4) = (   0.3535534   0.3535534   1.0606602  )

   Crystallographic axes

     site n.     atom                  positions (cryst. coord.)
         1           Mn  tau(   1) = ( -0.5000000  0.5000000  0.5000000  )
         2           Al  tau(   2) = (  0.2500000  0.2500000  0.2500000  )
         3           Fe  tau(   3) = (  0.0000000  0.0000000  0.0000000  )
         4           Fe  tau(   4) = (  0.7500000  0.7500000 -0.2500000  )

     number of k points=    84  Marzari-Vanderbilt smearing, width (Ry)=  0.0100
                       cart. coord. in units 2pi/alat
        k(    1) = (   0.0000000   0.0000000   0.0000000), wk =   0.0004552
        k(    2) = (   0.0543928   0.0543928  -0.0543928), wk =   0.0036413
        k(    3) = (   0.1087857   0.1087857  -0.1087857), wk =   0.0036413
        k(    4) = (   0.1631785   0.1631785  -0.1631785), wk =   0.0036413
        k(    5) = (   0.2175713   0.2175713  -0.2175713), wk =   0.0036413
        k(    6) = (   0.2719641   0.2719641  -0.2719641), wk =   0.0036413
        k(    7) = (   0.3263570   0.3263570  -0.3263570), wk =   0.0036413
        k(    8) = (   0.1087857  -0.0000000   0.0000000), wk =   0.0027310
        k(    9) = (   0.1631785   0.0543928  -0.0543928), wk =   0.0109240
        k(   10) = (   0.2175713   0.1087857  -0.1087857), wk =   0.0109240
        k(   11) = (   0.2719641   0.1631785  -0.1631785), wk =   0.0109240
        k(   12) = (   0.3263570   0.2175713  -0.2175713), wk =   0.0109240
        k(   13) = (   0.3807498   0.2719641  -0.2719641), wk =   0.0109240
        k(   14) = (  -0.2719641  -0.3807498   0.3807498), wk =   0.0109240
        k(   15) = (  -0.2175713  -0.3263570   0.3263570), wk =   0.0109240
        k(   16) = (  -0.1631785  -0.2719641   0.2719641), wk =   0.0109240
        k(   17) = (  -0.1087857  -0.2175713   0.2175713), wk =   0.0109240
        k(   18) = (  -0.0543928  -0.1631785   0.1631785), wk =   0.0109240
        k(   19) = (   0.0000000  -0.1087857   0.1087857), wk =   0.0054620
        k(   20) = (   0.2175713  -0.0000000   0.0000000), wk =   0.0027310
        k(   21) = (   0.2719641   0.0543928  -0.0543928), wk =   0.0109240
        k(   22) = (   0.3263570   0.1087857  -0.1087857), wk =   0.0109240
        k(   23) = (   0.3807498   0.1631785  -0.1631785), wk =   0.0109240
        k(   24) = (   0.4351426   0.2175713  -0.2175713), wk =   0.0109240
        k(   25) = (  -0.2175713  -0.4351426   0.4351426), wk =   0.0109240
        k(   26) = (  -0.1631785  -0.3807498   0.3807498), wk =   0.0109240
        k(   27) = (  -0.1087857  -0.3263570   0.3263570), wk =   0.0109240
        k(   28) = (  -0.0543928  -0.2719641   0.2719641), wk =   0.0109240
        k(   29) = (   0.0000000  -0.2175713   0.2175713), wk =   0.0054620
        k(   30) = (   0.3263570  -0.0000000   0.0000000), wk =   0.0027310
        k(   31) = (   0.3807498   0.0543928  -0.0543928), wk =   0.0109240
        k(   32) = (   0.4351426   0.1087857  -0.1087857), wk =   0.0109240
        k(   33) = (   0.4895355   0.1631785  -0.1631785), wk =   0.0109240
        k(   34) = (  -0.1631785  -0.4895355   0.4895355), wk =   0.0109240
        k(   35) = (  -0.1087857  -0.4351426   0.4351426), wk =   0.0109240
        k(   36) = (  -0.0543928  -0.3807498   0.3807498), wk =   0.0109240
        k(   37) = (   0.0000000  -0.3263570   0.3263570), wk =   0.0054620
        k(   38) = (   0.4351426  -0.0000000   0.0000000), wk =   0.0027310
        k(   39) = (   0.4895355   0.0543928  -0.0543928), wk =   0.0109240
        k(   40) = (   0.5439283   0.1087857  -0.1087857), wk =   0.0109240
        k(   41) = (  -0.1087857  -0.5439283   0.5439283), wk =   0.0109240
        k(   42) = (  -0.0543928  -0.4895355   0.4895355), wk =   0.0109240
        k(   43) = (   0.0000000  -0.4351426   0.4351426), wk =   0.0054620
        k(   44) = (   0.5439283  -0.0000000   0.0000000), wk =   0.0027310
        k(   45) = (   0.5983211   0.0543928  -0.0543928), wk =   0.0109240
        k(   46) = (  -0.0543928  -0.5983211   0.5983211), wk =   0.0109240
        k(   47) = (   0.0000000  -0.5439283   0.5439283), wk =   0.0054620
        k(   48) = (   0.6527140  -0.0000000   0.0000000), wk =   0.0027310
        k(   49) = (   0.0000000  -0.6527140   0.6527140), wk =   0.0054620
        k(   50) = (   0.2175713   0.1087857   0.0000000), wk =   0.0109240
        k(   51) = (   0.2719641   0.1631785  -0.0543928), wk =   0.0218480
        k(   52) = (   0.3263570   0.2175713  -0.1087857), wk =   0.0218480
        k(   53) = (   0.3807498   0.2719641  -0.1631785), wk =   0.0218480
        k(   54) = (  -0.2719641  -0.3807498   0.4895355), wk =   0.0218480
        k(   55) = (   0.3263570   0.1087857   0.0000000), wk =   0.0109240
        k(   56) = (   0.3807498   0.1631785  -0.0543928), wk =   0.0218480
        k(   57) = (   0.4351426   0.2175713  -0.1087857), wk =   0.0218480
        k(   58) = (  -0.2175713  -0.4351426   0.5439283), wk =   0.0218480
        k(   59) = (  -0.1631785  -0.3807498   0.4895355), wk =   0.0218480
        k(   60) = (  -0.1087857  -0.3263570   0.4351426), wk =   0.0218480
        k(   61) = (  -0.0543928  -0.2719641   0.3807498), wk =   0.0218480
        k(   62) = (   0.0000000  -0.2175713   0.3263570), wk =   0.0109240
        k(   63) = (   0.4351426   0.1087857   0.0000000), wk =   0.0109240
        k(   64) = (   0.4895355   0.1631785  -0.0543928), wk =   0.0218480
        k(   65) = (  -0.1631785  -0.4895355   0.5983211), wk =   0.0218480
        k(   66) = (  -0.1087857  -0.4351426   0.5439283), wk =   0.0218480
        k(   67) = (  -0.0543928  -0.3807498   0.4895355), wk =   0.0218480
        k(   68) = (   0.0000000  -0.3263570   0.4351426), wk =   0.0109240
        k(   69) = (   0.5439283   0.1087857   0.0000000), wk =   0.0109240
        k(   70) = (  -0.1087857  -0.5439283   0.6527140), wk =   0.0218480
        k(   71) = (  -0.0543928  -0.4895355   0.5983211), wk =   0.0218480
        k(   72) = (   0.0000000  -0.4351426   0.5439283), wk =   0.0109240
        k(   73) = (  -0.0543928  -0.5983211   0.7071068), wk =   0.0109240
        k(   74) = (   0.0000000  -0.5439283   0.6527140), wk =   0.0109240
        k(   75) = (   0.4351426   0.2175713   0.0000000), wk =   0.0109240
        k(   76) = (  -0.2175713  -0.4351426   0.6527140), wk =   0.0218480
        k(   77) = (  -0.1631785  -0.3807498   0.5983211), wk =   0.0218480
        k(   78) = (  -0.1631785  -0.4895355   0.7071068), wk =   0.0109240
        k(   79) = (  -0.1087857  -0.4351426   0.6527140), wk =   0.0218480
        k(   80) = (  -0.0543928  -0.3807498   0.5983211), wk =   0.0218480
        k(   81) = (   0.0000000  -0.3263570   0.5439283), wk =   0.0109240
        k(   82) = (  -0.0543928  -0.4895355   0.7071068), wk =   0.0109240
        k(   83) = (   0.0000000  -0.4351426   0.6527140), wk =   0.0109240
        k(   84) = (  -0.0543928  -0.3807498   0.7071068), wk =   0.0109240

                       cryst. coord.
        k(    1) = (   0.0000000   0.0000000   0.0000000), wk =   0.0004552
        k(    2) = (  -0.0000000  -0.0000000   0.0769231), wk =   0.0036413
        k(    3) = (  -0.0000000  -0.0000000   0.1538462), wk =   0.0036413
        k(    4) = (  -0.0000000  -0.0000000   0.2307692), wk =   0.0036413
        k(    5) = (  -0.0000000  -0.0000000   0.3076923), wk =   0.0036413
        k(    6) = (   0.0000000   0.0000000   0.3846154), wk =   0.0036413
        k(    7) = (  -0.0000000  -0.0000000   0.4615385), wk =   0.0036413
        k(    8) = (  -0.0000000   0.0769231   0.0769231), wk =   0.0027310
        k(    9) = (  -0.0000000   0.0769231   0.1538462), wk =   0.0109240
        k(   10) = (  -0.0000000   0.0769231   0.2307692), wk =   0.0109240
        k(   11) = (  -0.0000000   0.0769231   0.3076923), wk =   0.0109240
        k(   12) = (  -0.0000000   0.0769231   0.3846154), wk =   0.0109240
        k(   13) = (   0.0000000   0.0769231   0.4615385), wk =   0.0109240
        k(   14) = (   0.0000000   0.0769231  -0.4615385), wk =   0.0109240
        k(   15) = (   0.0000000   0.0769231  -0.3846154), wk =   0.0109240
        k(   16) = (  -0.0000000   0.0769231  -0.3076923), wk =   0.0109240
        k(   17) = (  -0.0000000   0.0769231  -0.2307692), wk =   0.0109240
        k(   18) = (   0.0000000   0.0769231  -0.1538462), wk =   0.0109240
        k(   19) = (  -0.0000000   0.0769231  -0.0769231), wk =   0.0054620
        k(   20) = (  -0.0000000   0.1538462   0.1538462), wk =   0.0027310
        k(   21) = (  -0.0000000   0.1538462   0.2307692), wk =   0.0109240
        k(   22) = (  -0.0000000   0.1538462   0.3076923), wk =   0.0109240
        k(   23) = (  -0.0000000   0.1538462   0.3846154), wk =   0.0109240
        k(   24) = (  -0.0000000   0.1538462   0.4615385), wk =   0.0109240
        k(   25) = (   0.0000000   0.1538462  -0.4615385), wk =   0.0109240
        k(   26) = (   0.0000000   0.1538462  -0.3846154), wk =   0.0109240
        k(   27) = (   0.0000000   0.1538462  -0.3076923), wk =   0.0109240
        k(   28) = (   0.0000000   0.1538462  -0.2307692), wk =   0.0109240
        k(   29) = (   0.0000000   0.1538462  -0.1538462), wk =   0.0054620
        k(   30) = (   0.0000000   0.2307692   0.2307692), wk =   0.0027310
        k(   31) = (   0.0000000   0.2307692   0.3076923), wk =   0.0109240
        k(   32) = (  -0.0000000   0.2307692   0.3846154), wk =   0.0109240
        k(   33) = (  -0.0000000   0.2307692   0.4615385), wk =   0.0109240
        k(   34) = (  -0.0000000   0.2307692  -0.4615385), wk =   0.0109240
        k(   35) = (   0.0000000   0.2307692  -0.3846154), wk =   0.0109240
        k(   36) = (   0.0000000   0.2307692  -0.3076923), wk =   0.0109240
        k(   37) = (   0.0000000   0.2307692  -0.2307692), wk =   0.0054620
        k(   38) = (  -0.0000000   0.3076923   0.3076923), wk =   0.0027310
        k(   39) = (  -0.0000000   0.3076923   0.3846154), wk =   0.0109240
        k(   40) = (  -0.0000000   0.3076923   0.4615385), wk =   0.0109240
        k(   41) = (  -0.0000000   0.3076923  -0.4615385), wk =   0.0109240
        k(   42) = (   0.0000000   0.3076923  -0.3846154), wk =   0.0109240
        k(   43) = (   0.0000000   0.3076923  -0.3076923), wk =   0.0054620
        k(   44) = (  -0.0000000   0.3846154   0.3846154), wk =   0.0027310
        k(   45) = (  -0.0000000   0.3846154   0.4615385), wk =   0.0109240
        k(   46) = (  -0.0000000   0.3846154  -0.4615385), wk =   0.0109240
        k(   47) = (  -0.0000000   0.3846154  -0.3846154), wk =   0.0054620
        k(   48) = (   0.0000000   0.4615385   0.4615385), wk =   0.0027310
        k(   49) = (   0.0000000   0.4615385  -0.4615385), wk =   0.0054620
        k(   50) = (   0.0769231   0.1538462   0.2307692), wk =   0.0109240
        k(   51) = (   0.0769231   0.1538462   0.3076923), wk =   0.0218480
        k(   52) = (   0.0769231   0.1538462   0.3846154), wk =   0.0218480
        k(   53) = (   0.0769231   0.1538462   0.4615385), wk =   0.0218480
        k(   54) = (   0.0769231   0.1538462  -0.4615385), wk =   0.0218480
        k(   55) = (   0.0769231   0.2307692   0.3076923), wk =   0.0109240
        k(   56) = (   0.0769231   0.2307692   0.3846154), wk =   0.0218480
        k(   57) = (   0.0769231   0.2307692   0.4615385), wk =   0.0218480
        k(   58) = (   0.0769231   0.2307692  -0.4615385), wk =   0.0218480
        k(   59) = (   0.0769231   0.2307692  -0.3846154), wk =   0.0218480
        k(   60) = (   0.0769231   0.2307692  -0.3076923), wk =   0.0218480
        k(   61) = (   0.0769231   0.2307692  -0.2307692), wk =   0.0218480
        k(   62) = (   0.0769231   0.2307692  -0.1538462), wk =   0.0109240
        k(   63) = (   0.0769231   0.3076923   0.3846154), wk =   0.0109240
        k(   64) = (   0.0769231   0.3076923   0.4615385), wk =   0.0218480
        k(   65) = (   0.0769231   0.3076923  -0.4615385), wk =   0.0218480
        k(   66) = (   0.0769231   0.3076923  -0.3846154), wk =   0.0218480
        k(   67) = (   0.0769231   0.3076923  -0.3076923), wk =   0.0218480
        k(   68) = (   0.0769231   0.3076923  -0.2307692), wk =   0.0109240
        k(   69) = (   0.0769231   0.3846154   0.4615385), wk =   0.0109240
        k(   70) = (   0.0769231   0.3846154  -0.4615385), wk =   0.0218480
        k(   71) = (   0.0769231   0.3846154  -0.3846154), wk =   0.0218480
        k(   72) = (   0.0769231   0.3846154  -0.3076923), wk =   0.0109240
        k(   73) = (   0.0769231   0.4615385  -0.4615385), wk =   0.0109240
        k(   74) = (   0.0769231   0.4615385  -0.3846154), wk =   0.0109240
        k(   75) = (   0.1538462   0.3076923   0.4615385), wk =   0.0109240
        k(   76) = (   0.1538462   0.3076923  -0.4615385), wk =   0.0218480
        k(   77) = (   0.1538462   0.3076923  -0.3846154), wk =   0.0218480
        k(   78) = (   0.1538462   0.3846154  -0.4615385), wk =   0.0109240
        k(   79) = (   0.1538462   0.3846154  -0.3846154), wk =   0.0218480
        k(   80) = (   0.1538462   0.3846154  -0.3076923), wk =   0.0218480
        k(   81) = (   0.1538462   0.3846154  -0.2307692), wk =   0.0109240
        k(   82) = (   0.1538462   0.4615385  -0.3846154), wk =   0.0109240
        k(   83) = (   0.1538462   0.4615385  -0.3076923), wk =   0.0109240
        k(   84) = (   0.2307692   0.4615385  -0.3076923), wk =   0.0109240

     Dense  grid:   182543 G-vectors     FFT dimensions: (  80,  80,  80)

     Smooth grid:    35053 G-vectors     FFT dimensions: (  45,  45,  45)

     Dynamical RAM for                 wfc:       2.01 MB

     Dynamical RAM for     wfc (w. buffer):     339.39 MB

     Dynamical RAM for           str. fact:       8.36 MB

     Dynamical RAM for           local pot:       0.00 MB

     Dynamical RAM for          nlocal pot:       4.82 MB

     Dynamical RAM for                qrad:       7.91 MB

     Dynamical RAM for          rho,v,vnew:      40.15 MB

     Dynamical RAM for               rhoin:      13.38 MB

     Dynamical RAM for            rho*nmix:      89.13 MB

     Dynamical RAM for           G-vectors:      10.71 MB

     Dynamical RAM for          h,s,v(r/c):       0.16 MB

     Dynamical RAM for          <psi|beta>:       0.03 MB

     Dynamical RAM for                 psi:       4.02 MB

     Dynamical RAM for                hpsi:       4.02 MB

     Dynamical RAM for                spsi:       4.02 MB

     Dynamical RAM for      wfcinit/wfcrot:       4.04 MB

     Dynamical RAM for           addusdens:     526.44 MB

     Dynamical RAM for          addusforce:     532.02 MB

     Dynamical RAM for         addusstress:     564.04 MB

     Estimated static dynamical RAM per process >     459.29 MB

     Estimated max dynamical RAM per process >       1.09 GB

     Atomic positions and unit cell read from directory:
     ./out/aiida.save/
 

     Check: negative core charge=   -0.000009
     Generating pointlists ...
     new r_m :   0.2526 (alat units)  1.9071 (a.u.) for type    1
     new r_m :   0.2526 (alat units)  1.9071 (a.u.) for type    2
     new r_m :   0.2526 (alat units)  1.9071 (a.u.) for type    3

     The initial density is read from file :
     ./out/aiida.save/charge-density


     negative rho (up, down):  0.000E+00 4.040E-05
     Starting wfcs from file
     Checking if some PAW data can be deallocated... 

     total cpu time spent up to now is        5.5 secs

     per-process dynamical memory:   505.6 Mb

     Self-consistent Calculation
[tb_dev] Currently allocated     3.05E-05 Mbytes, locked:    0 /   2
[tb_pin] Currently allocated     0.00E+00 Mbytes, locked:    0 /   0

     iteration #  1     ecut=    90.00 Ry     beta= 0.20
     Davidson diagonalization with overlap

---- Real-time Memory Report at c_bands before calling an iterative solver
           832 MiB given to the printing process from OS
           505 MiB allocation reported by mallinfo(arena+hblkhd)
         58858 MiB available memory on the node where the printing process lives
     GPU memory used/free/total (MiB): 768 / 15512 / 16280
------------------
     ethr =  1.00E-05,  avg # of iterations =  1.0

     Threshold (ethr) on eigenvalues was too large:
     Diagonalizing with lowered threshold

     Davidson diagonalization with overlap

---- Real-time Memory Report at c_bands before calling an iterative solver
          1517 MiB given to the printing process from OS
          1146 MiB allocation reported by mallinfo(arena+hblkhd)
         57424 MiB available memory on the node where the printing process lives
     GPU memory used/free/total (MiB): 1480 / 14800 / 16280
------------------
     ethr =  3.85E-10,  avg # of iterations =  6.8

     negative rho (up, down):  0.000E+00 4.040E-05

     total cpu time spent up to now is       17.5 secs

     total energy              =    -903.45569184 Ry
     estimated scf accuracy    <       0.00000012 Ry

     total magnetization       =     5.96 Bohr mag/cell
     absolute magnetization    =     6.32 Bohr mag/cell
[tb_dev] Currently allocated     3.05E+00 Mbytes, locked:    0 /  10
[tb_pin] Currently allocated     0.00E+00 Mbytes, locked:    0 /   0

     iteration #  2     ecut=    90.00 Ry     beta= 0.20
     Davidson diagonalization with overlap

---- Real-time Memory Report at c_bands before calling an iterative solver
          1728 MiB given to the printing process from OS
          1174 MiB allocation reported by mallinfo(arena+hblkhd)
         57404 MiB available memory on the node where the printing process lives
     GPU memory used/free/total (MiB): 1646 / 14634 / 16280
------------------
     ethr =  2.37E-10,  avg # of iterations =  1.9

     negative rho (up, down):  0.000E+00 4.040E-05

     total cpu time spent up to now is       22.2 secs

     total energy              =    -903.45569184 Ry
     estimated scf accuracy    <       0.00000024 Ry

     total magnetization       =     5.96 Bohr mag/cell
     absolute magnetization    =     6.32 Bohr mag/cell
[tb_dev] Currently allocated     3.05E+00 Mbytes, locked:    0 /  10
[tb_pin] Currently allocated     0.00E+00 Mbytes, locked:    0 /   0

     iteration #  3     ecut=    90.00 Ry     beta= 0.20
     Davidson diagonalization with overlap

---- Real-time Memory Report at c_bands before calling an iterative solver
          1888 MiB given to the printing process from OS
          1182 MiB allocation reported by mallinfo(arena+hblkhd)
         57400 MiB available memory on the node where the printing process lives
     GPU memory used/free/total (MiB): 1646 / 14634 / 16280
------------------
     ethr =  2.37E-10,  avg # of iterations =  1.1

     negative rho (up, down):  0.000E+00 4.039E-05

     total cpu time spent up to now is       26.4 secs

     total energy              =    -903.45569187 Ry
     estimated scf accuracy    <       0.00000008 Ry

     total magnetization       =     5.96 Bohr mag/cell
     absolute magnetization    =     6.32 Bohr mag/cell
[tb_dev] Currently allocated     3.05E+00 Mbytes, locked:    0 /  10
[tb_pin] Currently allocated     0.00E+00 Mbytes, locked:    0 /   0

     iteration #  4     ecut=    90.00 Ry     beta= 0.20
     Davidson diagonalization with overlap

---- Real-time Memory Report at c_bands before calling an iterative solver
          1954 MiB given to the printing process from OS
          1191 MiB allocation reported by mallinfo(arena+hblkhd)
         57388 MiB available memory on the node where the printing process lives
     GPU memory used/free/total (MiB): 1646 / 14634 / 16280
------------------
     ethr =  1.59E-10,  avg # of iterations =  1.2

     negative rho (up, down):  0.000E+00 4.038E-05

     total cpu time spent up to now is       30.6 secs

     total energy              =    -903.45569189 Ry
     estimated scf accuracy    <       0.00000008 Ry

     total magnetization       =     5.96 Bohr mag/cell
     absolute magnetization    =     6.32 Bohr mag/cell
[tb_dev] Currently allocated     3.05E+00 Mbytes, locked:    0 /  10
[tb_pin] Currently allocated     0.00E+00 Mbytes, locked:    0 /   0

     iteration #  5     ecut=    90.00 Ry     beta= 0.20
     Davidson diagonalization with overlap

---- Real-time Memory Report at c_bands before calling an iterative solver
          2022 MiB given to the printing process from OS
          1200 MiB allocation reported by mallinfo(arena+hblkhd)
         57383 MiB available memory on the node where the printing process lives
     GPU memory used/free/total (MiB): 1646 / 14634 / 16280
------------------
     ethr =  1.52E-10,  avg # of iterations =  1.2

     negative rho (up, down):  0.000E+00 4.036E-05

     total cpu time spent up to now is       34.9 secs

     total energy              =    -903.45569194 Ry
     estimated scf accuracy    <       0.00000008 Ry

     total magnetization       =     5.96 Bohr mag/cell
     absolute magnetization    =     6.32 Bohr mag/cell
[tb_dev] Currently allocated     3.05E+00 Mbytes, locked:    0 /  10
[tb_pin] Currently allocated     0.00E+00 Mbytes, locked:    0 /   0

     iteration #  6     ecut=    90.00 Ry     beta= 0.20
     Davidson diagonalization with overlap

---- Real-time Memory Report at c_bands before calling an iterative solver
          2087 MiB given to the printing process from OS
          1208 MiB allocation reported by mallinfo(arena+hblkhd)
         57373 MiB available memory on the node where the printing process lives
     GPU memory used/free/total (MiB): 1646 / 14634 / 16280
------------------
     ethr =  1.52E-10,  avg # of iterations =  2.4

     negative rho (up, down):  0.000E+00 4.031E-05

     total cpu time spent up to now is       39.9 secs

     total energy              =    -903.45569194 Ry
     estimated scf accuracy    <       0.00000008 Ry

     total magnetization       =     5.95 Bohr mag/cell
     absolute magnetization    =     6.31 Bohr mag/cell
[tb_dev] Currently allocated     3.05E+00 Mbytes, locked:    0 /  10
[tb_pin] Currently allocated     0.00E+00 Mbytes, locked:    0 /   0

     iteration #  7     ecut=    90.00 Ry     beta= 0.20
     Davidson diagonalization with overlap

---- Real-time Memory Report at c_bands before calling an iterative solver
          2110 MiB given to the printing process from OS
          1217 MiB allocation reported by mallinfo(arena+hblkhd)
         57365 MiB available memory on the node where the printing process lives
     GPU memory used/free/total (MiB): 1646 / 14634 / 16280
------------------
     ethr =  1.52E-10,  avg # of iterations =  5.0

     negative rho (up, down):  0.000E+00 4.048E-05

     total cpu time spent up to now is       46.9 secs

     total energy              =    -903.45568955 Ry
     estimated scf accuracy    <       0.00000013 Ry

     total magnetization       =     5.95 Bohr mag/cell
     absolute magnetization    =     6.31 Bohr mag/cell
[tb_dev] Currently allocated     3.05E+00 Mbytes, locked:    0 /  10
[tb_pin] Currently allocated     0.00E+00 Mbytes, locked:    0 /   0

     iteration #  8     ecut=    90.00 Ry     beta= 0.20
     Davidson diagonalization with overlap

---- Real-time Memory Report at c_bands before calling an iterative solver
          2118 MiB given to the printing process from OS
          1226 MiB allocation reported by mallinfo(arena+hblkhd)
         57359 MiB available memory on the node where the printing process lives
     GPU memory used/free/total (MiB): 1646 / 14634 / 16280
------------------
     ethr =  1.52E-10,  avg # of iterations =  6.7

     negative rho (up, down):  0.000E+00 4.035E-05

     total cpu time spent up to now is       55.3 secs

     total energy              =    -903.45569085 Ry
     estimated scf accuracy    <       0.00000018 Ry

     total magnetization       =     5.97 Bohr mag/cell
     absolute magnetization    =     6.33 Bohr mag/cell
[tb_dev] Currently allocated     3.05E+00 Mbytes, locked:    0 /  10
[tb_pin] Currently allocated     0.00E+00 Mbytes, locked:    0 /   0

     iteration #  9     ecut=    90.00 Ry     beta= 0.20
     Davidson diagonalization with overlap

---- Real-time Memory Report at c_bands before calling an iterative solver
          2127 MiB given to the printing process from OS
          1234 MiB allocation reported by mallinfo(arena+hblkhd)
         57348 MiB available memory on the node where the printing process lives
     GPU memory used/free/total (MiB): 1646 / 14634 / 16280
------------------
     ethr =  1.52E-10,  avg # of iterations =  6.3

     negative rho (up, down):  0.000E+00 4.071E-05

     total cpu time spent up to now is       63.3 secs

     total energy              =    -903.45568119 Ry
     estimated scf accuracy    <       0.00000038 Ry

     total magnetization       =     5.95 Bohr mag/cell
     absolute magnetization    =     6.31 Bohr mag/cell
[tb_dev] Currently allocated     3.05E+00 Mbytes, locked:    0 /  10
[tb_pin] Currently allocated     0.00E+00 Mbytes, locked:    0 /   0

     iteration # 10     ecut=    90.00 Ry     beta= 0.20
     Davidson diagonalization with overlap

---- Real-time Memory Report at c_bands before calling an iterative solver
          2136 MiB given to the printing process from OS
          1243 MiB allocation reported by mallinfo(arena+hblkhd)
         57340 MiB available memory on the node where the printing process lives
     GPU memory used/free/total (MiB): 1646 / 14634 / 16280
------------------
     ethr =  1.52E-10,  avg # of iterations =  8.5

     negative rho (up, down):  0.000E+00 4.063E-05

     total cpu time spent up to now is       73.3 secs

     total energy              =    -903.45569070 Ry
     estimated scf accuracy    <       0.00000022 Ry

     total magnetization       =     5.99 Bohr mag/cell
     absolute magnetization    =     6.35 Bohr mag/cell
[tb_dev] Currently allocated     3.05E+00 Mbytes, locked:    0 /  10
[tb_pin] Currently allocated     0.00E+00 Mbytes, locked:    0 /   0

     iteration # 11     ecut=    90.00 Ry     beta= 0.20
     Davidson diagonalization with overlap

---- Real-time Memory Report at c_bands before calling an iterative solver
          2143 MiB given to the printing process from OS
          1248 MiB allocation reported by mallinfo(arena+hblkhd)
         57333 MiB available memory on the node where the printing process lives
     GPU memory used/free/total (MiB): 1646 / 14634 / 16280
------------------
     ethr =  1.52E-10,  avg # of iterations =  4.7

     negative rho (up, down):  0.000E+00 4.030E-05

     total cpu time spent up to now is       80.4 secs

     total energy              =    -903.45568375 Ry
     estimated scf accuracy    <       0.00000026 Ry

     total magnetization       =     5.98 Bohr mag/cell
     absolute magnetization    =     6.34 Bohr mag/cell
[tb_dev] Currently allocated     3.05E+00 Mbytes, locked:    0 /  10
[tb_pin] Currently allocated     0.00E+00 Mbytes, locked:    0 /   0

     iteration # 12     ecut=    90.00 Ry     beta= 0.20
     Davidson diagonalization with overlap

---- Real-time Memory Report at c_bands before calling an iterative solver
          2148 MiB given to the printing process from OS
          1254 MiB allocation reported by mallinfo(arena+hblkhd)
         57329 MiB available memory on the node where the printing process lives
     GPU memory used/free/total (MiB): 1646 / 14634 / 16280
------------------
     ethr =  1.52E-10,  avg # of iterations =  8.7

     negative rho (up, down):  0.000E+00 3.989E-05

     total cpu time spent up to now is       90.6 secs

     total energy              =    -903.45568242 Ry
     estimated scf accuracy    <       0.00000010 Ry

     total magnetization       =     5.95 Bohr mag/cell
     absolute magnetization    =     6.31 Bohr mag/cell
[tb_dev] Currently allocated     3.05E+00 Mbytes, locked:    0 /  10
[tb_pin] Currently allocated     0.00E+00 Mbytes, locked:    0 /   0

     iteration # 13     ecut=    90.00 Ry     beta= 0.20
     Davidson diagonalization with overlap

---- Real-time Memory Report at c_bands before calling an iterative solver
          2154 MiB given to the printing process from OS
          1259 MiB allocation reported by mallinfo(arena+hblkhd)
         57326 MiB available memory on the node where the printing process lives
     GPU memory used/free/total (MiB): 1646 / 14634 / 16280
------------------
     ethr =  1.52E-10,  avg # of iterations =  9.1

     negative rho (up, down):  0.000E+00 3.956E-05

     total cpu time spent up to now is      101.3 secs

     total energy              =    -903.45568823 Ry
     estimated scf accuracy    <       0.00000035 Ry

     total magnetization       =     5.91 Bohr mag/cell
     absolute magnetization    =     6.27 Bohr mag/cell
[tb_dev] Currently allocated     3.05E+00 Mbytes, locked:    0 /  10
[tb_pin] Currently allocated     0.00E+00 Mbytes, locked:    0 /   0

     iteration # 14     ecut=    90.00 Ry     beta= 0.20
     Davidson diagonalization with overlap

---- Real-time Memory Report at c_bands before calling an iterative solver
          2160 MiB given to the printing process from OS
          1265 MiB allocation reported by mallinfo(arena+hblkhd)
         57319 MiB available memory on the node where the printing process lives
     GPU memory used/free/total (MiB): 1646 / 14634 / 16280
------------------
     ethr =  1.52E-10,  avg # of iterations =  8.6

     negative rho (up, down):  0.000E+00 4.022E-05

     total cpu time spent up to now is      111.6 secs

     total energy              =    -903.45565979 Ry
     estimated scf accuracy    <       0.00000085 Ry

     total magnetization       =     5.88 Bohr mag/cell
     absolute magnetization    =     6.24 Bohr mag/cell
[tb_dev] Currently allocated     3.05E+00 Mbytes, locked:    0 /  10
[tb_pin] Currently allocated     0.00E+00 Mbytes, locked:    0 /   0

     iteration # 15     ecut=    90.00 Ry     beta= 0.20
     Davidson diagonalization with overlap

---- Real-time Memory Report at c_bands before calling an iterative solver
          2165 MiB given to the printing process from OS
          1270 MiB allocation reported by mallinfo(arena+hblkhd)
         57314 MiB available memory on the node where the printing process lives
     GPU memory used/free/total (MiB): 1646 / 14634 / 16280
------------------
     ethr =  1.52E-10,  avg # of iterations = 11.0

     negative rho (up, down):  0.000E+00 4.065E-05

     total cpu time spent up to now is      123.9 secs

     total energy              =    -903.45567744 Ry
     estimated scf accuracy    <       0.00000016 Ry

     total magnetization       =     5.94 Bohr mag/cell
     absolute magnetization    =     6.30 Bohr mag/cell
[tb_dev] Currently allocated     3.05E+00 Mbytes, locked:    0 /  10
[tb_pin] Currently allocated     0.00E+00 Mbytes, locked:    0 /   0

     iteration # 16     ecut=    90.00 Ry     beta= 0.20
     Davidson diagonalization with overlap

---- Real-time Memory Report at c_bands before calling an iterative solver
          2171 MiB given to the printing process from OS
          1275 MiB allocation reported by mallinfo(arena+hblkhd)
         57310 MiB available memory on the node where the printing process lives
     GPU memory used/free/total (MiB): 1646 / 14634 / 16280
------------------
     ethr =  1.52E-10,  avg # of iterations =  9.2

     negative rho (up, down):  0.000E+00 4.026E-05

     total cpu time spent up to now is      134.7 secs

     total energy              =    -903.45568119 Ry
     estimated scf accuracy    <       0.00000008 Ry

     total magnetization       =     5.98 Bohr mag/cell
     absolute magnetization    =     6.34 Bohr mag/cell
[tb_dev] Currently allocated     3.05E+00 Mbytes, locked:    0 /  10
[tb_pin] Currently allocated     0.00E+00 Mbytes, locked:    0 /   0

     iteration # 17     ecut=    90.00 Ry     beta= 0.20
     Davidson diagonalization with overlap

---- Real-time Memory Report at c_bands before calling an iterative solver
          2176 MiB given to the printing process from OS
          1281 MiB allocation reported by mallinfo(arena+hblkhd)
         57305 MiB available memory on the node where the printing process lives
     GPU memory used/free/total (MiB): 1646 / 14634 / 16280
------------------
     ethr =  1.52E-10,  avg # of iterations =  8.7

     negative rho (up, down):  0.000E+00 4.061E-05

     total cpu time spent up to now is      145.0 secs

     total energy              =    -903.45568199 Ry
     estimated scf accuracy    <       0.00000013 Ry

     total magnetization       =     5.94 Bohr mag/cell
     absolute magnetization    =     6.30 Bohr mag/cell
[tb_dev] Currently allocated     3.05E+00 Mbytes, locked:    0 /  10
[tb_pin] Currently allocated     0.00E+00 Mbytes, locked:    0 /   0

     iteration # 18     ecut=    90.00 Ry     beta= 0.20
     Davidson diagonalization with overlap

---- Real-time Memory Report at c_bands before calling an iterative solver
          2183 MiB given to the printing process from OS
          1286 MiB allocation reported by mallinfo(arena+hblkhd)
         57296 MiB available memory on the node where the printing process lives
     GPU memory used/free/total (MiB): 1646 / 14634 / 16280
------------------
     ethr =  1.52E-10,  avg # of iterations =  8.7

     negative rho (up, down):  0.000E+00 4.043E-05

     total cpu time spent up to now is      155.4 secs

     total energy              =    -903.45568908 Ry
     estimated scf accuracy    <       0.00000008 Ry

     total magnetization       =     5.98 Bohr mag/cell
     absolute magnetization    =     6.34 Bohr mag/cell
[tb_dev] Currently allocated     3.05E+00 Mbytes, locked:    0 /  10
[tb_pin] Currently allocated     0.00E+00 Mbytes, locked:    0 /   0

     iteration # 19     ecut=    90.00 Ry     beta= 0.20
     Davidson diagonalization with overlap

---- Real-time Memory Report at c_bands before calling an iterative solver
          2188 MiB given to the printing process from OS
          1292 MiB allocation reported by mallinfo(arena+hblkhd)
         57290 MiB available memory on the node where the printing process lives
     GPU memory used/free/total (MiB): 1646 / 14634 / 16280
------------------
     ethr =  1.52E-10,  avg # of iterations =  6.9

     negative rho (up, down):  0.000E+00 4.040E-05

     total cpu time spent up to now is      163.8 secs

     total energy              =    -903.45569179 Ry
     estimated scf accuracy    <       0.00000012 Ry

     total magnetization       =     5.96 Bohr mag/cell
     absolute magnetization    =     6.32 Bohr mag/cell
[tb_dev] Currently allocated     3.05E+00 Mbytes, locked:    0 /  10
[tb_pin] Currently allocated     0.00E+00 Mbytes, locked:    0 /   0

     iteration # 20     ecut=    90.00 Ry     beta= 0.20
     Davidson diagonalization with overlap

---- Real-time Memory Report at c_bands before calling an iterative solver
          2194 MiB given to the printing process from OS
          1297 MiB allocation reported by mallinfo(arena+hblkhd)
         57287 MiB available memory on the node where the printing process lives
     GPU memory used/free/total (MiB): 1646 / 14634 / 16280
------------------
     ethr =  1.52E-10,  avg # of iterations =  3.1

     negative rho (up, down):  0.000E+00 4.045E-05

     total cpu time spent up to now is      169.2 secs

     total energy              =    -903.45569151 Ry
     estimated scf accuracy    <       0.00000012 Ry

     total magnetization       =     5.96 Bohr mag/cell
     absolute magnetization    =     6.32 Bohr mag/cell
[tb_dev] Currently allocated     3.05E+00 Mbytes, locked:    0 /  10
[tb_pin] Currently allocated     0.00E+00 Mbytes, locked:    0 /   0

     iteration # 21     ecut=    90.00 Ry     beta= 0.20
     Davidson diagonalization with overlap

---- Real-time Memory Report at c_bands before calling an iterative solver
          2201 MiB given to the printing process from OS
          1303 MiB allocation reported by mallinfo(arena+hblkhd)
         57277 MiB available memory on the node where the printing process lives
     GPU memory used/free/total (MiB): 1646 / 14634 / 16280
------------------
     ethr =  1.52E-10,  avg # of iterations =  3.6

     negative rho (up, down):  0.000E+00 4.045E-05

     total cpu time spent up to now is      175.1 secs

     total energy              =    -903.45569168 Ry
     estimated scf accuracy    <       0.00000012 Ry

     total magnetization       =     5.96 Bohr mag/cell
     absolute magnetization    =     6.32 Bohr mag/cell
[tb_dev] Currently allocated     3.05E+00 Mbytes, locked:    0 /  10
[tb_pin] Currently allocated     0.00E+00 Mbytes, locked:    0 /   0

     iteration # 22     ecut=    90.00 Ry     beta= 0.20
     Davidson diagonalization with overlap

---- Real-time Memory Report at c_bands before calling an iterative solver
          2207 MiB given to the printing process from OS
          1309 MiB allocation reported by mallinfo(arena+hblkhd)
         57272 MiB available memory on the node where the printing process lives
     GPU memory used/free/total (MiB): 1646 / 14634 / 16280
------------------
     ethr =  1.52E-10,  avg # of iterations =  1.0

     negative rho (up, down):  0.000E+00 4.060E-05

     total cpu time spent up to now is      179.2 secs

     total energy              =    -903.45568941 Ry
     estimated scf accuracy    <       0.00000012 Ry

     total magnetization       =     5.96 Bohr mag/cell
     absolute magnetization    =     6.32 Bohr mag/cell
[tb_dev] Currently allocated     3.05E+00 Mbytes, locked:    0 /  10
[tb_pin] Currently allocated     0.00E+00 Mbytes, locked:    0 /   0

     iteration # 23     ecut=    90.00 Ry     beta= 0.20
     Davidson diagonalization with overlap

---- Real-time Memory Report at c_bands before calling an iterative solver
          2215 MiB given to the printing process from OS
          1315 MiB allocation reported by mallinfo(arena+hblkhd)
         57265 MiB available memory on the node where the printing process lives
     GPU memory used/free/total (MiB): 1646 / 14634 / 16280
------------------
     ethr =  1.52E-10,  avg # of iterations =  6.8

     negative rho (up, down):  0.000E+00 4.159E-05

     total cpu time spent up to now is      187.5 secs

     total energy              =    -903.45561546 Ry
     estimated scf accuracy    <       0.00000009 Ry

     total magnetization       =     5.98 Bohr mag/cell
     absolute magnetization    =     6.34 Bohr mag/cell
[tb_dev] Currently allocated     3.05E+00 Mbytes, locked:    0 /  10
[tb_pin] Currently allocated     0.00E+00 Mbytes, locked:    0 /   0

     iteration # 24     ecut=    90.00 Ry     beta= 0.20
     Davidson diagonalization with overlap

---- Real-time Memory Report at c_bands before calling an iterative solver
          2221 MiB given to the printing process from OS
          1321 MiB allocation reported by mallinfo(arena+hblkhd)
         57259 MiB available memory on the node where the printing process lives
     GPU memory used/free/total (MiB): 1646 / 14634 / 16280
------------------
     ethr =  1.52E-10,  avg # of iterations = 12.9

     negative rho (up, down):  0.000E+00 4.007E-05

     total cpu time spent up to now is      201.6 secs

     total energy              =    -903.45552236 Ry
     estimated scf accuracy    <       0.00000051 Ry

     total magnetization       =     6.07 Bohr mag/cell
     absolute magnetization    =     6.43 Bohr mag/cell
[tb_dev] Currently allocated     3.05E+00 Mbytes, locked:    0 /  10
[tb_pin] Currently allocated     0.00E+00 Mbytes, locked:    0 /   0

     iteration # 25     ecut=    90.00 Ry     beta= 0.20
     Davidson diagonalization with overlap

---- Real-time Memory Report at c_bands before calling an iterative solver
          2229 MiB given to the printing process from OS
          1326 MiB allocation reported by mallinfo(arena+hblkhd)
         57254 MiB available memory on the node where the printing process lives
     GPU memory used/free/total (MiB): 1646 / 14634 / 16280
------------------
     c_bands:  1 eigenvalues not converged
     c_bands:  2 eigenvalues not converged
     c_bands:  1 eigenvalues not converged
     c_bands:  1 eigenvalues not converged
     ethr =  1.52E-10,  avg # of iterations = 14.0

     negative rho (up, down):  0.000E+00 4.015E-05

     total cpu time spent up to now is      217.1 secs

     total energy              =    -903.45569236 Ry
     estimated scf accuracy    <       0.00000029 Ry

     total magnetization       =     5.92 Bohr mag/cell
     absolute magnetization    =     6.28 Bohr mag/cell
[tb_dev] Currently allocated     3.05E+00 Mbytes, locked:    0 /  10
[tb_pin] Currently allocated     0.00E+00 Mbytes, locked:    0 /   0

     iteration # 26     ecut=    90.00 Ry     beta= 0.20
     Davidson diagonalization with overlap

---- Real-time Memory Report at c_bands before calling an iterative solver
          2235 MiB given to the printing process from OS
          1332 MiB allocation reported by mallinfo(arena+hblkhd)
         57246 MiB available memory on the node where the printing process lives
     GPU memory used/free/total (MiB): 1646 / 14634 / 16280
------------------
     ethr =  1.52E-10,  avg # of iterations =  4.8

     negative rho (up, down):  0.000E+00 4.024E-05

     total cpu time spent up to now is      224.0 secs

     total energy              =    -903.45569164 Ry
     estimated scf accuracy    <       0.00000024 Ry

     total magnetization       =     5.93 Bohr mag/cell
     absolute magnetization    =     6.29 Bohr mag/cell
[tb_dev] Currently allocated     3.05E+00 Mbytes, locked:    0 /  10
[tb_pin] Currently allocated     0.00E+00 Mbytes, locked:    0 /   0

     iteration # 27     ecut=    90.00 Ry     beta= 0.20
     Davidson diagonalization with overlap

---- Real-time Memory Report at c_bands before calling an iterative solver
          2240 MiB given to the printing process from OS
          1338 MiB allocation reported by mallinfo(arena+hblkhd)
         57242 MiB available memory on the node where the printing process lives
     GPU memory used/free/total (MiB): 1646 / 14634 / 16280
------------------
     ethr =  1.52E-10,  avg # of iterations =  6.0

     negative rho (up, down):  0.000E+00 4.075E-05

     total cpu time spent up to now is      231.6 secs

     total energy              =    -903.45566947 Ry
     estimated scf accuracy    <       0.00000019 Ry

     total magnetization       =     5.94 Bohr mag/cell
     absolute magnetization    =     6.30 Bohr mag/cell
[tb_dev] Currently allocated     3.05E+00 Mbytes, locked:    0 /  10
[tb_pin] Currently allocated     0.00E+00 Mbytes, locked:    0 /   0

     iteration # 28     ecut=    90.00 Ry     beta= 0.20
     Davidson diagonalization with overlap

---- Real-time Memory Report at c_bands before calling an iterative solver
          2247 MiB given to the printing process from OS
          1344 MiB allocation reported by mallinfo(arena+hblkhd)
         57235 MiB available memory on the node where the printing process lives
     GPU memory used/free/total (MiB): 1646 / 14634 / 16280
------------------
     ethr =  1.52E-10,  avg # of iterations = 10.3

     negative rho (up, down):  0.000E+00 4.010E-05

     total cpu time spent up to now is      243.3 secs

     total energy              =    -903.45565827 Ry
     estimated scf accuracy    <       0.00000008 Ry

     total magnetization       =     5.99 Bohr mag/cell
     absolute magnetization    =     6.35 Bohr mag/cell
[tb_dev] Currently allocated     3.05E+00 Mbytes, locked:    0 /  10
[tb_pin] Currently allocated     0.00E+00 Mbytes, locked:    0 /   0

     iteration # 29     ecut=    90.00 Ry     beta= 0.20
     Davidson diagonalization with overlap

---- Real-time Memory Report at c_bands before calling an iterative solver
          2254 MiB given to the printing process from OS
          1350 MiB allocation reported by mallinfo(arena+hblkhd)
         57227 MiB available memory on the node where the printing process lives
     GPU memory used/free/total (MiB): 1646 / 14634 / 16280
------------------
     ethr =  1.52E-10,  avg # of iterations = 10.9

     negative rho (up, down):  0.000E+00 4.111E-05

     total cpu time spent up to now is      255.5 secs

     total energy              =    -903.45560808 Ry
     estimated scf accuracy    <       0.00000027 Ry

     total magnetization       =     5.93 Bohr mag/cell
     absolute magnetization    =     6.29 Bohr mag/cell
[tb_dev] Currently allocated     3.05E+00 Mbytes, locked:    0 /  10
[tb_pin] Currently allocated     0.00E+00 Mbytes, locked:    0 /   0

     iteration # 30     ecut=    90.00 Ry     beta= 0.20
     Davidson diagonalization with overlap

---- Real-time Memory Report at c_bands before calling an iterative solver
          2260 MiB given to the printing process from OS
          1356 MiB allocation reported by mallinfo(arena+hblkhd)
         57219 MiB available memory on the node where the printing process lives
     GPU memory used/free/total (MiB): 1646 / 14634 / 16280
------------------
     ethr =  1.52E-10,  avg # of iterations = 12.5

     negative rho (up, down):  0.000E+00 4.054E-05

     total cpu time spent up to now is      269.7 secs

     total energy              =    -903.45566591 Ry
     estimated scf accuracy    <       0.00000012 Ry

     total magnetization       =     6.03 Bohr mag/cell
     absolute magnetization    =     6.39 Bohr mag/cell
[tb_dev] Currently allocated     3.05E+00 Mbytes, locked:    0 /  10
[tb_pin] Currently allocated     0.00E+00 Mbytes, locked:    0 /   0

     iteration # 31     ecut=    90.00 Ry     beta= 0.20
     Davidson diagonalization with overlap

---- Real-time Memory Report at c_bands before calling an iterative solver
          2262 MiB given to the printing process from OS
          1362 MiB allocation reported by mallinfo(arena+hblkhd)
         57219 MiB available memory on the node where the printing process lives
     GPU memory used/free/total (MiB): 1646 / 14634 / 16280
------------------
     ethr =  1.52E-10,  avg # of iterations = 10.0

     negative rho (up, down):  0.000E+00 4.055E-05

     total cpu time spent up to now is      281.5 secs

     total energy              =    -903.45569134 Ry
     estimated scf accuracy    <       0.00000010 Ry

     total magnetization       =     5.97 Bohr mag/cell
     absolute magnetization    =     6.33 Bohr mag/cell
[tb_dev] Currently allocated     3.05E+00 Mbytes, locked:    0 /  10
[tb_pin] Currently allocated     0.00E+00 Mbytes, locked:    0 /   0

     iteration # 32     ecut=    90.00 Ry     beta= 0.20
     Davidson diagonalization with overlap

---- Real-time Memory Report at c_bands before calling an iterative solver
          2269 MiB given to the printing process from OS
          1368 MiB allocation reported by mallinfo(arena+hblkhd)
         57211 MiB available memory on the node where the printing process lives
     GPU memory used/free/total (MiB): 1646 / 14634 / 16280
------------------
     ethr =  1.52E-10,  avg # of iterations =  1.6

     negative rho (up, down):  0.000E+00 4.116E-05

     total cpu time spent up to now is      286.0 secs

     total energy              =    -903.45566033 Ry
     estimated scf accuracy    <       0.00000010 Ry

     total magnetization       =     5.97 Bohr mag/cell
     absolute magnetization    =     6.33 Bohr mag/cell
[tb_dev] Currently allocated     3.05E+00 Mbytes, locked:    0 /  10
[tb_pin] Currently allocated     0.00E+00 Mbytes, locked:    0 /   0

     iteration # 33     ecut=    90.00 Ry     beta= 0.20
     Davidson diagonalization with overlap

---- Real-time Memory Report at c_bands before calling an iterative solver
          2276 MiB given to the printing process from OS
          1374 MiB allocation reported by mallinfo(arena+hblkhd)
         57202 MiB available memory on the node where the printing process lives
     GPU memory used/free/total (MiB): 1646 / 14634 / 16280
------------------
     c_bands:  1 eigenvalues not converged
     ethr =  1.52E-10,  avg # of iterations = 10.8

     negative rho (up, down):  0.000E+00 4.094E-05

     total cpu time spent up to now is      298.2 secs

     total energy              =    -903.45568668 Ry
     estimated scf accuracy    <       0.00000016 Ry

     total magnetization       =     6.03 Bohr mag/cell
     absolute magnetization    =     6.39 Bohr mag/cell
[tb_dev] Currently allocated     3.05E+00 Mbytes, locked:    0 /  10
[tb_pin] Currently allocated     0.00E+00 Mbytes, locked:    0 /   0

     iteration # 34     ecut=    90.00 Ry     beta= 0.20
     Davidson diagonalization with overlap

---- Real-time Memory Report at c_bands before calling an iterative solver
          2282 MiB given to the printing process from OS
          1380 MiB allocation reported by mallinfo(arena+hblkhd)
         57198 MiB available memory on the node where the printing process lives
     GPU memory used/free/total (MiB): 1646 / 14634 / 16280
------------------
     ethr =  1.52E-10,  avg # of iterations =  7.5

     negative rho (up, down):  0.000E+00 4.090E-05

     total cpu time spent up to now is      307.2 secs

     total energy              =    -903.45569025 Ry
     estimated scf accuracy    <       0.00000010 Ry

     total magnetization       =     6.01 Bohr mag/cell
     absolute magnetization    =     6.37 Bohr mag/cell
[tb_dev] Currently allocated     3.05E+00 Mbytes, locked:    0 /  10
[tb_pin] Currently allocated     0.00E+00 Mbytes, locked:    0 /   0

     iteration # 35     ecut=    90.00 Ry     beta= 0.20
     Davidson diagonalization with overlap

---- Real-time Memory Report at c_bands before calling an iterative solver
          2289 MiB given to the printing process from OS
          1386 MiB allocation reported by mallinfo(arena+hblkhd)
         57192 MiB available memory on the node where the printing process lives
     GPU memory used/free/total (MiB): 1646 / 14634 / 16280
------------------
     ethr =  1.52E-10,  avg # of iterations =  4.0

     negative rho (up, down):  0.000E+00 4.084E-05

     total cpu time spent up to now is      313.3 secs

     total energy              =    -903.45569017 Ry
     estimated scf accuracy    <       0.00000009 Ry

     total magnetization       =     6.01 Bohr mag/cell
     absolute magnetization    =     6.37 Bohr mag/cell
[tb_dev] Currently allocated     3.05E+00 Mbytes, locked:    0 /  10
[tb_pin] Currently allocated     0.00E+00 Mbytes, locked:    0 /   0

     iteration # 36     ecut=    90.00 Ry     beta= 0.20
     Davidson diagonalization with overlap

---- Real-time Memory Report at c_bands before calling an iterative solver
          2294 MiB given to the printing process from OS
          1392 MiB allocation reported by mallinfo(arena+hblkhd)
         57186 MiB available memory on the node where the printing process lives
     GPU memory used/free/total (MiB): 1646 / 14634 / 16280
------------------
     ethr =  1.52E-10,  avg # of iterations =  5.2

     negative rho (up, down):  0.000E+00 4.066E-05

     total cpu time spent up to now is      320.4 secs

     total energy              =    -903.45568867 Ry
     estimated scf accuracy    <       0.00000009 Ry

     total magnetization       =     6.00 Bohr mag/cell
     absolute magnetization    =     6.36 Bohr mag/cell
[tb_dev] Currently allocated     3.05E+00 Mbytes, locked:    0 /  10
[tb_pin] Currently allocated     0.00E+00 Mbytes, locked:    0 /   0

     iteration # 37     ecut=    90.00 Ry     beta= 0.20
     Davidson diagonalization with overlap

---- Real-time Memory Report at c_bands before calling an iterative solver
          2300 MiB given to the printing process from OS
          1397 MiB allocation reported by mallinfo(arena+hblkhd)
         57177 MiB available memory on the node where the printing process lives
     GPU memory used/free/total (MiB): 1646 / 14634 / 16280
------------------
     ethr =  1.52E-10,  avg # of iterations =  7.1

     negative rho (up, down):  0.000E+00 4.086E-05

     total cpu time spent up to now is      329.2 secs

     total energy              =    -903.45568714 Ry
     estimated scf accuracy    <       0.00000009 Ry

     total magnetization       =     5.98 Bohr mag/cell
     absolute magnetization    =     6.34 Bohr mag/cell
[tb_dev] Currently allocated     3.05E+00 Mbytes, locked:    0 /  10
[tb_pin] Currently allocated     0.00E+00 Mbytes, locked:    0 /   0

     iteration # 38     ecut=    90.00 Ry     beta= 0.20
     Davidson diagonalization with overlap

---- Real-time Memory Report at c_bands before calling an iterative solver
          2307 MiB given to the printing process from OS
          1403 MiB allocation reported by mallinfo(arena+hblkhd)
         57172 MiB available memory on the node where the printing process lives
     GPU memory used/free/total (MiB): 1646 / 14634 / 16280
------------------
     ethr =  1.52E-10,  avg # of iterations =  7.2

     negative rho (up, down):  0.000E+00 4.014E-05

     total cpu time spent up to now is      338.0 secs

     total energy              =    -903.45565122 Ry
     estimated scf accuracy    <       0.00000009 Ry

     total magnetization       =     6.00 Bohr mag/cell
     absolute magnetization    =     6.36 Bohr mag/cell
[tb_dev] Currently allocated     3.05E+00 Mbytes, locked:    0 /  10
[tb_pin] Currently allocated     0.00E+00 Mbytes, locked:    0 /   0

     iteration # 39     ecut=    90.00 Ry     beta= 0.20
     Davidson diagonalization with overlap

---- Real-time Memory Report at c_bands before calling an iterative solver
          2313 MiB given to the printing process from OS
          1409 MiB allocation reported by mallinfo(arena+hblkhd)
         57168 MiB available memory on the node where the printing process lives
     GPU memory used/free/total (MiB): 1646 / 14634 / 16280
------------------
     ethr =  1.52E-10,  avg # of iterations = 11.2

     negative rho (up, down):  0.000E+00 4.079E-05

     total cpu time spent up to now is      350.7 secs

     total energy              =    -903.45565578 Ry
     estimated scf accuracy    <       0.00000025 Ry

     total magnetization       =     5.93 Bohr mag/cell
     absolute magnetization    =     6.29 Bohr mag/cell
[tb_dev] Currently allocated     3.05E+00 Mbytes, locked:    0 /  10
[tb_pin] Currently allocated     0.00E+00 Mbytes, locked:    0 /   0

     iteration # 40     ecut=    90.00 Ry     beta= 0.20
     Davidson diagonalization with overlap

---- Real-time Memory Report at c_bands before calling an iterative solver
          2319 MiB given to the printing process from OS
          1415 MiB allocation reported by mallinfo(arena+hblkhd)
         57163 MiB available memory on the node where the printing process lives
     GPU memory used/free/total (MiB): 1646 / 14634 / 16280
------------------
     c_bands:  1 eigenvalues not converged
     ethr =  1.52E-10,  avg # of iterations = 11.1

     negative rho (up, down):  0.000E+00 4.059E-05

     total cpu time spent up to now is      363.1 secs

     total energy              =    -903.45568783 Ry
     estimated scf accuracy    <       0.00000008 Ry

     total magnetization       =     6.00 Bohr mag/cell
     absolute magnetization    =     6.36 Bohr mag/cell
[tb_dev] Currently allocated     3.05E+00 Mbytes, locked:    0 /  10
[tb_pin] Currently allocated     0.00E+00 Mbytes, locked:    0 /   0

     iteration # 41     ecut=    90.00 Ry     beta= 0.20
     Davidson diagonalization with overlap

---- Real-time Memory Report at c_bands before calling an iterative solver
          2325 MiB given to the printing process from OS
          1421 MiB allocation reported by mallinfo(arena+hblkhd)
         57152 MiB available memory on the node where the printing process lives
     GPU memory used/free/total (MiB): 1646 / 14634 / 16280
------------------
     ethr =  1.52E-10,  avg # of iterations =  7.4

     negative rho (up, down):  0.000E+00 4.057E-05

     total cpu time spent up to now is      372.2 secs

     total energy              =    -903.45569127 Ry
     estimated scf accuracy    <       0.00000008 Ry

     total magnetization       =     5.98 Bohr mag/cell
     absolute magnetization    =     6.34 Bohr mag/cell
[tb_dev] Currently allocated     3.05E+00 Mbytes, locked:    0 /  10
[tb_pin] Currently allocated     0.00E+00 Mbytes, locked:    0 /   0

     iteration # 42     ecut=    90.00 Ry     beta= 0.20
     Davidson diagonalization with overlap

---- Real-time Memory Report at c_bands before calling an iterative solver
          2333 MiB given to the printing process from OS
          1436 MiB allocation reported by mallinfo(arena+hblkhd)
         57145 MiB available memory on the node where the printing process lives
     GPU memory used/free/total (MiB): 1646 / 14634 / 16280
------------------
     ethr =  1.52E-10,  avg # of iterations =  2.5

     negative rho (up, down):  0.000E+00 4.184E-05

     total cpu time spent up to now is      377.2 secs

     total energy              =    -903.45555966 Ry
     estimated scf accuracy    <       0.00000008 Ry

     total magnetization       =     5.97 Bohr mag/cell
     absolute magnetization    =     6.33 Bohr mag/cell
[tb_dev] Currently allocated     3.05E+00 Mbytes, locked:    0 /  10
[tb_pin] Currently allocated     0.00E+00 Mbytes, locked:    0 /   0

     iteration # 43     ecut=    90.00 Ry     beta= 0.20
     Davidson diagonalization with overlap

---- Real-time Memory Report at c_bands before calling an iterative solver
          2340 MiB given to the printing process from OS
          1442 MiB allocation reported by mallinfo(arena+hblkhd)
         57139 MiB available memory on the node where the printing process lives
     GPU memory used/free/total (MiB): 1646 / 14634 / 16280
------------------
     c_bands:  1 eigenvalues not converged
     c_bands:  1 eigenvalues not converged
     c_bands:  1 eigenvalues not converged
     ethr =  1.52E-10,  avg # of iterations = 13.2

     negative rho (up, down):  0.000E+00 4.035E-05

     total cpu time spent up to now is      391.8 secs

     total energy              =    -903.45552453 Ry
     estimated scf accuracy    <       0.00000115 Ry

     total magnetization       =     6.09 Bohr mag/cell
     absolute magnetization    =     6.46 Bohr mag/cell
[tb_dev] Currently allocated     3.05E+00 Mbytes, locked:    0 /  10
[tb_pin] Currently allocated     0.00E+00 Mbytes, locked:    0 /   0

     iteration # 44     ecut=    90.00 Ry     beta= 0.20
     Davidson diagonalization with overlap

---- Real-time Memory Report at c_bands before calling an iterative solver
          2346 MiB given to the printing process from OS
          1448 MiB allocation reported by mallinfo(arena+hblkhd)
         57135 MiB available memory on the node where the printing process lives
     GPU memory used/free/total (MiB): 1646 / 14634 / 16280
------------------
     c_bands:  1 eigenvalues not converged
     c_bands:  2 eigenvalues not converged
     c_bands:  1 eigenvalues not converged
     ethr =  1.52E-10,  avg # of iterations = 14.0

     negative rho (up, down):  0.000E+00 4.032E-05

     total cpu time spent up to now is      407.3 secs

     total energy              =    -903.45569208 Ry
     estimated scf accuracy    <       0.00000014 Ry

     total magnetization       =     5.95 Bohr mag/cell
     absolute magnetization    =     6.31 Bohr mag/cell
[tb_dev] Currently allocated     3.05E+00 Mbytes, locked:    0 /  10
[tb_pin] Currently allocated     0.00E+00 Mbytes, locked:    0 /   0

     iteration # 45     ecut=    90.00 Ry     beta= 0.20
     Davidson diagonalization with overlap

---- Real-time Memory Report at c_bands before calling an iterative solver
          2353 MiB given to the printing process from OS
          1453 MiB allocation reported by mallinfo(arena+hblkhd)
         57125 MiB available memory on the node where the printing process lives
     GPU memory used/free/total (MiB): 1646 / 14634 / 16280
------------------
     ethr =  1.52E-10,  avg # of iterations =  2.5

     negative rho (up, down):  0.000E+00 4.037E-05

     total cpu time spent up to now is      412.3 secs

     total energy              =    -903.45569174 Ry
     estimated scf accuracy    <       0.00000014 Ry

     total magnetization       =     5.95 Bohr mag/cell
     absolute magnetization    =     6.31 Bohr mag/cell
[tb_dev] Currently allocated     3.05E+00 Mbytes, locked:    0 /  10
[tb_pin] Currently allocated     0.00E+00 Mbytes, locked:    0 /   0

     iteration # 46     ecut=    90.00 Ry     beta= 0.20
     Davidson diagonalization with overlap

---- Real-time Memory Report at c_bands before calling an iterative solver
          2359 MiB given to the printing process from OS
          1459 MiB allocation reported by mallinfo(arena+hblkhd)
         57121 MiB available memory on the node where the printing process lives
     GPU memory used/free/total (MiB): 1646 / 14634 / 16280
------------------
     ethr =  1.52E-10,  avg # of iterations =  3.6

     negative rho (up, down):  0.000E+00 4.026E-05

     total cpu time spent up to now is      418.4 secs

     total energy              =    -903.45569139 Ry
     estimated scf accuracy    <       0.00000014 Ry

     total magnetization       =     5.96 Bohr mag/cell
     absolute magnetization    =     6.32 Bohr mag/cell
[tb_dev] Currently allocated     3.05E+00 Mbytes, locked:    0 /  10
[tb_pin] Currently allocated     0.00E+00 Mbytes, locked:    0 /   0

     iteration # 47     ecut=    90.00 Ry     beta= 0.20
     Davidson diagonalization with overlap

---- Real-time Memory Report at c_bands before calling an iterative solver
          2366 MiB given to the printing process from OS
          1465 MiB allocation reported by mallinfo(arena+hblkhd)
         57115 MiB available memory on the node where the printing process lives
     GPU memory used/free/total (MiB): 1646 / 14634 / 16280
------------------
     ethr =  1.52E-10,  avg # of iterations =  5.8

     negative rho (up, down):  0.000E+00 4.020E-05

     total cpu time spent up to now is      426.1 secs

     total energy              =    -903.45569233 Ry
     estimated scf accuracy    <       0.00000017 Ry

     total magnetization       =     5.94 Bohr mag/cell
     absolute magnetization    =     6.30 Bohr mag/cell
[tb_dev] Currently allocated     3.05E+00 Mbytes, locked:    0 /  10
[tb_pin] Currently allocated     0.00E+00 Mbytes, locked:    0 /   0

     iteration # 48     ecut=    90.00 Ry     beta= 0.20
     Davidson diagonalization with overlap

---- Real-time Memory Report at c_bands before calling an iterative solver
          2371 MiB given to the printing process from OS
          1471 MiB allocation reported by mallinfo(arena+hblkhd)
         57106 MiB available memory on the node where the printing process lives
     GPU memory used/free/total (MiB): 1646 / 14634 / 16280
------------------
     ethr =  1.52E-10,  avg # of iterations =  4.7

     negative rho (up, down):  0.000E+00 3.988E-05

     total cpu time spent up to now is      432.8 secs

     total energy              =    -903.45568562 Ry
     estimated scf accuracy    <       0.00000020 Ry

     total magnetization       =     5.94 Bohr mag/cell
     absolute magnetization    =     6.30 Bohr mag/cell
[tb_dev] Currently allocated     3.05E+00 Mbytes, locked:    0 /  10
[tb_pin] Currently allocated     0.00E+00 Mbytes, locked:    0 /   0

     iteration # 49     ecut=    90.00 Ry     beta= 0.20
     Davidson diagonalization with overlap

---- Real-time Memory Report at c_bands before calling an iterative solver
          2378 MiB given to the printing process from OS
          1477 MiB allocation reported by mallinfo(arena+hblkhd)
         57104 MiB available memory on the node where the printing process lives
     GPU memory used/free/total (MiB): 1646 / 14634 / 16280
------------------
     ethr =  1.52E-10,  avg # of iterations =  8.7

     negative rho (up, down):  0.000E+00 3.988E-05

     total cpu time spent up to now is      443.1 secs

     total energy              =    -903.45569442 Ry
     estimated scf accuracy    <       0.00000048 Ry

     total magnetization       =     5.90 Bohr mag/cell
[...]
     GPU memory used/free/total (MiB): 1646 / 14634 / 16280
------------------
     ethr =  1.52E-10,  avg # of iterations =  9.4

     negative rho (up, down):  0.000E+00 4.066E-05

     total cpu time spent up to now is      585.1 secs

     total energy              =    -903.45568824 Ry
     estimated scf accuracy    <       0.00000010 Ry

     total magnetization       =     5.96 Bohr mag/cell
     absolute magnetization    =     6.32 Bohr mag/cell
[tb_dev] Currently allocated     3.05E+00 Mbytes, locked:    0 /  10
[tb_pin] Currently allocated     0.00E+00 Mbytes, locked:    0 /   0

     iteration # 66     ecut=    90.00 Ry     beta= 0.20
     Davidson diagonalization with overlap

---- Real-time Memory Report at c_bands before calling an iterative solver
          2490 MiB given to the printing process from OS
          1577 MiB allocation reported by mallinfo(arena+hblkhd)
         56993 MiB available memory on the node where the printing process lives
     GPU memory used/free/total (MiB): 1646 / 14634 / 16280
------------------
     ethr =  1.52E-10,  avg # of iterations =  7.0

     negative rho (up, down):  0.000E+00 4.120E-05

     total cpu time spent up to now is      593.6 secs

     total energy              =    -903.45566637 Ry
     estimated scf accuracy    <       0.00000008 Ry

     total magnetization       =     5.98 Bohr mag/cell
     absolute magnetization    =     6.34 Bohr mag/cell
[tb_dev] Currently allocated     3.05E+00 Mbytes, locked:    0 /  10
[tb_pin] Currently allocated     0.00E+00 Mbytes, locked:    0 /   0

     iteration # 67     ecut=    90.00 Ry     beta= 0.20
     Davidson diagonalization with overlap

---- Real-time Memory Report at c_bands before calling an iterative solver
          2495 MiB given to the printing process from OS
          1592 MiB allocation reported by mallinfo(arena+hblkhd)
         56985 MiB available memory on the node where the printing process lives
     GPU memory used/free/total (MiB): 1646 / 14634 / 16280
------------------
     ethr =  1.52E-10,  avg # of iterations = 10.6

     negative rho (up, down):  0.000E+00 4.110E-05

     total cpu time spent up to now is      605.7 secs

     total energy              =    -903.45568898 Ry
     estimated scf accuracy    <       0.00000018 Ry

     total magnetization       =     6.03 Bohr mag/cell
     absolute magnetization    =     6.40 Bohr mag/cell
[tb_dev] Currently allocated     3.05E+00 Mbytes, locked:    0 /  10
[tb_pin] Currently allocated     0.00E+00 Mbytes, locked:    0 /   0

     iteration # 68     ecut=    90.00 Ry     beta= 0.20
     Davidson diagonalization with overlap

---- Real-time Memory Report at c_bands before calling an iterative solver
          2502 MiB given to the printing process from OS
          1597 MiB allocation reported by mallinfo(arena+hblkhd)
         56971 MiB available memory on the node where the printing process lives
     GPU memory used/free/total (MiB): 1646 / 14634 / 16280
------------------
     ethr =  1.52E-10,  avg # of iterations =  5.5

     negative rho (up, down):  0.000E+00 4.086E-05

     total cpu time spent up to now is      613.2 secs

     total energy              =    -903.45568631 Ry
     estimated scf accuracy    <       0.00000013 Ry

     total magnetization       =     6.02 Bohr mag/cell
     absolute magnetization    =     6.39 Bohr mag/cell
[tb_dev] Currently allocated     3.05E+00 Mbytes, locked:    0 /  10
[tb_pin] Currently allocated     0.00E+00 Mbytes, locked:    0 /   0

     iteration # 69     ecut=    90.00 Ry     beta= 0.20
     Davidson diagonalization with overlap

---- Real-time Memory Report at c_bands before calling an iterative solver
          2508 MiB given to the printing process from OS
          1603 MiB allocation reported by mallinfo(arena+hblkhd)
         56967 MiB available memory on the node where the printing process lives
     GPU memory used/free/total (MiB): 1646 / 14634 / 16280
------------------
     ethr =  1.52E-10,  avg # of iterations =  8.0

     negative rho (up, down):  0.000E+00 4.047E-05

     total cpu time spent up to now is      622.6 secs

     total energy              =    -903.45567901 Ry
     estimated scf accuracy    <       0.00000008 Ry

     total magnetization       =     6.00 Bohr mag/cell
     absolute magnetization    =     6.36 Bohr mag/cell
[tb_dev] Currently allocated     3.05E+00 Mbytes, locked:    0 /  10
[tb_pin] Currently allocated     0.00E+00 Mbytes, locked:    0 /   0

     iteration # 70     ecut=    90.00 Ry     beta= 0.20
     Davidson diagonalization with overlap

---- Real-time Memory Report at c_bands before calling an iterative solver
          2516 MiB given to the printing process from OS
          1617 MiB allocation reported by mallinfo(arena+hblkhd)
         56962 MiB available memory on the node where the printing process lives
     GPU memory used/free/total (MiB): 1646 / 14634 / 16280
------------------
     ethr =  1.52E-10,  avg # of iterations =  8.9

     negative rho (up, down):  0.000E+00 4.047E-05

     total cpu time spent up to now is      633.1 secs

     total energy              =    -903.45569163 Ry
     estimated scf accuracy    <       0.00000011 Ry

     total magnetization       =     5.96 Bohr mag/cell
     absolute magnetization    =     6.32 Bohr mag/cell
[tb_dev] Currently allocated     3.05E+00 Mbytes, locked:    0 /  10
[tb_pin] Currently allocated     0.00E+00 Mbytes, locked:    0 /   0

     iteration # 71     ecut=    90.00 Ry     beta= 0.20
     Davidson diagonalization with overlap

---- Real-time Memory Report at c_bands before calling an iterative solver
          2522 MiB given to the printing process from OS
          1623 MiB allocation reported by mallinfo(arena+hblkhd)
         56955 MiB available memory on the node where the printing process lives
     GPU memory used/free/total (MiB): 1646 / 14634 / 16280
------------------
     ethr =  1.52E-10,  avg # of iterations =  1.0

     negative rho (up, down):  0.000E+00 4.035E-05

     total cpu time spent up to now is      637.4 secs

     total energy              =    -903.45569091 Ry
     estimated scf accuracy    <       0.00000011 Ry

     total magnetization       =     5.96 Bohr mag/cell
     absolute magnetization    =     6.32 Bohr mag/cell
[tb_dev] Currently allocated     3.05E+00 Mbytes, locked:    0 /  10
[tb_pin] Currently allocated     0.00E+00 Mbytes, locked:    0 /   0

     iteration # 72     ecut=    90.00 Ry     beta= 0.20
     Davidson diagonalization with overlap

---- Real-time Memory Report at c_bands before calling an iterative solver
          2529 MiB given to the printing process from OS
          1629 MiB allocation reported by mallinfo(arena+hblkhd)
         56950 MiB available memory on the node where the printing process lives
     GPU memory used/free/total (MiB): 1646 / 14634 / 16280
------------------
     ethr =  1.52E-10,  avg # of iterations =  6.4

     negative rho (up, down):  0.000E+00 4.045E-05

     total cpu time spent up to now is      645.4 secs

     total energy              =    -903.45569089 Ry
     estimated scf accuracy    <       0.00000014 Ry

     total magnetization       =     5.95 Bohr mag/cell
     absolute magnetization    =     6.31 Bohr mag/cell
[tb_dev] Currently allocated     3.05E+00 Mbytes, locked:    0 /  10
[tb_pin] Currently allocated     0.00E+00 Mbytes, locked:    0 /   0

     iteration # 73     ecut=    90.00 Ry     beta= 0.20
     Davidson diagonalization with overlap

---- Real-time Memory Report at c_bands before calling an iterative solver
          2535 MiB given to the printing process from OS
          1635 MiB allocation reported by mallinfo(arena+hblkhd)
         56936 MiB available memory on the node where the printing process lives
     GPU memory used/free/total (MiB): 1646 / 14634 / 16280
------------------
     ethr =  1.52E-10,  avg # of iterations =  5.7

     negative rho (up, down):  0.000E+00 4.037E-05

     total cpu time spent up to now is      652.7 secs

     total energy              =    -903.45569150 Ry
     estimated scf accuracy    <       0.00000012 Ry

     total magnetization       =     5.96 Bohr mag/cell
     absolute magnetization    =     6.32 Bohr mag/cell
[tb_dev] Currently allocated     3.05E+00 Mbytes, locked:    0 /  10
[tb_pin] Currently allocated     0.00E+00 Mbytes, locked:    0 /   0

     iteration # 74     ecut=    90.00 Ry     beta= 0.20
     Davidson diagonalization with overlap

---- Real-time Memory Report at c_bands before calling an iterative solver
          2543 MiB given to the printing process from OS
          1641 MiB allocation reported by mallinfo(arena+hblkhd)
         56931 MiB available memory on the node where the printing process lives
     GPU memory used/free/total (MiB): 1646 / 14634 / 16280
------------------
     ethr =  1.52E-10,  avg # of iterations =  4.8

     negative rho (up, down):  0.000E+00 4.010E-05

     total cpu time spent up to now is      659.6 secs

     total energy              =    -903.45568707 Ry
     estimated scf accuracy    <       0.00000013 Ry

     total magnetization       =     5.95 Bohr mag/cell
     absolute magnetization    =     6.31 Bohr mag/cell
[tb_dev] Currently allocated     3.05E+00 Mbytes, locked:    0 /  10
[tb_pin] Currently allocated     0.00E+00 Mbytes, locked:    0 /   0

     iteration # 75     ecut=    90.00 Ry     beta= 0.20
     Davidson diagonalization with overlap

---- Real-time Memory Report at c_bands before calling an iterative solver
          2548 MiB given to the printing process from OS
          1647 MiB allocation reported by mallinfo(arena+hblkhd)
         56929 MiB available memory on the node where the printing process lives
     GPU memory used/free/total (MiB): 1646 / 14634 / 16280
------------------
     ethr =  1.52E-10,  avg # of iterations =  8.2

     negative rho (up, down):  0.000E+00 4.076E-05

     total cpu time spent up to now is      669.2 secs

     total energy              =    -903.45565473 Ry
     estimated scf accuracy    <       0.00000027 Ry

     total magnetization       =     5.93 Bohr mag/cell
     absolute magnetization    =     6.29 Bohr mag/cell
[tb_dev] Currently allocated     3.05E+00 Mbytes, locked:    0 /  10
[tb_pin] Currently allocated     0.00E+00 Mbytes, locked:    0 /   0

     iteration # 76     ecut=    90.00 Ry     beta= 0.20
     Davidson diagonalization with overlap

---- Real-time Memory Report at c_bands before calling an iterative solver
          2556 MiB given to the printing process from OS
          1652 MiB allocation reported by mallinfo(arena+hblkhd)
         56922 MiB available memory on the node where the printing process lives
     GPU memory used/free/total (MiB): 1646 / 14634 / 16280
------------------
     ethr =  1.52E-10,  avg # of iterations = 11.0

     negative rho (up, down):  0.000E+00 4.080E-05

     total cpu time spent up to now is      681.4 secs

     total energy              =    -903.45569052 Ry
     estimated scf accuracy    <       0.00000008 Ry

     total magnetization       =     5.99 Bohr mag/cell
     absolute magnetization    =     6.35 Bohr mag/cell
[tb_dev] Currently allocated     3.05E+00 Mbytes, locked:    0 /  10
[tb_pin] Currently allocated     0.00E+00 Mbytes, locked:    0 /   0

     iteration # 77     ecut=    90.00 Ry     beta= 0.20
     Davidson diagonalization with overlap

---- Real-time Memory Report at c_bands before calling an iterative solver
          2562 MiB given to the printing process from OS
          1658 MiB allocation reported by mallinfo(arena+hblkhd)
         56915 MiB available memory on the node where the printing process lives
     GPU memory used/free/total (MiB): 1646 / 14634 / 16280
------------------
     ethr =  1.52E-10,  avg # of iterations =  4.1

     negative rho (up, down):  0.000E+00 4.079E-05

     total cpu time spent up to now is      687.7 secs

     total energy              =    -903.45569067 Ry
     estimated scf accuracy    <       0.00000008 Ry

     total magnetization       =     6.00 Bohr mag/cell
     absolute magnetization    =     6.36 Bohr mag/cell
[tb_dev] Currently allocated     3.05E+00 Mbytes, locked:    0 /  10
[tb_pin] Currently allocated     0.00E+00 Mbytes, locked:    0 /   0

     iteration # 78     ecut=    90.00 Ry     beta= 0.20
     Davidson diagonalization with overlap

---- Real-time Memory Report at c_bands before calling an iterative solver
          2566 MiB given to the printing process from OS
          1664 MiB allocation reported by mallinfo(arena+hblkhd)
         56910 MiB available memory on the node where the printing process lives
     GPU memory used/free/total (MiB): 1646 / 14634 / 16280
------------------
     ethr =  1.52E-10,  avg # of iterations =  1.6

     negative rho (up, down):  0.000E+00 4.091E-05

     total cpu time spent up to now is      692.2 secs

     total energy              =    -903.45568914 Ry
     estimated scf accuracy    <       0.00000008 Ry

     total magnetization       =     6.00 Bohr mag/cell
     absolute magnetization    =     6.36 Bohr mag/cell
[tb_dev] Currently allocated     3.05E+00 Mbytes, locked:    0 /  10
[tb_pin] Currently allocated     0.00E+00 Mbytes, locked:    0 /   0

     iteration # 79     ecut=    90.00 Ry     beta= 0.20
     Davidson diagonalization with overlap

---- Real-time Memory Report at c_bands before calling an iterative solver
          2574 MiB given to the printing process from OS
          1670 MiB allocation reported by mallinfo(arena+hblkhd)
         56903 MiB available memory on the node where the printing process lives
     GPU memory used/free/total (MiB): 1646 / 14634 / 16280
------------------
     ethr =  1.52E-10,  avg # of iterations =  6.4

     negative rho (up, down):  0.000E+00 4.080E-05

     total cpu time spent up to now is      700.3 secs

     total energy              =    -903.45568968 Ry
     estimated scf accuracy    <       0.00000009 Ry

     total magnetization       =     6.01 Bohr mag/cell
     absolute magnetization    =     6.37 Bohr mag/cell
[tb_dev] Currently allocated     3.05E+00 Mbytes, locked:    0 /  10
[tb_pin] Currently allocated     0.00E+00 Mbytes, locked:    0 /   0

     iteration # 80     ecut=    90.00 Ry     beta= 0.20
     Davidson diagonalization with overlap

---- Real-time Memory Report at c_bands before calling an iterative solver
          2580 MiB given to the printing process from OS
          1676 MiB allocation reported by mallinfo(arena+hblkhd)
         56898 MiB available memory on the node where the printing process lives
     GPU memory used/free/total (MiB): 1646 / 14634 / 16280
------------------
     ethr =  1.52E-10,  avg # of iterations =  6.1

     negative rho (up, down):  0.000E+00 4.225E-05

     total cpu time spent up to now is      708.0 secs

     total energy              =    -903.45551994 Ry
     estimated scf accuracy    <       0.00000008 Ry

     total magnetization       =     6.00 Bohr mag/cell
     absolute magnetization    =     6.36 Bohr mag/cell

     End of self-consistent calculation

     convergence NOT achieved after  80 iterations: stopping

     Writing config to output data dir ./out/aiida.save/
 
     init_run     :     28.84s CPU      4.47s WALL (       1 calls)
     electrons    :   1637.37s CPU    702.60s WALL (       1 calls)

     Called by init_run:
     wfcinit      :      0.26s CPU      0.26s WALL (       1 calls)
                                        0.26s GPU  (       1 calls)
     potinit      :     15.26s CPU      1.54s WALL (       1 calls)
     hinit0       :      7.93s CPU      1.88s WALL (       1 calls)

     Called by electrons:
     c_bands      :    588.78s CPU    559.57s WALL (      81 calls)
     sum_band     :     45.17s CPU     51.70s WALL (      81 calls)
     v_of_rho     :     33.14s CPU      3.02s WALL (      81 calls)
     v_h          :      4.75s CPU      0.42s WALL (      81 calls)
     v_xc         :     28.39s CPU      2.60s WALL (      81 calls)
     newd         :     58.67s CPU      5.72s WALL (      81 calls)
                                        5.72s GPU  (      81 calls)
     PAW_pot      :    891.86s CPU     80.75s WALL (      81 calls)
     mix_rho      :     21.78s CPU      2.22s WALL (      81 calls)

     Called by c_bands:
     init_us_2    :     27.73s CPU     28.28s WALL (   27216 calls)
     init_us_2:gp :     27.22s CPU     27.82s WALL (   27216 calls)
     cegterg      :    540.55s CPU    513.73s WALL (   13608 calls)

     Called by sum_band:
     sum_band:wei :      0.45s CPU      0.46s WALL (      81 calls)
                                        0.45s GPU  (      81 calls)
     sum_band:loo :     36.04s CPU     42.27s WALL (      81 calls)
                                       42.27s GPU  (      81 calls)
     sum_band:buf :      7.52s CPU      8.72s WALL (   13608 calls)
                                        8.64s GPU  (   13608 calls)
     sum_band:ini :     11.24s CPU     13.89s WALL (   13608 calls)
                                       13.82s GPU  (   13608 calls)
     sum_band:cal :      0.43s CPU      1.25s WALL (   13608 calls)
                                        1.01s GPU  (   13608 calls)
     sum_band:bec :      2.20s CPU      2.69s WALL (   13608 calls)
                                        2.60s GPU  (   13608 calls)
     addusdens    :      6.81s CPU      7.06s WALL (      81 calls)
                                        7.06s GPU  (      81 calls)
     addusd:skk   :      0.01s CPU      0.02s WALL (     243 calls)
                                        0.02s GPU  (     243 calls)

     Called by *egterg:
     cdiaghg      :    259.56s CPU    255.67s WALL (  105567 calls)
                                      254.99s GPU  (  105567 calls)
     cegterg:over :     13.84s CPU     13.14s WALL (   92295 calls)
     cegterg:upda :     28.33s CPU     26.92s WALL (   92295 calls)
     cegterg:last :      7.61s CPU      7.48s WALL (   54229 calls)
     h_psi        :    183.94s CPU    168.76s WALL (  105903 calls)
                                      168.17s GPU  (  105903 calls)
     s_psi        :      9.56s CPU     14.04s WALL (  105903 calls)
                                       13.04s GPU  (  105903 calls)
     g_psi        :      0.69s CPU      2.18s WALL (   92295 calls)
                                        1.59s GPU  (   92295 calls)

     Called by h_psi:
     h_psi:calbec :      3.81s CPU      9.82s WALL (  105903 calls)
                                        9.19s GPU  (  105903 calls)
     vloc_psi     :    149.19s CPU    137.26s WALL (  105903 calls)
                                      136.63s GPU  (  105903 calls)
     add_vuspsi   :     12.34s CPU     15.03s WALL (  105903 calls)
                                       14.41s GPU  (  105903 calls)

     General routines
     calbec       :      3.20s CPU      3.02s WALL (  119511 calls)
     fft          :      2.65s CPU      0.52s WALL (    2025 calls)
                                        0.42s GPU  (    1863 calls)
     ffts         :      0.06s CPU      0.03s WALL (     324 calls)
                                        0.01s GPU  (     162 calls)
     fftw         :      7.25s CPU     90.11s WALL (  336330 calls)
                                       88.30s GPU  (  336330 calls)
     interpolate  :      3.36s CPU      0.30s WALL (     162 calls)
     davcio       :      0.62s CPU      0.65s WALL (     354 calls)
 
     Parallel routines

     PAW routines
     PAW_pot      :    891.86s CPU     80.75s WALL (      81 calls)
     PAW_symme    :      1.12s CPU      0.18s WALL (     161 calls)
 
     PWSCF        :  27m49.33s CPU  11m48.64s WALL

 
   This run was terminated on:  18:32:58  23Oct2023            

=------------------------------------------------------------------------------=
   JOB DONE.
=------------------------------------------------------------------------------=
