
     Program PWSCF v.7.2 starts on 22Oct2023 at 22:37:57 

     This program is part of the open-source Quantum ESPRESSO suite
     for quantum simulation of materials; please cite
         "P. Giannozzi et al., J. Phys.:Condens. Matter 21 395502 (2009);
         "P. Giannozzi et al., J. Phys.:Condens. Matter 29 465901 (2017);
         "P. Giannozzi et al., J. Chem. Phys. 152 154105 (2020);
          URL http://www.quantum-espresso.org", 
     in publications or presentations arising from this work. More details at
     http://www.quantum-espresso.org/quote

     Parallel version (MPI & OpenMP), running on      12 processor cores
     Number of MPI processes:                 1
     Threads/MPI process:                    12

     MPI processes distributed on     1 nodes
     60365 MiB available memory on the printing compute node when the environment starts
 
     Reading input from aiida.in

     Current dimensions of program PWSCF are:
     Max number of different atomic species (ntypx) = 10
     Max number of k-points (npk) =  40000
     Max angular momentum in pseudopotentials (lmaxx) =  4
     Message from routine setup:
     using ibrav=0 with symmetry is DISCOURAGED, use correct ibrav instead
 
     Subspace diagonalization in iterative solution of the eigenvalue problem:
     a serial algorithm will be used

 
     G-vector sticks info
     --------------------
     sticks:   dense  smooth     PW     G-vecs:    dense   smooth      PW
     Sum        1417     707    221                52087    18393    3133
 
     Using Slab Decomposition
 


     bravais-lattice index     =            0
     lattice parameter (alat)  =       7.9442  a.u.
     unit-cell volume          =     658.1170 (a.u.)^3
     number of atoms/cell      =            1
     number of atomic types    =            1
     number of electrons       =         7.00
     number of Kohn-Sham states=            8
     kinetic-energy cutoff     =      35.0000  Ry
     charge density cutoff     =     280.0000  Ry
     scf convergence threshold =      2.0E-10
     mixing beta               =       0.4000
     number of iterations used =            8  plain     mixing
     Exchange-correlation= SLA  PW   PSX  PSC
                           (   1   4  10   8   0   0   0)

     GPU acceleration is ACTIVE.


     GPU used by master process:

        Device Number: 0
        Device name: Tesla P100-PCIE-16GB
        Compute capability : 60
        Ratio of single to double precision performance  : 2
        Memory Clock Rate (KHz): 715000
        Memory Bus Width (bits): 4096
        Peak Memory Bandwidth (GB/s): 732.16

     celldm(1)=   7.944220  celldm(2)=   0.000000  celldm(3)=   0.000000
     celldm(4)=   0.000000  celldm(5)=   0.000000  celldm(6)=   0.000000

     crystal axes: (cart. coord. in units of alat)
               a(1) = (   1.000000   0.000000   0.000000 )  
               a(2) = (   0.000000   1.005733   0.000000 )  
               a(3) = (   0.000000   0.000000   1.305169 )  

     reciprocal axes: (cart. coord. in units 2 pi/alat)
               b(1) = (  1.000000  0.000000  0.000000 )  
               b(2) = (  0.000000  0.994300  0.000000 )  
               b(3) = (  0.000000  0.000000  0.766184 )  


     PseudoPot. # 1 for I  read from file:
     ./pseudo/I.pbesol-n-kjpaw_psl.0.2.UPF
     MD5 check sum: cecf1a22a184a0b1ae701638a037a48d
     Pseudo is Projector augmented-wave + core cor, Zval =  7.0
     Generated using "atomic" code by A. Dal Corso  v.6.0 svn rev. 13079
     Shape of augmentation charge: PSQ
     Using radial grid of 1247 points,  4 beta functions with: 
                l(1) =   0
                l(2) =   0
                l(3) =   1
                l(4) =   1
     Q(r) pseudized with 0 coefficients 


     atomic species   valence    mass     pseudopotential
        I              7.00   126.90447     I ( 1.00)

     Starting magnetic structure 
     atomic species   magnetization
        I            0.100

      8 Sym. Ops., with inversion, found


                                    s                        frac. trans.

      isym =  1     identity                                     

 cryst.   s( 1) = (     1          0          0      )
                  (     0          1          0      )
                  (     0          0          1      )

 cart.    s( 1) = (  1.0000000  0.0000000  0.0000000 )
                  (  0.0000000  1.0000000  0.0000000 )
                  (  0.0000000  0.0000000  1.0000000 )


      isym =  2     180 deg rotation - cart. axis [0,0,1]        

 cryst.   s( 2) = (    -1          0          0      )
                  (     0         -1          0      )
                  (     0          0          1      )

 cart.    s( 2) = ( -1.0000000  0.0000000  0.0000000 )
                  (  0.0000000 -1.0000000  0.0000000 )
                  (  0.0000000  0.0000000  1.0000000 )


      isym =  3     180 deg rotation - cart. axis [0,1,0]        

 cryst.   s( 3) = (    -1          0          0      )
                  (     0          1          0      )
                  (     0          0         -1      )

 cart.    s( 3) = ( -1.0000000  0.0000000  0.0000000 )
                  (  0.0000000  1.0000000  0.0000000 )
                  (  0.0000000  0.0000000 -1.0000000 )


      isym =  4     180 deg rotation - cart. axis [1,0,0]        

 cryst.   s( 4) = (     1          0          0      )
                  (     0         -1          0      )
                  (     0          0         -1      )

 cart.    s( 4) = (  1.0000000  0.0000000  0.0000000 )
                  (  0.0000000 -1.0000000  0.0000000 )
                  (  0.0000000  0.0000000 -1.0000000 )


      isym =  5     inversion                                    

 cryst.   s( 5) = (    -1          0          0      )
                  (     0         -1          0      )
                  (     0          0         -1      )

 cart.    s( 5) = ( -1.0000000  0.0000000  0.0000000 )
                  (  0.0000000 -1.0000000  0.0000000 )
                  (  0.0000000  0.0000000 -1.0000000 )


      isym =  6     inv. 180 deg rotation - cart. axis [0,0,1]   

 cryst.   s( 6) = (     1          0          0      )
                  (     0          1          0      )
                  (     0          0         -1      )

 cart.    s( 6) = (  1.0000000  0.0000000  0.0000000 )
                  (  0.0000000  1.0000000  0.0000000 )
                  (  0.0000000  0.0000000 -1.0000000 )


      isym =  7     inv. 180 deg rotation - cart. axis [0,1,0]   

 cryst.   s( 7) = (     1          0          0      )
                  (     0         -1          0      )
                  (     0          0          1      )

 cart.    s( 7) = (  1.0000000  0.0000000  0.0000000 )
                  (  0.0000000 -1.0000000  0.0000000 )
                  (  0.0000000  0.0000000  1.0000000 )


      isym =  8     inv. 180 deg rotation - cart. axis [1,0,0]   

 cryst.   s( 8) = (    -1          0          0      )
                  (     0          1          0      )
                  (     0          0          1      )

 cart.    s( 8) = ( -1.0000000  0.0000000  0.0000000 )
                  (  0.0000000  1.0000000  0.0000000 )
                  (  0.0000000  0.0000000  1.0000000 )


   Cartesian axes

     site n.     atom                  positions (alat units)
         1           I   tau(   1) = (   0.0000000   0.0000000   0.0000000  )

   Crystallographic axes

     site n.     atom                  positions (cryst. coord.)
         1           I   tau(   1) = (  0.0000000  0.0000000  0.0000000  )

     number of k points=   180  Marzari-Vanderbilt smearing, width (Ry)=  0.0100
                       cart. coord. in units 2pi/alat
        k(    1) = (   0.0000000   0.0000000   0.0000000), wk =   0.0012500
        k(    2) = (   0.0000000   0.0000000   0.0957730), wk =   0.0025000
        k(    3) = (   0.0000000   0.0000000   0.1915461), wk =   0.0025000
        k(    4) = (   0.0000000   0.0000000   0.2873191), wk =   0.0025000
        k(    5) = (   0.0000000   0.0000000  -0.3830921), wk =   0.0012500
        k(    6) = (   0.0000000   0.0994300   0.0000000), wk =   0.0025000
        k(    7) = (   0.0000000   0.0994300   0.0957730), wk =   0.0050000
        k(    8) = (   0.0000000   0.0994300   0.1915461), wk =   0.0050000
        k(    9) = (   0.0000000   0.0994300   0.2873191), wk =   0.0050000
        k(   10) = (   0.0000000   0.0994300  -0.3830921), wk =   0.0025000
        k(   11) = (   0.0000000   0.1988600   0.0000000), wk =   0.0025000
        k(   12) = (   0.0000000   0.1988600   0.0957730), wk =   0.0050000
        k(   13) = (   0.0000000   0.1988600   0.1915461), wk =   0.0050000
        k(   14) = (   0.0000000   0.1988600   0.2873191), wk =   0.0050000
        k(   15) = (   0.0000000   0.1988600  -0.3830921), wk =   0.0025000
        k(   16) = (   0.0000000   0.2982900   0.0000000), wk =   0.0025000
        k(   17) = (   0.0000000   0.2982900   0.0957730), wk =   0.0050000
        k(   18) = (   0.0000000   0.2982900   0.1915461), wk =   0.0050000
        k(   19) = (   0.0000000   0.2982900   0.2873191), wk =   0.0050000
        k(   20) = (   0.0000000   0.2982900  -0.3830921), wk =   0.0025000
        k(   21) = (   0.0000000   0.3977200   0.0000000), wk =   0.0025000
        k(   22) = (   0.0000000   0.3977200   0.0957730), wk =   0.0050000
        k(   23) = (   0.0000000   0.3977200   0.1915461), wk =   0.0050000
        k(   24) = (   0.0000000   0.3977200   0.2873191), wk =   0.0050000
        k(   25) = (   0.0000000   0.3977200  -0.3830921), wk =   0.0025000
        k(   26) = (   0.0000000  -0.4971500   0.0000000), wk =   0.0012500
        k(   27) = (   0.0000000  -0.4971500   0.0957730), wk =   0.0025000
        k(   28) = (   0.0000000  -0.4971500   0.1915461), wk =   0.0025000
        k(   29) = (   0.0000000  -0.4971500   0.2873191), wk =   0.0025000
        k(   30) = (   0.0000000  -0.4971500  -0.3830921), wk =   0.0012500
        k(   31) = (   0.1000000   0.0000000   0.0000000), wk =   0.0025000
        k(   32) = (   0.1000000   0.0000000   0.0957730), wk =   0.0050000
        k(   33) = (   0.1000000   0.0000000   0.1915461), wk =   0.0050000
        k(   34) = (   0.1000000   0.0000000   0.2873191), wk =   0.0050000
        k(   35) = (   0.1000000   0.0000000  -0.3830921), wk =   0.0025000
        k(   36) = (   0.1000000   0.0994300   0.0000000), wk =   0.0050000
        k(   37) = (   0.1000000   0.0994300   0.0957730), wk =   0.0100000
        k(   38) = (   0.1000000   0.0994300   0.1915461), wk =   0.0100000
        k(   39) = (   0.1000000   0.0994300   0.2873191), wk =   0.0100000
        k(   40) = (   0.1000000   0.0994300  -0.3830921), wk =   0.0050000
        k(   41) = (   0.1000000   0.1988600   0.0000000), wk =   0.0050000
        k(   42) = (   0.1000000   0.1988600   0.0957730), wk =   0.0100000
        k(   43) = (   0.1000000   0.1988600   0.1915461), wk =   0.0100000
        k(   44) = (   0.1000000   0.1988600   0.2873191), wk =   0.0100000
        k(   45) = (   0.1000000   0.1988600  -0.3830921), wk =   0.0050000
        k(   46) = (   0.1000000   0.2982900   0.0000000), wk =   0.0050000
        k(   47) = (   0.1000000   0.2982900   0.0957730), wk =   0.0100000
        k(   48) = (   0.1000000   0.2982900   0.1915461), wk =   0.0100000
        k(   49) = (   0.1000000   0.2982900   0.2873191), wk =   0.0100000
        k(   50) = (   0.1000000   0.2982900  -0.3830921), wk =   0.0050000
        k(   51) = (   0.1000000   0.3977200   0.0000000), wk =   0.0050000
        k(   52) = (   0.1000000   0.3977200   0.0957730), wk =   0.0100000
        k(   53) = (   0.1000000   0.3977200   0.1915461), wk =   0.0100000
        k(   54) = (   0.1000000   0.3977200   0.2873191), wk =   0.0100000
        k(   55) = (   0.1000000   0.3977200  -0.3830921), wk =   0.0050000
        k(   56) = (   0.1000000  -0.4971500   0.0000000), wk =   0.0025000
        k(   57) = (   0.1000000  -0.4971500   0.0957730), wk =   0.0050000
        k(   58) = (   0.1000000  -0.4971500   0.1915461), wk =   0.0050000
        k(   59) = (   0.1000000  -0.4971500   0.2873191), wk =   0.0050000
        k(   60) = (   0.1000000  -0.4971500  -0.3830921), wk =   0.0025000
        k(   61) = (   0.2000000   0.0000000   0.0000000), wk =   0.0025000
        k(   62) = (   0.2000000   0.0000000   0.0957730), wk =   0.0050000
        k(   63) = (   0.2000000   0.0000000   0.1915461), wk =   0.0050000
        k(   64) = (   0.2000000   0.0000000   0.2873191), wk =   0.0050000
        k(   65) = (   0.2000000   0.0000000  -0.3830921), wk =   0.0025000
        k(   66) = (   0.2000000   0.0994300   0.0000000), wk =   0.0050000
        k(   67) = (   0.2000000   0.0994300   0.0957730), wk =   0.0100000
        k(   68) = (   0.2000000   0.0994300   0.1915461), wk =   0.0100000
        k(   69) = (   0.2000000   0.0994300   0.2873191), wk =   0.0100000
        k(   70) = (   0.2000000   0.0994300  -0.3830921), wk =   0.0050000
        k(   71) = (   0.2000000   0.1988600   0.0000000), wk =   0.0050000
        k(   72) = (   0.2000000   0.1988600   0.0957730), wk =   0.0100000
        k(   73) = (   0.2000000   0.1988600   0.1915461), wk =   0.0100000
        k(   74) = (   0.2000000   0.1988600   0.2873191), wk =   0.0100000
        k(   75) = (   0.2000000   0.1988600  -0.3830921), wk =   0.0050000
        k(   76) = (   0.2000000   0.2982900   0.0000000), wk =   0.0050000
        k(   77) = (   0.2000000   0.2982900   0.0957730), wk =   0.0100000
        k(   78) = (   0.2000000   0.2982900   0.1915461), wk =   0.0100000
        k(   79) = (   0.2000000   0.2982900   0.2873191), wk =   0.0100000
        k(   80) = (   0.2000000   0.2982900  -0.3830921), wk =   0.0050000
        k(   81) = (   0.2000000   0.3977200   0.0000000), wk =   0.0050000
        k(   82) = (   0.2000000   0.3977200   0.0957730), wk =   0.0100000
        k(   83) = (   0.2000000   0.3977200   0.1915461), wk =   0.0100000
        k(   84) = (   0.2000000   0.3977200   0.2873191), wk =   0.0100000
        k(   85) = (   0.2000000   0.3977200  -0.3830921), wk =   0.0050000
        k(   86) = (   0.2000000  -0.4971500   0.0000000), wk =   0.0025000
        k(   87) = (   0.2000000  -0.4971500   0.0957730), wk =   0.0050000
        k(   88) = (   0.2000000  -0.4971500   0.1915461), wk =   0.0050000
        k(   89) = (   0.2000000  -0.4971500   0.2873191), wk =   0.0050000
        k(   90) = (   0.2000000  -0.4971500  -0.3830921), wk =   0.0025000
        k(   91) = (   0.3000000   0.0000000   0.0000000), wk =   0.0025000
        k(   92) = (   0.3000000   0.0000000   0.0957730), wk =   0.0050000
        k(   93) = (   0.3000000   0.0000000   0.1915461), wk =   0.0050000
        k(   94) = (   0.3000000   0.0000000   0.2873191), wk =   0.0050000
        k(   95) = (   0.3000000   0.0000000  -0.3830921), wk =   0.0025000
        k(   96) = (   0.3000000   0.0994300   0.0000000), wk =   0.0050000
        k(   97) = (   0.3000000   0.0994300   0.0957730), wk =   0.0100000
        k(   98) = (   0.3000000   0.0994300   0.1915461), wk =   0.0100000
        k(   99) = (   0.3000000   0.0994300   0.2873191), wk =   0.0100000
        k(  100) = (   0.3000000   0.0994300  -0.3830921), wk =   0.0050000
        k(  101) = (   0.3000000   0.1988600   0.0000000), wk =   0.0050000
        k(  102) = (   0.3000000   0.1988600   0.0957730), wk =   0.0100000
        k(  103) = (   0.3000000   0.1988600   0.1915461), wk =   0.0100000
        k(  104) = (   0.3000000   0.1988600   0.2873191), wk =   0.0100000
        k(  105) = (   0.3000000   0.1988600  -0.3830921), wk =   0.0050000
        k(  106) = (   0.3000000   0.2982900   0.0000000), wk =   0.0050000
        k(  107) = (   0.3000000   0.2982900   0.0957730), wk =   0.0100000
        k(  108) = (   0.3000000   0.2982900   0.1915461), wk =   0.0100000
        k(  109) = (   0.3000000   0.2982900   0.2873191), wk =   0.0100000
        k(  110) = (   0.3000000   0.2982900  -0.3830921), wk =   0.0050000
        k(  111) = (   0.3000000   0.3977200   0.0000000), wk =   0.0050000
        k(  112) = (   0.3000000   0.3977200   0.0957730), wk =   0.0100000
        k(  113) = (   0.3000000   0.3977200   0.1915461), wk =   0.0100000
        k(  114) = (   0.3000000   0.3977200   0.2873191), wk =   0.0100000
        k(  115) = (   0.3000000   0.3977200  -0.3830921), wk =   0.0050000
        k(  116) = (   0.3000000  -0.4971500   0.0000000), wk =   0.0025000
        k(  117) = (   0.3000000  -0.4971500   0.0957730), wk =   0.0050000
        k(  118) = (   0.3000000  -0.4971500   0.1915461), wk =   0.0050000
        k(  119) = (   0.3000000  -0.4971500   0.2873191), wk =   0.0050000
        k(  120) = (   0.3000000  -0.4971500  -0.3830921), wk =   0.0025000
        k(  121) = (   0.4000000   0.0000000   0.0000000), wk =   0.0025000
        k(  122) = (   0.4000000   0.0000000   0.0957730), wk =   0.0050000
        k(  123) = (   0.4000000   0.0000000   0.1915461), wk =   0.0050000
        k(  124) = (   0.4000000   0.0000000   0.2873191), wk =   0.0050000
        k(  125) = (   0.4000000   0.0000000  -0.3830921), wk =   0.0025000
        k(  126) = (   0.4000000   0.0994300   0.0000000), wk =   0.0050000
        k(  127) = (   0.4000000   0.0994300   0.0957730), wk =   0.0100000
        k(  128) = (   0.4000000   0.0994300   0.1915461), wk =   0.0100000
        k(  129) = (   0.4000000   0.0994300   0.2873191), wk =   0.0100000
        k(  130) = (   0.4000000   0.0994300  -0.3830921), wk =   0.0050000
        k(  131) = (   0.4000000   0.1988600   0.0000000), wk =   0.0050000
        k(  132) = (   0.4000000   0.1988600   0.0957730), wk =   0.0100000
        k(  133) = (   0.4000000   0.1988600   0.1915461), wk =   0.0100000
        k(  134) = (   0.4000000   0.1988600   0.2873191), wk =   0.0100000
        k(  135) = (   0.4000000   0.1988600  -0.3830921), wk =   0.0050000
        k(  136) = (   0.4000000   0.2982900   0.0000000), wk =   0.0050000
        k(  137) = (   0.4000000   0.2982900   0.0957730), wk =   0.0100000
        k(  138) = (   0.4000000   0.2982900   0.1915461), wk =   0.0100000
        k(  139) = (   0.4000000   0.2982900   0.2873191), wk =   0.0100000
        k(  140) = (   0.4000000   0.2982900  -0.3830921), wk =   0.0050000
        k(  141) = (   0.4000000   0.3977200   0.0000000), wk =   0.0050000
        k(  142) = (   0.4000000   0.3977200   0.0957730), wk =   0.0100000
        k(  143) = (   0.4000000   0.3977200   0.1915461), wk =   0.0100000
        k(  144) = (   0.4000000   0.3977200   0.2873191), wk =   0.0100000
        k(  145) = (   0.4000000   0.3977200  -0.3830921), wk =   0.0050000
        k(  146) = (   0.4000000  -0.4971500   0.0000000), wk =   0.0025000
        k(  147) = (   0.4000000  -0.4971500   0.0957730), wk =   0.0050000
        k(  148) = (   0.4000000  -0.4971500   0.1915461), wk =   0.0050000
        k(  149) = (   0.4000000  -0.4971500   0.2873191), wk =   0.0050000
        k(  150) = (   0.4000000  -0.4971500  -0.3830921), wk =   0.0025000
        k(  151) = (  -0.5000000   0.0000000   0.0000000), wk =   0.0012500
        k(  152) = (  -0.5000000   0.0000000   0.0957730), wk =   0.0025000
        k(  153) = (  -0.5000000   0.0000000   0.1915461), wk =   0.0025000
        k(  154) = (  -0.5000000   0.0000000   0.2873191), wk =   0.0025000
        k(  155) = (  -0.5000000   0.0000000  -0.3830921), wk =   0.0012500
        k(  156) = (  -0.5000000   0.0994300   0.0000000), wk =   0.0025000
        k(  157) = (  -0.5000000   0.0994300   0.0957730), wk =   0.0050000
        k(  158) = (  -0.5000000   0.0994300   0.1915461), wk =   0.0050000
        k(  159) = (  -0.5000000   0.0994300   0.2873191), wk =   0.0050000
        k(  160) = (  -0.5000000   0.0994300  -0.3830921), wk =   0.0025000
        k(  161) = (  -0.5000000   0.1988600   0.0000000), wk =   0.0025000
        k(  162) = (  -0.5000000   0.1988600   0.0957730), wk =   0.0050000
        k(  163) = (  -0.5000000   0.1988600   0.1915461), wk =   0.0050000
        k(  164) = (  -0.5000000   0.1988600   0.2873191), wk =   0.0050000
        k(  165) = (  -0.5000000   0.1988600  -0.3830921), wk =   0.0025000
        k(  166) = (  -0.5000000   0.2982900   0.0000000), wk =   0.0025000
        k(  167) = (  -0.5000000   0.2982900   0.0957730), wk =   0.0050000
        k(  168) = (  -0.5000000   0.2982900   0.1915461), wk =   0.0050000
        k(  169) = (  -0.5000000   0.2982900   0.2873191), wk =   0.0050000
        k(  170) = (  -0.5000000   0.2982900  -0.3830921), wk =   0.0025000
        k(  171) = (  -0.5000000   0.3977200   0.0000000), wk =   0.0025000
        k(  172) = (  -0.5000000   0.3977200   0.0957730), wk =   0.0050000
        k(  173) = (  -0.5000000   0.3977200   0.1915461), wk =   0.0050000
        k(  174) = (  -0.5000000   0.3977200   0.2873191), wk =   0.0050000
        k(  175) = (  -0.5000000   0.3977200  -0.3830921), wk =   0.0025000
        k(  176) = (  -0.5000000  -0.4971500   0.0000000), wk =   0.0012500
        k(  177) = (  -0.5000000  -0.4971500   0.0957730), wk =   0.0025000
        k(  178) = (  -0.5000000  -0.4971500   0.1915461), wk =   0.0025000
        k(  179) = (  -0.5000000  -0.4971500   0.2873191), wk =   0.0025000
        k(  180) = (  -0.5000000  -0.4971500  -0.3830921), wk =   0.0012500

                       cryst. coord.
        k(    1) = (   0.0000000   0.0000000   0.0000000), wk =   0.0012500
        k(    2) = (   0.0000000   0.0000000   0.1250000), wk =   0.0025000
        k(    3) = (   0.0000000   0.0000000   0.2500000), wk =   0.0025000
        k(    4) = (   0.0000000   0.0000000   0.3750000), wk =   0.0025000
        k(    5) = (   0.0000000   0.0000000  -0.5000000), wk =   0.0012500
        k(    6) = (   0.0000000   0.1000000   0.0000000), wk =   0.0025000
        k(    7) = (   0.0000000   0.1000000   0.1250000), wk =   0.0050000
        k(    8) = (   0.0000000   0.1000000   0.2500000), wk =   0.0050000
        k(    9) = (   0.0000000   0.1000000   0.3750000), wk =   0.0050000
        k(   10) = (   0.0000000   0.1000000  -0.5000000), wk =   0.0025000
        k(   11) = (   0.0000000   0.2000000   0.0000000), wk =   0.0025000
        k(   12) = (   0.0000000   0.2000000   0.1250000), wk =   0.0050000
        k(   13) = (   0.0000000   0.2000000   0.2500000), wk =   0.0050000
        k(   14) = (   0.0000000   0.2000000   0.3750000), wk =   0.0050000
        k(   15) = (   0.0000000   0.2000000  -0.5000000), wk =   0.0025000
        k(   16) = (   0.0000000   0.3000000   0.0000000), wk =   0.0025000
        k(   17) = (   0.0000000   0.3000000   0.1250000), wk =   0.0050000
        k(   18) = (   0.0000000   0.3000000   0.2500000), wk =   0.0050000
        k(   19) = (   0.0000000   0.3000000   0.3750000), wk =   0.0050000
        k(   20) = (   0.0000000   0.3000000  -0.5000000), wk =   0.0025000
        k(   21) = (   0.0000000   0.4000000   0.0000000), wk =   0.0025000
        k(   22) = (   0.0000000   0.4000000   0.1250000), wk =   0.0050000
        k(   23) = (   0.0000000   0.4000000   0.2500000), wk =   0.0050000
        k(   24) = (   0.0000000   0.4000000   0.3750000), wk =   0.0050000
        k(   25) = (   0.0000000   0.4000000  -0.5000000), wk =   0.0025000
        k(   26) = (   0.0000000  -0.5000000   0.0000000), wk =   0.0012500
        k(   27) = (   0.0000000  -0.5000000   0.1250000), wk =   0.0025000
        k(   28) = (   0.0000000  -0.5000000   0.2500000), wk =   0.0025000
        k(   29) = (   0.0000000  -0.5000000   0.3750000), wk =   0.0025000
        k(   30) = (   0.0000000  -0.5000000  -0.5000000), wk =   0.0012500
        k(   31) = (   0.1000000   0.0000000   0.0000000), wk =   0.0025000
        k(   32) = (   0.1000000   0.0000000   0.1250000), wk =   0.0050000
        k(   33) = (   0.1000000   0.0000000   0.2500000), wk =   0.0050000
        k(   34) = (   0.1000000   0.0000000   0.3750000), wk =   0.0050000
        k(   35) = (   0.1000000   0.0000000  -0.5000000), wk =   0.0025000
        k(   36) = (   0.1000000   0.1000000   0.0000000), wk =   0.0050000
        k(   37) = (   0.1000000   0.1000000   0.1250000), wk =   0.0100000
        k(   38) = (   0.1000000   0.1000000   0.2500000), wk =   0.0100000
        k(   39) = (   0.1000000   0.1000000   0.3750000), wk =   0.0100000
        k(   40) = (   0.1000000   0.1000000  -0.5000000), wk =   0.0050000
        k(   41) = (   0.1000000   0.2000000   0.0000000), wk =   0.0050000
        k(   42) = (   0.1000000   0.2000000   0.1250000), wk =   0.0100000
        k(   43) = (   0.1000000   0.2000000   0.2500000), wk =   0.0100000
        k(   44) = (   0.1000000   0.2000000   0.3750000), wk =   0.0100000
        k(   45) = (   0.1000000   0.2000000  -0.5000000), wk =   0.0050000
        k(   46) = (   0.1000000   0.3000000   0.0000000), wk =   0.0050000
        k(   47) = (   0.1000000   0.3000000   0.1250000), wk =   0.0100000
        k(   48) = (   0.1000000   0.3000000   0.2500000), wk =   0.0100000
        k(   49) = (   0.1000000   0.3000000   0.3750000), wk =   0.0100000
        k(   50) = (   0.1000000   0.3000000  -0.5000000), wk =   0.0050000
        k(   51) = (   0.1000000   0.4000000   0.0000000), wk =   0.0050000
        k(   52) = (   0.1000000   0.4000000   0.1250000), wk =   0.0100000
        k(   53) = (   0.1000000   0.4000000   0.2500000), wk =   0.0100000
        k(   54) = (   0.1000000   0.4000000   0.3750000), wk =   0.0100000
        k(   55) = (   0.1000000   0.4000000  -0.5000000), wk =   0.0050000
        k(   56) = (   0.1000000  -0.5000000   0.0000000), wk =   0.0025000
        k(   57) = (   0.1000000  -0.5000000   0.1250000), wk =   0.0050000
        k(   58) = (   0.1000000  -0.5000000   0.2500000), wk =   0.0050000
        k(   59) = (   0.1000000  -0.5000000   0.3750000), wk =   0.0050000
        k(   60) = (   0.1000000  -0.5000000  -0.5000000), wk =   0.0025000
        k(   61) = (   0.2000000   0.0000000   0.0000000), wk =   0.0025000
        k(   62) = (   0.2000000   0.0000000   0.1250000), wk =   0.0050000
        k(   63) = (   0.2000000   0.0000000   0.2500000), wk =   0.0050000
        k(   64) = (   0.2000000   0.0000000   0.3750000), wk =   0.0050000
        k(   65) = (   0.2000000   0.0000000  -0.5000000), wk =   0.0025000
        k(   66) = (   0.2000000   0.1000000   0.0000000), wk =   0.0050000
        k(   67) = (   0.2000000   0.1000000   0.1250000), wk =   0.0100000
        k(   68) = (   0.2000000   0.1000000   0.2500000), wk =   0.0100000
        k(   69) = (   0.2000000   0.1000000   0.3750000), wk =   0.0100000
        k(   70) = (   0.2000000   0.1000000  -0.5000000), wk =   0.0050000
        k(   71) = (   0.2000000   0.2000000   0.0000000), wk =   0.0050000
        k(   72) = (   0.2000000   0.2000000   0.1250000), wk =   0.0100000
        k(   73) = (   0.2000000   0.2000000   0.2500000), wk =   0.0100000
        k(   74) = (   0.2000000   0.2000000   0.3750000), wk =   0.0100000
        k(   75) = (   0.2000000   0.2000000  -0.5000000), wk =   0.0050000
        k(   76) = (   0.2000000   0.3000000   0.0000000), wk =   0.0050000
        k(   77) = (   0.2000000   0.3000000   0.1250000), wk =   0.0100000
        k(   78) = (   0.2000000   0.3000000   0.2500000), wk =   0.0100000
        k(   79) = (   0.2000000   0.3000000   0.3750000), wk =   0.0100000
        k(   80) = (   0.2000000   0.3000000  -0.5000000), wk =   0.0050000
        k(   81) = (   0.2000000   0.4000000   0.0000000), wk =   0.0050000
        k(   82) = (   0.2000000   0.4000000   0.1250000), wk =   0.0100000
        k(   83) = (   0.2000000   0.4000000   0.2500000), wk =   0.0100000
        k(   84) = (   0.2000000   0.4000000   0.3750000), wk =   0.0100000
        k(   85) = (   0.2000000   0.4000000  -0.5000000), wk =   0.0050000
        k(   86) = (   0.2000000  -0.5000000   0.0000000), wk =   0.0025000
        k(   87) = (   0.2000000  -0.5000000   0.1250000), wk =   0.0050000
        k(   88) = (   0.2000000  -0.5000000   0.2500000), wk =   0.0050000
        k(   89) = (   0.2000000  -0.5000000   0.3750000), wk =   0.0050000
        k(   90) = (   0.2000000  -0.5000000  -0.5000000), wk =   0.0025000
        k(   91) = (   0.3000000   0.0000000   0.0000000), wk =   0.0025000
        k(   92) = (   0.3000000   0.0000000   0.1250000), wk =   0.0050000
        k(   93) = (   0.3000000   0.0000000   0.2500000), wk =   0.0050000
        k(   94) = (   0.3000000   0.0000000   0.3750000), wk =   0.0050000
        k(   95) = (   0.3000000   0.0000000  -0.5000000), wk =   0.0025000
        k(   96) = (   0.3000000   0.1000000   0.0000000), wk =   0.0050000
        k(   97) = (   0.3000000   0.1000000   0.1250000), wk =   0.0100000
        k(   98) = (   0.3000000   0.1000000   0.2500000), wk =   0.0100000
        k(   99) = (   0.3000000   0.1000000   0.3750000), wk =   0.0100000
        k(  100) = (   0.3000000   0.1000000  -0.5000000), wk =   0.0050000
        k(  101) = (   0.3000000   0.2000000   0.0000000), wk =   0.0050000
        k(  102) = (   0.3000000   0.2000000   0.1250000), wk =   0.0100000
        k(  103) = (   0.3000000   0.2000000   0.2500000), wk =   0.0100000
        k(  104) = (   0.3000000   0.2000000   0.3750000), wk =   0.0100000
        k(  105) = (   0.3000000   0.2000000  -0.5000000), wk =   0.0050000
        k(  106) = (   0.3000000   0.3000000   0.0000000), wk =   0.0050000
        k(  107) = (   0.3000000   0.3000000   0.1250000), wk =   0.0100000
        k(  108) = (   0.3000000   0.3000000   0.2500000), wk =   0.0100000
        k(  109) = (   0.3000000   0.3000000   0.3750000), wk =   0.0100000
        k(  110) = (   0.3000000   0.3000000  -0.5000000), wk =   0.0050000
        k(  111) = (   0.3000000   0.4000000   0.0000000), wk =   0.0050000
        k(  112) = (   0.3000000   0.4000000   0.1250000), wk =   0.0100000
        k(  113) = (   0.3000000   0.4000000   0.2500000), wk =   0.0100000
        k(  114) = (   0.3000000   0.4000000   0.3750000), wk =   0.0100000
        k(  115) = (   0.3000000   0.4000000  -0.5000000), wk =   0.0050000
        k(  116) = (   0.3000000  -0.5000000   0.0000000), wk =   0.0025000
        k(  117) = (   0.3000000  -0.5000000   0.1250000), wk =   0.0050000
        k(  118) = (   0.3000000  -0.5000000   0.2500000), wk =   0.0050000
        k(  119) = (   0.3000000  -0.5000000   0.3750000), wk =   0.0050000
        k(  120) = (   0.3000000  -0.5000000  -0.5000000), wk =   0.0025000
        k(  121) = (   0.4000000   0.0000000   0.0000000), wk =   0.0025000
        k(  122) = (   0.4000000   0.0000000   0.1250000), wk =   0.0050000
        k(  123) = (   0.4000000   0.0000000   0.2500000), wk =   0.0050000
        k(  124) = (   0.4000000   0.0000000   0.3750000), wk =   0.0050000
        k(  125) = (   0.4000000   0.0000000  -0.5000000), wk =   0.0025000
        k(  126) = (   0.4000000   0.1000000   0.0000000), wk =   0.0050000
        k(  127) = (   0.4000000   0.1000000   0.1250000), wk =   0.0100000
        k(  128) = (   0.4000000   0.1000000   0.2500000), wk =   0.0100000
        k(  129) = (   0.4000000   0.1000000   0.3750000), wk =   0.0100000
        k(  130) = (   0.4000000   0.1000000  -0.5000000), wk =   0.0050000
        k(  131) = (   0.4000000   0.2000000   0.0000000), wk =   0.0050000
        k(  132) = (   0.4000000   0.2000000   0.1250000), wk =   0.0100000
        k(  133) = (   0.4000000   0.2000000   0.2500000), wk =   0.0100000
        k(  134) = (   0.4000000   0.2000000   0.3750000), wk =   0.0100000
        k(  135) = (   0.4000000   0.2000000  -0.5000000), wk =   0.0050000
        k(  136) = (   0.4000000   0.3000000   0.0000000), wk =   0.0050000
        k(  137) = (   0.4000000   0.3000000   0.1250000), wk =   0.0100000
        k(  138) = (   0.4000000   0.3000000   0.2500000), wk =   0.0100000
        k(  139) = (   0.4000000   0.3000000   0.3750000), wk =   0.0100000
        k(  140) = (   0.4000000   0.3000000  -0.5000000), wk =   0.0050000
        k(  141) = (   0.4000000   0.4000000   0.0000000), wk =   0.0050000
        k(  142) = (   0.4000000   0.4000000   0.1250000), wk =   0.0100000
        k(  143) = (   0.4000000   0.4000000   0.2500000), wk =   0.0100000
        k(  144) = (   0.4000000   0.4000000   0.3750000), wk =   0.0100000
        k(  145) = (   0.4000000   0.4000000  -0.5000000), wk =   0.0050000
        k(  146) = (   0.4000000  -0.5000000   0.0000000), wk =   0.0025000
        k(  147) = (   0.4000000  -0.5000000   0.1250000), wk =   0.0050000
        k(  148) = (   0.4000000  -0.5000000   0.2500000), wk =   0.0050000
        k(  149) = (   0.4000000  -0.5000000   0.3750000), wk =   0.0050000
        k(  150) = (   0.4000000  -0.5000000  -0.5000000), wk =   0.0025000
        k(  151) = (  -0.5000000   0.0000000   0.0000000), wk =   0.0012500
        k(  152) = (  -0.5000000   0.0000000   0.1250000), wk =   0.0025000
        k(  153) = (  -0.5000000   0.0000000   0.2500000), wk =   0.0025000
        k(  154) = (  -0.5000000   0.0000000   0.3750000), wk =   0.0025000
        k(  155) = (  -0.5000000   0.0000000  -0.5000000), wk =   0.0012500
        k(  156) = (  -0.5000000   0.1000000   0.0000000), wk =   0.0025000
        k(  157) = (  -0.5000000   0.1000000   0.1250000), wk =   0.0050000
        k(  158) = (  -0.5000000   0.1000000   0.2500000), wk =   0.0050000
        k(  159) = (  -0.5000000   0.1000000   0.3750000), wk =   0.0050000
        k(  160) = (  -0.5000000   0.1000000  -0.5000000), wk =   0.0025000
        k(  161) = (  -0.5000000   0.2000000   0.0000000), wk =   0.0025000
        k(  162) = (  -0.5000000   0.2000000   0.1250000), wk =   0.0050000
        k(  163) = (  -0.5000000   0.2000000   0.2500000), wk =   0.0050000
        k(  164) = (  -0.5000000   0.2000000   0.3750000), wk =   0.0050000
        k(  165) = (  -0.5000000   0.2000000  -0.5000000), wk =   0.0025000
        k(  166) = (  -0.5000000   0.3000000   0.0000000), wk =   0.0025000
        k(  167) = (  -0.5000000   0.3000000   0.1250000), wk =   0.0050000
        k(  168) = (  -0.5000000   0.3000000   0.2500000), wk =   0.0050000
        k(  169) = (  -0.5000000   0.3000000   0.3750000), wk =   0.0050000
        k(  170) = (  -0.5000000   0.3000000  -0.5000000), wk =   0.0025000
        k(  171) = (  -0.5000000   0.4000000   0.0000000), wk =   0.0025000
        k(  172) = (  -0.5000000   0.4000000   0.1250000), wk =   0.0050000
        k(  173) = (  -0.5000000   0.4000000   0.2500000), wk =   0.0050000
        k(  174) = (  -0.5000000   0.4000000   0.3750000), wk =   0.0050000
        k(  175) = (  -0.5000000   0.4000000  -0.5000000), wk =   0.0025000
        k(  176) = (  -0.5000000  -0.5000000   0.0000000), wk =   0.0012500
        k(  177) = (  -0.5000000  -0.5000000   0.1250000), wk =   0.0025000
        k(  178) = (  -0.5000000  -0.5000000   0.2500000), wk =   0.0025000
        k(  179) = (  -0.5000000  -0.5000000   0.3750000), wk =   0.0025000
        k(  180) = (  -0.5000000  -0.5000000  -0.5000000), wk =   0.0012500

     Dense  grid:    52087 G-vectors     FFT dimensions: (  45,  45,  60)

     Smooth grid:    18393 G-vectors     FFT dimensions: (  30,  32,  40)

     Dynamical RAM for                 wfc:       0.28 MB

     Dynamical RAM for     wfc (w. buffer):     101.40 MB

     Dynamical RAM for           str. fact:       0.79 MB

     Dynamical RAM for           local pot:       0.00 MB

     Dynamical RAM for          nlocal pot:       0.28 MB

     Dynamical RAM for                qrad:       0.38 MB

     Dynamical RAM for          rho,v,vnew:      10.33 MB

     Dynamical RAM for               rhoin:       3.44 MB

     Dynamical RAM for            rho*nmix:      25.43 MB

     Dynamical RAM for           G-vectors:       3.12 MB

     Dynamical RAM for          h,s,v(r/c):       0.01 MB

     Dynamical RAM for          <psi|beta>:       0.00 MB

     Dynamical RAM for                 psi:       0.56 MB

     Dynamical RAM for                hpsi:       0.56 MB

     Dynamical RAM for                spsi:       0.56 MB

     Dynamical RAM for      wfcinit/wfcrot:       0.56 MB

     Dynamical RAM for           addusdens:      35.77 MB

     Dynamical RAM for          addusforce:      35.77 MB

     Dynamical RAM for         addusstress:      40.93 MB

     Estimated static dynamical RAM per process >     126.90 MB

     Estimated max dynamical RAM per process >     193.27 MB
     Generating pointlists ...
     new r_m :   0.4125 (alat units)  3.2770 (a.u.) for type    1

     Initial potential from superposition of free atoms

     starting charge       6.9999, renormalised to       7.0000
     Starting wfcs are    4 randomized atomic wfcs +    4 random wfcs
     Checking if some PAW data can be deallocated... 

     total cpu time spent up to now is        3.2 secs

     per-process dynamical memory:   790.1 Mb

     Self-consistent Calculation
[tb_dev] Currently allocated     8.61E-01 Mbytes, locked:    0 /   9
[tb_pin] Currently allocated     0.00E+00 Mbytes, locked:    0 /   0

     iteration #  1     ecut=    35.00 Ry     beta= 0.40
     Davidson diagonalization with overlap

---- Real-time Memory Report at c_bands before calling an iterative solver
           968 MiB given to the printing process from OS
           771 MiB allocation reported by mallinfo(arena+hblkhd)
         58216 MiB available memory on the node where the printing process lives
     GPU memory used/free/total (MiB): 816 / 15464 / 16280
------------------
     ethr =  1.00E-02,  avg # of iterations =  7.2

     Threshold (ethr) on eigenvalues was too large:
     Diagonalizing with lowered threshold

     Davidson diagonalization with overlap

---- Real-time Memory Report at c_bands before calling an iterative solver
           994 MiB given to the printing process from OS
           786 MiB allocation reported by mallinfo(arena+hblkhd)
         58222 MiB available memory on the node where the printing process lives
     GPU memory used/free/total (MiB): 856 / 15424 / 16280
------------------
     ethr =  1.06E-04,  avg # of iterations =  3.9

     total cpu time spent up to now is       10.8 secs

     total energy              =    -372.84124215 Ry
     estimated scf accuracy    <       0.00745408 Ry

     total magnetization       =     0.48 Bohr mag/cell
     absolute magnetization    =     0.49 Bohr mag/cell
[tb_dev] Currently allocated     3.39E-01 Mbytes, locked:    0 /   6
[tb_pin] Currently allocated     0.00E+00 Mbytes, locked:    0 /   0

     iteration #  2     ecut=    35.00 Ry     beta= 0.40
     Davidson diagonalization with overlap

---- Real-time Memory Report at c_bands before calling an iterative solver
          1047 MiB given to the printing process from OS
           808 MiB allocation reported by mallinfo(arena+hblkhd)
         58200 MiB available memory on the node where the printing process lives
     GPU memory used/free/total (MiB): 856 / 15424 / 16280
------------------
     ethr =  1.06E-04,  avg # of iterations =  1.0

     total cpu time spent up to now is       12.5 secs

     total energy              =    -372.84180442 Ry
     estimated scf accuracy    <       0.00036833 Ry

     total magnetization       =     0.57 Bohr mag/cell
     absolute magnetization    =     0.58 Bohr mag/cell
[tb_dev] Currently allocated     3.39E-01 Mbytes, locked:    0 /   6
[tb_pin] Currently allocated     0.00E+00 Mbytes, locked:    0 /   0

     iteration #  3     ecut=    35.00 Ry     beta= 0.40
     Davidson diagonalization with overlap

---- Real-time Memory Report at c_bands before calling an iterative solver
          1074 MiB given to the printing process from OS
           809 MiB allocation reported by mallinfo(arena+hblkhd)
         58195 MiB available memory on the node where the printing process lives
     GPU memory used/free/total (MiB): 858 / 15422 / 16280
------------------
     ethr =  5.26E-06,  avg # of iterations =  4.1

     total cpu time spent up to now is       15.7 secs

     total energy              =    -372.84189908 Ry
     estimated scf accuracy    <       0.00003471 Ry

     total magnetization       =     0.61 Bohr mag/cell
     absolute magnetization    =     0.61 Bohr mag/cell
[tb_dev] Currently allocated     3.39E-01 Mbytes, locked:    0 /   6
[tb_pin] Currently allocated     0.00E+00 Mbytes, locked:    0 /   0

     iteration #  4     ecut=    35.00 Ry     beta= 0.40
     Davidson diagonalization with overlap

---- Real-time Memory Report at c_bands before calling an iterative solver
          1106 MiB given to the printing process from OS
           811 MiB allocation reported by mallinfo(arena+hblkhd)
         58191 MiB available memory on the node where the printing process lives
     GPU memory used/free/total (MiB): 858 / 15422 / 16280
------------------
     c_bands:  1 eigenvalues not converged
     ethr =  4.96E-07,  avg # of iterations =  2.1

     total cpu time spent up to now is       18.0 secs

     total energy              =    -372.84191327 Ry
     estimated scf accuracy    <       0.00000316 Ry

     total magnetization       =     0.62 Bohr mag/cell
     absolute magnetization    =     0.63 Bohr mag/cell
[tb_dev] Currently allocated     3.39E-01 Mbytes, locked:    0 /   6
[tb_pin] Currently allocated     0.00E+00 Mbytes, locked:    0 /   0

     iteration #  5     ecut=    35.00 Ry     beta= 0.40
     Davidson diagonalization with overlap

---- Real-time Memory Report at c_bands before calling an iterative solver
          1136 MiB given to the printing process from OS
           813 MiB allocation reported by mallinfo(arena+hblkhd)
         58188 MiB available memory on the node where the printing process lives
     GPU memory used/free/total (MiB): 862 / 15418 / 16280
------------------
     ethr =  4.51E-08,  avg # of iterations =  1.9

     total cpu time spent up to now is       20.1 secs

     total energy              =    -372.84191964 Ry
     estimated scf accuracy    <       0.00000227 Ry

     total magnetization       =     0.64 Bohr mag/cell
     absolute magnetization    =     0.64 Bohr mag/cell
[tb_dev] Currently allocated     3.39E-01 Mbytes, locked:    0 /   6
[tb_pin] Currently allocated     0.00E+00 Mbytes, locked:    0 /   0

     iteration #  6     ecut=    35.00 Ry     beta= 0.40
     Davidson diagonalization with overlap

---- Real-time Memory Report at c_bands before calling an iterative solver
          1162 MiB given to the printing process from OS
           815 MiB allocation reported by mallinfo(arena+hblkhd)
         58184 MiB available memory on the node where the printing process lives
     GPU memory used/free/total (MiB): 862 / 15418 / 16280
------------------
     ethr =  3.24E-08,  avg # of iterations =  1.0

     total cpu time spent up to now is       21.9 secs

     total energy              =    -372.84178181 Ry
     estimated scf accuracy    <       0.00000222 Ry

     total magnetization       =     0.64 Bohr mag/cell
     absolute magnetization    =     0.65 Bohr mag/cell
[tb_dev] Currently allocated     3.39E-01 Mbytes, locked:    0 /   6
[tb_pin] Currently allocated     0.00E+00 Mbytes, locked:    0 /   0

     iteration #  7     ecut=    35.00 Ry     beta= 0.40
     Davidson diagonalization with overlap

---- Real-time Memory Report at c_bands before calling an iterative solver
          1196 MiB given to the printing process from OS
           821 MiB allocation reported by mallinfo(arena+hblkhd)
         58178 MiB available memory on the node where the printing process lives
     GPU memory used/free/total (MiB): 862 / 15418 / 16280
------------------
     ethr =  3.17E-08,  avg # of iterations =  2.2

     total cpu time spent up to now is       24.3 secs

     total energy              =    -372.84177397 Ry
     estimated scf accuracy    <       0.00000097 Ry

     total magnetization       =     0.55 Bohr mag/cell
     absolute magnetization    =     0.56 Bohr mag/cell
[tb_dev] Currently allocated     3.39E-01 Mbytes, locked:    0 /   6
[tb_pin] Currently allocated     0.00E+00 Mbytes, locked:    0 /   0

     iteration #  8     ecut=    35.00 Ry     beta= 0.40
     Davidson diagonalization with overlap

---- Real-time Memory Report at c_bands before calling an iterative solver
          1224 MiB given to the printing process from OS
           823 MiB allocation reported by mallinfo(arena+hblkhd)
         58167 MiB available memory on the node where the printing process lives
     GPU memory used/free/total (MiB): 862 / 15418 / 16280
------------------
     ethr =  1.38E-08,  avg # of iterations =  2.8

     total cpu time spent up to now is       26.9 secs

     total energy              =    -372.84185811 Ry
     estimated scf accuracy    <       0.00000070 Ry

     total magnetization       =     0.47 Bohr mag/cell
     absolute magnetization    =     0.47 Bohr mag/cell
[tb_dev] Currently allocated     3.39E-01 Mbytes, locked:    0 /   6
[tb_pin] Currently allocated     0.00E+00 Mbytes, locked:    0 /   0

     iteration #  9     ecut=    35.00 Ry     beta= 0.40
     Davidson diagonalization with overlap

---- Real-time Memory Report at c_bands before calling an iterative solver
          1255 MiB given to the printing process from OS
           827 MiB allocation reported by mallinfo(arena+hblkhd)
         58164 MiB available memory on the node where the printing process lives
     GPU memory used/free/total (MiB): 862 / 15418 / 16280
------------------
     ethr =  1.00E-08,  avg # of iterations =  1.0

     total cpu time spent up to now is       28.6 secs

     total energy              =    -372.84185838 Ry
     estimated scf accuracy    <       0.00000070 Ry

     total magnetization       =     0.47 Bohr mag/cell
     absolute magnetization    =     0.47 Bohr mag/cell
[tb_dev] Currently allocated     3.39E-01 Mbytes, locked:    0 /   6
[tb_pin] Currently allocated     0.00E+00 Mbytes, locked:    0 /   0

     iteration # 10     ecut=    35.00 Ry     beta= 0.40
     Davidson diagonalization with overlap

---- Real-time Memory Report at c_bands before calling an iterative solver
          1285 MiB given to the printing process from OS
           831 MiB allocation reported by mallinfo(arena+hblkhd)
         58165 MiB available memory on the node where the printing process lives
     GPU memory used/free/total (MiB): 862 / 15418 / 16280
------------------
     ethr =  1.00E-08,  avg # of iterations =  2.0

     negative rho (up, down):  2.540E-05 0.000E+00

     total cpu time spent up to now is       30.8 secs

     total energy              =    -372.84018467 Ry
     estimated scf accuracy    <       0.00000060 Ry

     total magnetization       =     0.49 Bohr mag/cell
     absolute magnetization    =     0.50 Bohr mag/cell
[tb_dev] Currently allocated     3.39E-01 Mbytes, locked:    0 /   6
[tb_pin] Currently allocated     0.00E+00 Mbytes, locked:    0 /   0

     iteration # 11     ecut=    35.00 Ry     beta= 0.40
     Davidson diagonalization with overlap

---- Real-time Memory Report at c_bands before calling an iterative solver
          1310 MiB given to the printing process from OS
           835 MiB allocation reported by mallinfo(arena+hblkhd)
         58163 MiB available memory on the node where the printing process lives
     GPU memory used/free/total (MiB): 862 / 15418 / 16280
------------------
     c_bands:  1 eigenvalues not converged
     ethr =  8.62E-09,  avg # of iterations =  4.1

     negative rho (up, down):  3.002E-05 0.000E+00

     total cpu time spent up to now is       34.2 secs

     total energy              =    -372.84216654 Ry
     estimated scf accuracy    <       0.00014369 Ry

     total magnetization       =     0.88 Bohr mag/cell
     absolute magnetization    =     0.89 Bohr mag/cell
[tb_dev] Currently allocated     3.39E-01 Mbytes, locked:    0 /   6
[tb_pin] Currently allocated     0.00E+00 Mbytes, locked:    0 /   0

     iteration # 12     ecut=    35.00 Ry     beta= 0.40
     Davidson diagonalization with overlap

---- Real-time Memory Report at c_bands before calling an iterative solver
          1338 MiB given to the printing process from OS
           836 MiB allocation reported by mallinfo(arena+hblkhd)
         58163 MiB available memory on the node where the printing process lives
     GPU memory used/free/total (MiB): 872 / 15408 / 16280
------------------
     ethr =  8.62E-09,  avg # of iterations =  2.0

     negative rho (up, down):  6.130E-05 0.000E+00

     total cpu time spent up to now is       36.5 secs

     total energy              =    -372.84217740 Ry
     estimated scf accuracy    <       0.00013044 Ry

     total magnetization       =     0.89 Bohr mag/cell
     absolute magnetization    =     0.90 Bohr mag/cell
[tb_dev] Currently allocated     3.39E-01 Mbytes, locked:    0 /   6
[tb_pin] Currently allocated     0.00E+00 Mbytes, locked:    0 /   0

     iteration # 13     ecut=    35.00 Ry     beta= 0.40
     Davidson diagonalization with overlap

---- Real-time Memory Report at c_bands before calling an iterative solver
          1366 MiB given to the printing process from OS
           839 MiB allocation reported by mallinfo(arena+hblkhd)
         58162 MiB available memory on the node where the printing process lives
     GPU memory used/free/total (MiB): 872 / 15408 / 16280
------------------
     ethr =  8.62E-09,  avg # of iterations =  2.6

     negative rho (up, down):  1.297E-06 0.000E+00

     total cpu time spent up to now is       39.0 secs

     total energy              =    -372.84116259 Ry
     estimated scf accuracy    <       0.00016975 Ry

     total magnetization       =     0.94 Bohr mag/cell
     absolute magnetization    =     0.95 Bohr mag/cell
[tb_dev] Currently allocated     3.39E-01 Mbytes, locked:    0 /   6
[tb_pin] Currently allocated     0.00E+00 Mbytes, locked:    0 /   0

     iteration # 14     ecut=    35.00 Ry     beta= 0.40
     Davidson diagonalization with overlap

---- Real-time Memory Report at c_bands before calling an iterative solver
          1392 MiB given to the printing process from OS
           841 MiB allocation reported by mallinfo(arena+hblkhd)
         58160 MiB available memory on the node where the printing process lives
     GPU memory used/free/total (MiB): 872 / 15408 / 16280
------------------
     ethr =  8.62E-09,  avg # of iterations =  3.8

     negative rho (up, down):  3.955E-05 0.000E+00

     total cpu time spent up to now is       42.2 secs

     total energy              =    -372.84158084 Ry
     estimated scf accuracy    <       0.00001064 Ry

     total magnetization       =     0.72 Bohr mag/cell
     absolute magnetization    =     0.73 Bohr mag/cell
[tb_dev] Currently allocated     3.39E-01 Mbytes, locked:    0 /   6
[tb_pin] Currently allocated     0.00E+00 Mbytes, locked:    0 /   0

     iteration # 15     ecut=    35.00 Ry     beta= 0.40
     Davidson diagonalization with overlap

---- Real-time Memory Report at c_bands before calling an iterative solver
          1421 MiB given to the printing process from OS
           843 MiB allocation reported by mallinfo(arena+hblkhd)
         58157 MiB available memory on the node where the printing process lives
     GPU memory used/free/total (MiB): 872 / 15408 / 16280
------------------
     ethr =  8.62E-09,  avg # of iterations =  3.7

     negative rho (up, down):  1.165E-05 0.000E+00

     total cpu time spent up to now is       45.4 secs

     total energy              =    -372.84162894 Ry
     estimated scf accuracy    <       0.00015071 Ry

     total magnetization       =     0.91 Bohr mag/cell
     absolute magnetization    =     0.92 Bohr mag/cell
[tb_dev] Currently allocated     3.39E-01 Mbytes, locked:    0 /   6
[tb_pin] Currently allocated     0.00E+00 Mbytes, locked:    0 /   0

     iteration # 16     ecut=    35.00 Ry     beta= 0.40
     Davidson diagonalization with overlap

---- Real-time Memory Report at c_bands before calling an iterative solver
          1447 MiB given to the printing process from OS
           845 MiB allocation reported by mallinfo(arena+hblkhd)
         58157 MiB available memory on the node where the printing process lives
     GPU memory used/free/total (MiB): 872 / 15408 / 16280
------------------
     ethr =  8.62E-09,  avg # of iterations =  3.6

     negative rho (up, down):  1.628E-06 0.000E+00

     total cpu time spent up to now is       48.4 secs

     total energy              =    -372.84135403 Ry
     estimated scf accuracy    <       0.00004573 Ry

     total magnetization       =     0.77 Bohr mag/cell
     absolute magnetization    =     0.78 Bohr mag/cell
[tb_dev] Currently allocated     3.39E-01 Mbytes, locked:    0 /   6
[tb_pin] Currently allocated     0.00E+00 Mbytes, locked:    0 /   0

     iteration # 17     ecut=    35.00 Ry     beta= 0.40
     Davidson diagonalization with overlap

---- Real-time Memory Report at c_bands before calling an iterative solver
          1475 MiB given to the printing process from OS
           847 MiB allocation reported by mallinfo(arena+hblkhd)
         58155 MiB available memory on the node where the printing process lives
     GPU memory used/free/total (MiB): 872 / 15408 / 16280
------------------
     ethr =  8.62E-09,  avg # of iterations =  3.4

     negative rho (up, down):  5.486E-07 0.000E+00

     total cpu time spent up to now is       51.4 secs

     total energy              =    -372.84047421 Ry
     estimated scf accuracy    <       0.00000864 Ry

     total magnetization       =     0.55 Bohr mag/cell
     absolute magnetization    =     0.56 Bohr mag/cell
[tb_dev] Currently allocated     3.39E-01 Mbytes, locked:    0 /   6
[tb_pin] Currently allocated     0.00E+00 Mbytes, locked:    0 /   0

     iteration # 18     ecut=    35.00 Ry     beta= 0.40
     Davidson diagonalization with overlap

---- Real-time Memory Report at c_bands before calling an iterative solver
          1504 MiB given to the printing process from OS
           849 MiB allocation reported by mallinfo(arena+hblkhd)
         58153 MiB available memory on the node where the printing process lives
     GPU memory used/free/total (MiB): 872 / 15408 / 16280
------------------
     ethr =  8.62E-09,  avg # of iterations =  4.0

     negative rho (up, down):  1.431E-06 0.000E+00

     total cpu time spent up to now is       54.7 secs

     total energy              =    -372.84160169 Ry
     estimated scf accuracy    <       0.00020057 Ry

     total magnetization       =     0.24 Bohr mag/cell
     absolute magnetization    =     0.24 Bohr mag/cell
[tb_dev] Currently allocated     3.39E-01 Mbytes, locked:    0 /   6
[tb_pin] Currently allocated     0.00E+00 Mbytes, locked:    0 /   0

     iteration # 19     ecut=    35.00 Ry     beta= 0.40
     Davidson diagonalization with overlap

---- Real-time Memory Report at c_bands before calling an iterative solver
          1530 MiB given to the printing process from OS
           851 MiB allocation reported by mallinfo(arena+hblkhd)
         58150 MiB available memory on the node where the printing process lives
     GPU memory used/free/total (MiB): 872 / 15408 / 16280
------------------
     ethr =  8.62E-09,  avg # of iterations =  2.5

     negative rho (up, down):  3.348E-06 0.000E+00

     total cpu time spent up to now is       57.2 secs

     total energy              =    -372.84036064 Ry
     estimated scf accuracy    <       0.00025220 Ry

     total magnetization       =     0.18 Bohr mag/cell
     absolute magnetization    =     0.18 Bohr mag/cell
[tb_dev] Currently allocated     3.39E-01 Mbytes, locked:    0 /   6
[tb_pin] Currently allocated     0.00E+00 Mbytes, locked:    0 /   0

     iteration # 20     ecut=    35.00 Ry     beta= 0.40
     Davidson diagonalization with overlap

---- Real-time Memory Report at c_bands before calling an iterative solver
          1546 MiB given to the printing process from OS
           853 MiB allocation reported by mallinfo(arena+hblkhd)
         58147 MiB available memory on the node where the printing process lives
     GPU memory used/free/total (MiB): 872 / 15408 / 16280
------------------
     ethr =  8.62E-09,  avg # of iterations =  4.0

     negative rho (up, down):  4.108E-06 0.000E+00

     total cpu time spent up to now is       60.4 secs

     total energy              =    -372.84187565 Ry
     estimated scf accuracy    <       0.00001387 Ry

     total magnetization       =     0.54 Bohr mag/cell
     absolute magnetization    =     0.54 Bohr mag/cell
[tb_dev] Currently allocated     3.39E-01 Mbytes, locked:    0 /   6
[tb_pin] Currently allocated     0.00E+00 Mbytes, locked:    0 /   0

     iteration # 21     ecut=    35.00 Ry     beta= 0.40
     Davidson diagonalization with overlap

---- Real-time Memory Report at c_bands before calling an iterative solver
          1562 MiB given to the printing process from OS
           855 MiB allocation reported by mallinfo(arena+hblkhd)
         58146 MiB available memory on the node where the printing process lives
     GPU memory used/free/total (MiB): 872 / 15408 / 16280
------------------
     ethr =  8.62E-09,  avg # of iterations =  2.3

     negative rho (up, down):  5.092E-06 0.000E+00

     total cpu time spent up to now is       62.8 secs

     total energy              =    -372.84190087 Ry
     estimated scf accuracy    <       0.00001079 Ry

     total magnetization       =     0.58 Bohr mag/cell
     absolute magnetization    =     0.59 Bohr mag/cell
[tb_dev] Currently allocated     3.39E-01 Mbytes, locked:    0 /   6
[tb_pin] Currently allocated     0.00E+00 Mbytes, locked:    0 /   0

     iteration # 22     ecut=    35.00 Ry     beta= 0.40
     Davidson diagonalization with overlap

---- Real-time Memory Report at c_bands before calling an iterative solver
          1574 MiB given to the printing process from OS
           857 MiB allocation reported by mallinfo(arena+hblkhd)
         58143 MiB available memory on the node where the printing process lives
     GPU memory used/free/total (MiB): 872 / 15408 / 16280
------------------
     ethr =  8.62E-09,  avg # of iterations =  2.0

     negative rho (up, down):  5.153E-06 0.000E+00

     total cpu time spent up to now is       65.0 secs

     total energy              =    -372.84190545 Ry
     estimated scf accuracy    <       0.00001852 Ry

     total magnetization       =     0.59 Bohr mag/cell
     absolute magnetization    =     0.59 Bohr mag/cell
[tb_dev] Currently allocated     3.39E-01 Mbytes, locked:    0 /   6
[tb_pin] Currently allocated     0.00E+00 Mbytes, locked:    0 /   0

     iteration # 23     ecut=    35.00 Ry     beta= 0.40
     Davidson diagonalization with overlap

---- Real-time Memory Report at c_bands before calling an iterative solver
          1589 MiB given to the printing process from OS
           859 MiB allocation reported by mallinfo(arena+hblkhd)
         58141 MiB available memory on the node where the printing process lives
     GPU memory used/free/total (MiB): 872 / 15408 / 16280
------------------
     ethr =  8.62E-09,  avg # of iterations =  1.8

     negative rho (up, down):  4.589E-06 0.000E+00

     total cpu time spent up to now is       67.1 secs

     total energy              =    -372.84190609 Ry
     estimated scf accuracy    <       0.00001695 Ry

     total magnetization       =     0.60 Bohr mag/cell
     absolute magnetization    =     0.61 Bohr mag/cell
[tb_dev] Currently allocated     3.39E-01 Mbytes, locked:    0 /   6
[tb_pin] Currently allocated     0.00E+00 Mbytes, locked:    0 /   0

     iteration # 24     ecut=    35.00 Ry     beta= 0.40
     Davidson diagonalization with overlap

---- Real-time Memory Report at c_bands before calling an iterative solver
          1603 MiB given to the printing process from OS
           862 MiB allocation reported by mallinfo(arena+hblkhd)
         58138 MiB available memory on the node where the printing process lives
     GPU memory used/free/total (MiB): 872 / 15408 / 16280
------------------
     ethr =  8.62E-09,  avg # of iterations =  2.1

     negative rho (up, down):  3.388E-06 0.000E+00

     total cpu time spent up to now is       69.4 secs

     total energy              =    -372.84190103 Ry
     estimated scf accuracy    <       0.00001096 Ry

     total magnetization       =     0.65 Bohr mag/cell
     absolute magnetization    =     0.66 Bohr mag/cell
[tb_dev] Currently allocated     3.39E-01 Mbytes, locked:    0 /   6
[tb_pin] Currently allocated     0.00E+00 Mbytes, locked:    0 /   0

     iteration # 25     ecut=    35.00 Ry     beta= 0.40
     Davidson diagonalization with overlap

---- Real-time Memory Report at c_bands before calling an iterative solver
          1616 MiB given to the printing process from OS
           864 MiB allocation reported by mallinfo(arena+hblkhd)
         58138 MiB available memory on the node where the printing process lives
     GPU memory used/free/total (MiB): 872 / 15408 / 16280
------------------
     ethr =  8.62E-09,  avg # of iterations =  2.0

     negative rho (up, down):  3.390E-06 0.000E+00

     total cpu time spent up to now is       71.7 secs

     total energy              =    -372.84191059 Ry
     estimated scf accuracy    <       0.00000529 Ry

     total magnetization       =     0.62 Bohr mag/cell
     absolute magnetization    =     0.63 Bohr mag/cell
[tb_dev] Currently allocated     3.39E-01 Mbytes, locked:    0 /   6
[tb_pin] Currently allocated     0.00E+00 Mbytes, locked:    0 /   0

     iteration # 26     ecut=    35.00 Ry     beta= 0.40
     Davidson diagonalization with overlap

---- Real-time Memory Report at c_bands before calling an iterative solver
          1628 MiB given to the printing process from OS
           866 MiB allocation reported by mallinfo(arena+hblkhd)
         58136 MiB available memory on the node where the printing process lives
     GPU memory used/free/total (MiB): 872 / 15408 / 16280
------------------
     ethr =  8.62E-09,  avg # of iterations =  1.0

     negative rho (up, down):  2.514E-06 0.000E+00

     total cpu time spent up to now is       73.4 secs

     total energy              =    -372.84189796 Ry
     estimated scf accuracy    <       0.00000502 Ry

     total magnetization       =     0.62 Bohr mag/cell
     absolute magnetization    =     0.62 Bohr mag/cell
[tb_dev] Currently allocated     3.39E-01 Mbytes, locked:    0 /   6
[tb_pin] Currently allocated     0.00E+00 Mbytes, locked:    0 /   0

     iteration # 27     ecut=    35.00 Ry     beta= 0.40
     Davidson diagonalization with overlap

---- Real-time Memory Report at c_bands before calling an iterative solver
          1639 MiB given to the printing process from OS
           868 MiB allocation reported by mallinfo(arena+hblkhd)
         58132 MiB available memory on the node where the printing process lives
     GPU memory used/free/total (MiB): 872 / 15408 / 16280
------------------
     ethr =  8.62E-09,  avg # of iterations =  2.0

     negative rho (up, down):  1.402E-06 0.000E+00

     total cpu time spent up to now is       75.6 secs

     total energy              =    -372.84182781 Ry
     estimated scf accuracy    <       0.00000291 Ry

     total magnetization       =     0.60 Bohr mag/cell
     absolute magnetization    =     0.60 Bohr mag/cell
[tb_dev] Currently allocated     3.39E-01 Mbytes, locked:    0 /   6
[tb_pin] Currently allocated     0.00E+00 Mbytes, locked:    0 /   0

     iteration # 28     ecut=    35.00 Ry     beta= 0.40
     Davidson diagonalization with overlap

---- Real-time Memory Report at c_bands before calling an iterative solver
          1648 MiB given to the printing process from OS
           870 MiB allocation reported by mallinfo(arena+hblkhd)
         58130 MiB available memory on the node where the printing process lives
     GPU memory used/free/total (MiB): 872 / 15408 / 16280
------------------
     ethr =  8.62E-09,  avg # of iterations =  2.5

     total cpu time spent up to now is       78.1 secs

     total energy              =    -372.84175782 Ry
     estimated scf accuracy    <       0.00000197 Ry

     total magnetization       =     0.53 Bohr mag/cell
     absolute magnetization    =     0.54 Bohr mag/cell
[tb_dev] Currently allocated     3.39E-01 Mbytes, locked:    0 /   6
[tb_pin] Currently allocated     0.00E+00 Mbytes, locked:    0 /   0

     iteration # 29     ecut=    35.00 Ry     beta= 0.40
     Davidson diagonalization with overlap

---- Real-time Memory Report at c_bands before calling an iterative solver
          1658 MiB given to the printing process from OS
           872 MiB allocation reported by mallinfo(arena+hblkhd)
         58128 MiB available memory on the node where the printing process lives
     GPU memory used/free/total (MiB): 872 / 15408 / 16280
------------------
     ethr =  8.62E-09,  avg # of iterations =  2.9

     total cpu time spent up to now is       80.6 secs

     total energy              =    -372.84185630 Ry
     estimated scf accuracy    <       0.00000383 Ry

     total magnetization       =     0.45 Bohr mag/cell
     absolute magnetization    =     0.45 Bohr mag/cell
[tb_dev] Currently allocated     3.39E-01 Mbytes, locked:    0 /   6
[tb_pin] Currently allocated     0.00E+00 Mbytes, locked:    0 /   0

     iteration # 30     ecut=    35.00 Ry     beta= 0.40
     Davidson diagonalization with overlap

---- Real-time Memory Report at c_bands before calling an iterative solver
          1670 MiB given to the printing process from OS
           874 MiB allocation reported by mallinfo(arena+hblkhd)
         58126 MiB available memory on the node where the printing process lives
     GPU memory used/free/total (MiB): 872 / 15408 / 16280
------------------
     ethr =  8.62E-09,  avg # of iterations =  1.6

     negative rho (up, down):  2.318E-06 0.000E+00

     total cpu time spent up to now is       82.6 secs

     total energy              =    -372.84169202 Ry
     estimated scf accuracy    <       0.00000337 Ry

     total magnetization       =     0.46 Bohr mag/cell
     absolute magnetization    =     0.46 Bohr mag/cell
[tb_dev] Currently allocated     3.39E-01 Mbytes, locked:    0 /   6
[tb_pin] Currently allocated     0.00E+00 Mbytes, locked:    0 /   0

     iteration # 31     ecut=    35.00 Ry     beta= 0.40
     Davidson diagonalization with overlap

---- Real-time Memory Report at c_bands before calling an iterative solver
          1679 MiB given to the printing process from OS
           876 MiB allocation reported by mallinfo(arena+hblkhd)
         58124 MiB available memory on the node where the printing process lives
     GPU memory used/free/total (MiB): 872 / 15408 / 16280
------------------
     ethr =  8.62E-09,  avg # of iterations =  3.0

     negative rho (up, down):  3.899E-06 0.000E+00

     total cpu time spent up to now is       85.4 secs

     total energy              =    -372.84184637 Ry
     estimated scf accuracy    <       0.00000377 Ry

     total magnetization       =     0.59 Bohr mag/cell
     absolute magnetization    =     0.59 Bohr mag/cell
[tb_dev] Currently allocated     3.39E-01 Mbytes, locked:    0 /   6
[tb_pin] Currently allocated     0.00E+00 Mbytes, locked:    0 /   0

     iteration # 32     ecut=    35.00 Ry     beta= 0.40
     Davidson diagonalization with overlap

---- Real-time Memory Report at c_bands before calling an iterative solver
          1689 MiB given to the printing process from OS
           878 MiB allocation reported by mallinfo(arena+hblkhd)
         58121 MiB available memory on the node where the printing process lives
     GPU memory used/free/total (MiB): 872 / 15408 / 16280
------------------
     ethr =  8.62E-09,  avg # of iterations =  2.8

     negative rho (up, down):  2.742E-06 0.000E+00

     total cpu time spent up to now is       87.9 secs

     total energy              =    -372.84186364 Ry
     estimated scf accuracy    <       0.00001383 Ry

     total magnetization       =     0.68 Bohr mag/cell
     absolute magnetization    =     0.69 Bohr mag/cell
[tb_dev] Currently allocated     3.39E-01 Mbytes, locked:    0 /   6
[tb_pin] Currently allocated     0.00E+00 Mbytes, locked:    0 /   0

     iteration # 33     ecut=    35.00 Ry     beta= 0.40
     Davidson diagonalization with overlap

---- Real-time Memory Report at c_bands before calling an iterative solver
          1699 MiB given to the printing process from OS
           880 MiB allocation reported by mallinfo(arena+hblkhd)
         58121 MiB available memory on the node where the printing process lives
     GPU memory used/free/total (MiB): 872 / 15408 / 16280
------------------
     ethr =  8.62E-09,  avg # of iterations =  2.5

     negative rho (up, down):  1.860E-06 0.000E+00

     total cpu time spent up to now is       90.4 secs

     total energy              =    -372.84183755 Ry
     estimated scf accuracy    <       0.00000639 Ry

     total magnetization       =     0.62 Bohr mag/cell
     absolute magnetization    =     0.62 Bohr mag/cell
[tb_dev] Currently allocated     3.39E-01 Mbytes, locked:    0 /   6
[tb_pin] Currently allocated     0.00E+00 Mbytes, locked:    0 /   0

     iteration # 34     ecut=    35.00 Ry     beta= 0.40
     Davidson diagonalization with overlap

---- Real-time Memory Report at c_bands before calling an iterative solver
          1710 MiB given to the printing process from OS
           882 MiB allocation reported by mallinfo(arena+hblkhd)
         58120 MiB available memory on the node where the printing process lives
     GPU memory used/free/total (MiB): 872 / 15408 / 16280
------------------
     ethr =  8.62E-09,  avg # of iterations =  2.7

     negative rho (up, down):  1.217E-06 0.000E+00

     total cpu time spent up to now is       92.9 secs

     total energy              =    -372.84186470 Ry
     estimated scf accuracy    <       0.00000397 Ry

     total magnetization       =     0.55 Bohr mag/cell
     absolute magnetization    =     0.56 Bohr mag/cell
[tb_dev] Currently allocated     3.39E-01 Mbytes, locked:    0 /   6
[tb_pin] Currently allocated     0.00E+00 Mbytes, locked:    0 /   0

     iteration # 35     ecut=    35.00 Ry     beta= 0.40
     Davidson diagonalization with overlap

---- Real-time Memory Report at c_bands before calling an iterative solver
          1718 MiB given to the printing process from OS
           885 MiB allocation reported by mallinfo(arena+hblkhd)
         58115 MiB available memory on the node where the printing process lives
     GPU memory used/free/total (MiB): 872 / 15408 / 16280
------------------
     ethr =  8.62E-09,  avg # of iterations =  2.0

     total cpu time spent up to now is       95.2 secs

     total energy              =    -372.84180787 Ry
     estimated scf accuracy    <       0.00000328 Ry

     total magnetization       =     0.52 Bohr mag/cell
     absolute magnetization    =     0.53 Bohr mag/cell
[tb_dev] Currently allocated     3.39E-01 Mbytes, locked:    0 /   6
[tb_pin] Currently allocated     0.00E+00 Mbytes, locked:    0 /   0

     iteration # 36     ecut=    35.00 Ry     beta= 0.40
     Davidson diagonalization with overlap

---- Real-time Memory Report at c_bands before calling an iterative solver
          1730 MiB given to the printing process from OS
           887 MiB allocation reported by mallinfo(arena+hblkhd)
         58112 MiB available memory on the node where the printing process lives
     GPU memory used/free/total (MiB): 872 / 15408 / 16280
------------------
     ethr =  8.62E-09,  avg # of iterations =  2.7

     total cpu time spent up to now is       97.7 secs

     total energy              =    -372.84183218 Ry
     estimated scf accuracy    <       0.00000366 Ry

     total magnetization       =     0.46 Bohr mag/cell
     absolute magnetization    =     0.46 Bohr mag/cell
[tb_dev] Currently allocated     3.39E-01 Mbytes, locked:    0 /   6
[tb_pin] Currently allocated     0.00E+00 Mbytes, locked:    0 /   0

     iteration # 37     ecut=    35.00 Ry     beta= 0.40
     Davidson diagonalization with overlap

---- Real-time Memory Report at c_bands before calling an iterative solver
          1740 MiB given to the printing process from OS
           889 MiB allocation reported by mallinfo(arena+hblkhd)
         58111 MiB available memory on the node where the printing process lives
     GPU memory used/free/total (MiB): 872 / 15408 / 16280
------------------
     ethr =  8.62E-09,  avg # of iterations =  2.0

     total cpu time spent up to now is      100.0 secs

     total energy              =    -372.84184737 Ry
     estimated scf accuracy    <       0.00000521 Ry

     total magnetization       =     0.43 Bohr mag/cell
     absolute magnetization    =     0.43 Bohr mag/cell
[tb_dev] Currently allocated     3.39E-01 Mbytes, locked:    0 /   6
[tb_pin] Currently allocated     0.00E+00 Mbytes, locked:    0 /   0

     iteration # 38     ecut=    35.00 Ry     beta= 0.40
     Davidson diagonalization with overlap

---- Real-time Memory Report at c_bands before calling an iterative solver
          1749 MiB given to the printing process from OS
           891 MiB allocation reported by mallinfo(arena+hblkhd)
         58109 MiB available memory on the node where the printing process lives
     GPU memory used/free/total (MiB): 872 / 15408 / 16280
------------------
     ethr =  8.62E-09,  avg # of iterations =  2.0

     total cpu time spent up to now is      102.2 secs

     total energy              =    -372.84185742 Ry
     estimated scf accuracy    <       0.00000373 Ry

     total magnetization       =     0.45 Bohr mag/cell
     absolute magnetization    =     0.46 Bohr mag/cell
[tb_dev] Currently allocated     3.39E-01 Mbytes, locked:    0 /   6
[tb_pin] Currently allocated     0.00E+00 Mbytes, locked:    0 /   0

     iteration # 39     ecut=    35.00 Ry     beta= 0.40
     Davidson diagonalization with overlap

---- Real-time Memory Report at c_bands before calling an iterative solver
          1759 MiB given to the printing process from OS
           893 MiB allocation reported by mallinfo(arena+hblkhd)
         58107 MiB available memory on the node where the printing process lives
     GPU memory used/free/total (MiB): 872 / 15408 / 16280
------------------
     ethr =  8.62E-09,  avg # of iterations =  1.0

     total cpu time spent up to now is      103.8 secs

     total energy              =    -372.84175508 Ry
     estimated scf accuracy    <       0.00000371 Ry

     total magnetization       =     0.45 Bohr mag/cell
     absolute magnetization    =     0.46 Bohr mag/cell
[tb_dev] Currently allocated     3.39E-01 Mbytes, locked:    0 /   6
[tb_pin] Currently allocated     0.00E+00 Mbytes, locked:    0 /   0

     iteration # 40     ecut=    35.00 Ry     beta= 0.40
     Davidson diagonalization with overlap

---- Real-time Memory Report at c_bands before calling an iterative solver
          1770 MiB given to the printing process from OS
           895 MiB allocation reported by mallinfo(arena+hblkhd)
         58105 MiB available memory on the node where the printing process lives
     GPU memory used/free/total (MiB): 872 / 15408 / 16280
------------------
     ethr =  8.62E-09,  avg # of iterations =  2.8

     total cpu time spent up to now is      106.4 secs

     total energy              =    -372.84182921 Ry
     estimated scf accuracy    <       0.00000881 Ry

     total magnetization       =     0.38 Bohr mag/cell
     absolute magnetization    =     0.39 Bohr mag/cell
[tb_dev] Currently allocated     3.39E-01 Mbytes, locked:    0 /   6
[tb_pin] Currently allocated     0.00E+00 Mbytes, locked:    0 /   0

     iteration # 41     ecut=    35.00 Ry     beta= 0.40
     Davidson diagonalization with overlap

---- Real-time Memory Report at c_bands before calling an iterative solver
          1779 MiB given to the printing process from OS
           897 MiB allocation reported by mallinfo(arena+hblkhd)
         58102 MiB available memory on the node where the printing process lives
     GPU memory used/free/total (MiB): 872 / 15408 / 16280
------------------
     ethr =  8.62E-09,  avg # of iterations =  2.0

     total cpu time spent up to now is      108.7 secs

     total energy              =    -372.84049314 Ry
     estimated scf accuracy    <       0.00000745 Ry

     total magnetization       =     0.40 Bohr mag/cell
     absolute magnetization    =     0.41 Bohr mag/cell
[tb_dev] Currently allocated     3.39E-01 Mbytes, locked:    0 /   6
[tb_pin] Currently allocated     0.00E+00 Mbytes, locked:    0 /   0

     iteration # 42     ecut=    35.00 Ry     beta= 0.40
     Davidson diagonalization with overlap

---- Real-time Memory Report at c_bands before calling an iterative solver
          1789 MiB given to the printing process from OS
           899 MiB allocation reported by mallinfo(arena+hblkhd)
         58101 MiB available memory on the node where the printing process lives
     GPU memory used/free/total (MiB): 872 / 15408 / 16280
------------------
     ethr =  8.62E-09,  avg # of iterations =  3.9

     negative rho (up, down):  3.204E-07 0.000E+00

     total cpu time spent up to now is      111.9 secs

     total energy              =    -372.83956941 Ry
     estimated scf accuracy    <       0.00001822 Ry

     total magnetization       =     0.11 Bohr mag/cell
     absolute magnetization    =     0.11 Bohr mag/cell
[tb_dev] Currently allocated     3.39E-01 Mbytes, locked:    0 /   6
[tb_pin] Currently allocated     0.00E+00 Mbytes, locked:    0 /   0

     iteration # 43     ecut=    35.00 Ry     beta= 0.40
     Davidson diagonalization with overlap

---- Real-time Memory Report at c_bands before calling an iterative solver
          1794 MiB given to the printing process from OS
           901 MiB allocation reported by mallinfo(arena+hblkhd)
         58100 MiB available memory on the node where the printing process lives
     GPU memory used/free/total (MiB): 872 / 15408 / 16280
------------------
     ethr =  8.62E-09,  avg # of iterations =  4.4

     negative rho (up, down):  2.929E-06 0.000E+00

     total cpu time spent up to now is      115.3 secs

     total energy              =    -372.84176866 Ry
     estimated scf accuracy    <       0.00000087 Ry

     total magnetization       =     0.52 Bohr mag/cell
     absolute magnetization    =     0.52 Bohr mag/cell
[tb_dev] Currently allocated     3.39E-01 Mbytes, locked:    0 /   6
[tb_pin] Currently allocated     0.00E+00 Mbytes, locked:    0 /   0

     iteration # 44     ecut=    35.00 Ry     beta= 0.40
     Davidson diagonalization with overlap

---- Real-time Memory Report at c_bands before calling an iterative solver
          1798 MiB given to the printing process from OS
           903 MiB allocation reported by mallinfo(arena+hblkhd)
         58098 MiB available memory on the node where the printing process lives
     GPU memory used/free/total (MiB): 872 / 15408 / 16280
------------------
     ethr =  8.62E-09,  avg # of iterations =  3.0

     total cpu time spent up to now is      118.0 secs

     total energy              =    -372.84023126 Ry
     estimated scf accuracy    <       0.00000499 Ry

     total magnetization       =     0.63 Bohr mag/cell
     absolute magnetization    =     0.63 Bohr mag/cell
[tb_dev] Currently allocated     3.39E-01 Mbytes, locked:    0 /   6
[tb_pin] Currently allocated     0.00E+00 Mbytes, locked:    0 /   0

     iteration # 45     ecut=    35.00 Ry     beta= 0.40
     Davidson diagonalization with overlap

---- Real-time Memory Report at c_bands before calling an iterative solver
          1802 MiB given to the printing process from OS
[...]
          1863 MiB given to the printing process from OS
           949 MiB allocation reported by mallinfo(arena+hblkhd)
         58051 MiB available memory on the node where the printing process lives
     GPU memory used/free/total (MiB): 872 / 15408 / 16280
------------------
     ethr =  8.62E-09,  avg # of iterations =  3.0

     negative rho (up, down):  4.403E-06 0.000E+00

     total cpu time spent up to now is      173.4 secs

     total energy              =    -372.84190508 Ry
     estimated scf accuracy    <       0.00000653 Ry

     total magnetization       =     0.63 Bohr mag/cell
     absolute magnetization    =     0.64 Bohr mag/cell
[tb_dev] Currently allocated     3.39E-01 Mbytes, locked:    0 /   6
[tb_pin] Currently allocated     0.00E+00 Mbytes, locked:    0 /   0

     iteration # 66     ecut=    35.00 Ry     beta= 0.40
     Davidson diagonalization with overlap

---- Real-time Memory Report at c_bands before calling an iterative solver
          1866 MiB given to the printing process from OS
           951 MiB allocation reported by mallinfo(arena+hblkhd)
         58049 MiB available memory on the node where the printing process lives
     GPU memory used/free/total (MiB): 872 / 15408 / 16280
------------------
     ethr =  8.62E-09,  avg # of iterations =  2.6

     negative rho (up, down):  1.982E-06 0.000E+00

     total cpu time spent up to now is      175.9 secs

     total energy              =    -372.84168870 Ry
     estimated scf accuracy    <       0.00001458 Ry

     total magnetization       =     0.70 Bohr mag/cell
     absolute magnetization    =     0.71 Bohr mag/cell
[tb_dev] Currently allocated     3.39E-01 Mbytes, locked:    0 /   6
[tb_pin] Currently allocated     0.00E+00 Mbytes, locked:    0 /   0

     iteration # 67     ecut=    35.00 Ry     beta= 0.40
     Davidson diagonalization with overlap

---- Real-time Memory Report at c_bands before calling an iterative solver
          1869 MiB given to the printing process from OS
           953 MiB allocation reported by mallinfo(arena+hblkhd)
         58047 MiB available memory on the node where the printing process lives
     GPU memory used/free/total (MiB): 872 / 15408 / 16280
------------------
     ethr =  8.62E-09,  avg # of iterations =  3.0

     total cpu time spent up to now is      178.6 secs

     total energy              =    -372.84154020 Ry
     estimated scf accuracy    <       0.00000342 Ry

     total magnetization       =     0.57 Bohr mag/cell
     absolute magnetization    =     0.58 Bohr mag/cell
[tb_dev] Currently allocated     3.39E-01 Mbytes, locked:    0 /   6
[tb_pin] Currently allocated     0.00E+00 Mbytes, locked:    0 /   0

     iteration # 68     ecut=    35.00 Ry     beta= 0.40
     Davidson diagonalization with overlap

---- Real-time Memory Report at c_bands before calling an iterative solver
          1870 MiB given to the printing process from OS
           955 MiB allocation reported by mallinfo(arena+hblkhd)
         58046 MiB available memory on the node where the printing process lives
     GPU memory used/free/total (MiB): 872 / 15408 / 16280
------------------
     ethr =  8.62E-09,  avg # of iterations =  3.2

     negative rho (up, down):  3.548E-06 0.000E+00

     total cpu time spent up to now is      181.4 secs

     total energy              =    -372.84135034 Ry
     estimated scf accuracy    <       0.00000567 Ry

     total magnetization       =     0.42 Bohr mag/cell
     absolute magnetization    =     0.42 Bohr mag/cell
[tb_dev] Currently allocated     3.39E-01 Mbytes, locked:    0 /   6
[tb_pin] Currently allocated     0.00E+00 Mbytes, locked:    0 /   0

     iteration # 69     ecut=    35.00 Ry     beta= 0.40
     Davidson diagonalization with overlap

---- Real-time Memory Report at c_bands before calling an iterative solver
          1872 MiB given to the printing process from OS
           958 MiB allocation reported by mallinfo(arena+hblkhd)
         58043 MiB available memory on the node where the printing process lives
     GPU memory used/free/total (MiB): 872 / 15408 / 16280
------------------
     ethr =  8.62E-09,  avg # of iterations =  3.6

     total cpu time spent up to now is      184.5 secs

     total energy              =    -372.84051504 Ry
     estimated scf accuracy    <       0.00000823 Ry

     total magnetization       =     0.64 Bohr mag/cell
     absolute magnetization    =     0.65 Bohr mag/cell
[tb_dev] Currently allocated     3.39E-01 Mbytes, locked:    0 /   6
[tb_pin] Currently allocated     0.00E+00 Mbytes, locked:    0 /   0

     iteration # 70     ecut=    35.00 Ry     beta= 0.40
     Davidson diagonalization with overlap

---- Real-time Memory Report at c_bands before calling an iterative solver
          1875 MiB given to the printing process from OS
           960 MiB allocation reported by mallinfo(arena+hblkhd)
         58042 MiB available memory on the node where the printing process lives
     GPU memory used/free/total (MiB): 872 / 15408 / 16280
------------------
     ethr =  8.62E-09,  avg # of iterations =  3.9

     total cpu time spent up to now is      187.7 secs

     total energy              =    -372.84177779 Ry
     estimated scf accuracy    <       0.00001579 Ry

     total magnetization       =     0.33 Bohr mag/cell
     absolute magnetization    =     0.34 Bohr mag/cell
[tb_dev] Currently allocated     3.39E-01 Mbytes, locked:    0 /   6
[tb_pin] Currently allocated     0.00E+00 Mbytes, locked:    0 /   0

     iteration # 71     ecut=    35.00 Ry     beta= 0.40
     Davidson diagonalization with overlap

---- Real-time Memory Report at c_bands before calling an iterative solver
          1877 MiB given to the printing process from OS
           963 MiB allocation reported by mallinfo(arena+hblkhd)
         58039 MiB available memory on the node where the printing process lives
     GPU memory used/free/total (MiB): 872 / 15408 / 16280
------------------
     ethr =  8.62E-09,  avg # of iterations =  2.8

     total cpu time spent up to now is      190.2 secs

     total energy              =    -372.84180845 Ry
     estimated scf accuracy    <       0.00000638 Ry

     total magnetization       =     0.40 Bohr mag/cell
     absolute magnetization    =     0.40 Bohr mag/cell
[tb_dev] Currently allocated     3.39E-01 Mbytes, locked:    0 /   6
[tb_pin] Currently allocated     0.00E+00 Mbytes, locked:    0 /   0

     iteration # 72     ecut=    35.00 Ry     beta= 0.40
     Davidson diagonalization with overlap

---- Real-time Memory Report at c_bands before calling an iterative solver
          1878 MiB given to the printing process from OS
           965 MiB allocation reported by mallinfo(arena+hblkhd)
         58032 MiB available memory on the node where the printing process lives
     GPU memory used/free/total (MiB): 872 / 15408 / 16280
------------------
     ethr =  8.62E-09,  avg # of iterations =  2.0

     total cpu time spent up to now is      192.4 secs

     total energy              =    -372.84178619 Ry
     estimated scf accuracy    <       0.00000835 Ry

     total magnetization       =     0.38 Bohr mag/cell
     absolute magnetization    =     0.38 Bohr mag/cell
[tb_dev] Currently allocated     3.39E-01 Mbytes, locked:    0 /   6
[tb_pin] Currently allocated     0.00E+00 Mbytes, locked:    0 /   0

     iteration # 73     ecut=    35.00 Ry     beta= 0.40
     Davidson diagonalization with overlap

---- Real-time Memory Report at c_bands before calling an iterative solver
          1881 MiB given to the printing process from OS
           968 MiB allocation reported by mallinfo(arena+hblkhd)
         58032 MiB available memory on the node where the printing process lives
     GPU memory used/free/total (MiB): 872 / 15408 / 16280
------------------
     ethr =  8.62E-09,  avg # of iterations =  2.0

     negative rho (up, down):  3.854E-07 0.000E+00

     total cpu time spent up to now is      194.7 secs

     total energy              =    -372.84157789 Ry
     estimated scf accuracy    <       0.00001139 Ry

     total magnetization       =     0.35 Bohr mag/cell
     absolute magnetization    =     0.36 Bohr mag/cell
[tb_dev] Currently allocated     3.39E-01 Mbytes, locked:    0 /   6
[tb_pin] Currently allocated     0.00E+00 Mbytes, locked:    0 /   0

     iteration # 74     ecut=    35.00 Ry     beta= 0.40
     Davidson diagonalization with overlap

---- Real-time Memory Report at c_bands before calling an iterative solver
          1883 MiB given to the printing process from OS
           970 MiB allocation reported by mallinfo(arena+hblkhd)
         58029 MiB available memory on the node where the printing process lives
     GPU memory used/free/total (MiB): 872 / 15408 / 16280
------------------
     ethr =  8.62E-09,  avg # of iterations =  3.2

     negative rho (up, down):  4.223E-07 0.000E+00

     total cpu time spent up to now is      197.5 secs

     total energy              =    -372.84187372 Ry
     estimated scf accuracy    <       0.00000130 Ry

     total magnetization       =     0.51 Bohr mag/cell
     absolute magnetization    =     0.51 Bohr mag/cell
[tb_dev] Currently allocated     3.39E-01 Mbytes, locked:    0 /   6
[tb_pin] Currently allocated     0.00E+00 Mbytes, locked:    0 /   0

     iteration # 75     ecut=    35.00 Ry     beta= 0.40
     Davidson diagonalization with overlap

---- Real-time Memory Report at c_bands before calling an iterative solver
          1886 MiB given to the printing process from OS
           972 MiB allocation reported by mallinfo(arena+hblkhd)
         58029 MiB available memory on the node where the printing process lives
     GPU memory used/free/total (MiB): 872 / 15408 / 16280
------------------
     ethr =  8.62E-09,  avg # of iterations =  1.0

     total cpu time spent up to now is      199.3 secs

     total energy              =    -372.84184433 Ry
     estimated scf accuracy    <       0.00000125 Ry

     total magnetization       =     0.51 Bohr mag/cell
     absolute magnetization    =     0.52 Bohr mag/cell
[tb_dev] Currently allocated     3.39E-01 Mbytes, locked:    0 /   6
[tb_pin] Currently allocated     0.00E+00 Mbytes, locked:    0 /   0

     iteration # 76     ecut=    35.00 Ry     beta= 0.40
     Davidson diagonalization with overlap

---- Real-time Memory Report at c_bands before calling an iterative solver
          1886 MiB given to the printing process from OS
           974 MiB allocation reported by mallinfo(arena+hblkhd)
         58027 MiB available memory on the node where the printing process lives
     GPU memory used/free/total (MiB): 872 / 15408 / 16280
------------------
     ethr =  8.62E-09,  avg # of iterations =  2.1

     negative rho (up, down):  3.635E-06 0.000E+00

     total cpu time spent up to now is      201.5 secs

     total energy              =    -372.84148683 Ry
     estimated scf accuracy    <       0.00000222 Ry

     total magnetization       =     0.47 Bohr mag/cell
     absolute magnetization    =     0.48 Bohr mag/cell
[tb_dev] Currently allocated     3.39E-01 Mbytes, locked:    0 /   6
[tb_pin] Currently allocated     0.00E+00 Mbytes, locked:    0 /   0

     iteration # 77     ecut=    35.00 Ry     beta= 0.40
     Davidson diagonalization with overlap

---- Real-time Memory Report at c_bands before calling an iterative solver
          1889 MiB given to the printing process from OS
           979 MiB allocation reported by mallinfo(arena+hblkhd)
         58025 MiB available memory on the node where the printing process lives
     GPU memory used/free/total (MiB): 872 / 15408 / 16280
------------------
     ethr =  8.62E-09,  avg # of iterations =  3.4

     negative rho (up, down):  5.771E-06 0.000E+00

     total cpu time spent up to now is      204.4 secs

     total energy              =    -372.84190373 Ry
     estimated scf accuracy    <       0.00000852 Ry

     total magnetization       =     0.67 Bohr mag/cell
     absolute magnetization    =     0.67 Bohr mag/cell
[tb_dev] Currently allocated     3.39E-01 Mbytes, locked:    0 /   6
[tb_pin] Currently allocated     0.00E+00 Mbytes, locked:    0 /   0

     iteration # 78     ecut=    35.00 Ry     beta= 0.40
     Davidson diagonalization with overlap

---- Real-time Memory Report at c_bands before calling an iterative solver
          1893 MiB given to the printing process from OS
           981 MiB allocation reported by mallinfo(arena+hblkhd)
         58023 MiB available memory on the node where the printing process lives
     GPU memory used/free/total (MiB): 872 / 15408 / 16280
------------------
     ethr =  8.62E-09,  avg # of iterations =  2.8

     total cpu time spent up to now is      207.0 secs

     total energy              =    -372.84046138 Ry
     estimated scf accuracy    <       0.00003209 Ry

     total magnetization       =     0.76 Bohr mag/cell
     absolute magnetization    =     0.77 Bohr mag/cell
[tb_dev] Currently allocated     3.39E-01 Mbytes, locked:    0 /   6
[tb_pin] Currently allocated     0.00E+00 Mbytes, locked:    0 /   0

     iteration # 79     ecut=    35.00 Ry     beta= 0.40
     Davidson diagonalization with overlap

---- Real-time Memory Report at c_bands before calling an iterative solver
          1895 MiB given to the printing process from OS
           983 MiB allocation reported by mallinfo(arena+hblkhd)
         58020 MiB available memory on the node where the printing process lives
     GPU memory used/free/total (MiB): 872 / 15408 / 16280
------------------
     ethr =  8.62E-09,  avg # of iterations =  3.8

     total cpu time spent up to now is      210.1 secs

     total energy              =    -372.84182948 Ry
     estimated scf accuracy    <       0.00000433 Ry

     total magnetization       =     0.43 Bohr mag/cell
     absolute magnetization    =     0.44 Bohr mag/cell
[tb_dev] Currently allocated     3.39E-01 Mbytes, locked:    0 /   6
[tb_pin] Currently allocated     0.00E+00 Mbytes, locked:    0 /   0

     iteration # 80     ecut=    35.00 Ry     beta= 0.40
     Davidson diagonalization with overlap

---- Real-time Memory Report at c_bands before calling an iterative solver
          1897 MiB given to the printing process from OS
           985 MiB allocation reported by mallinfo(arena+hblkhd)
         58019 MiB available memory on the node where the printing process lives
     GPU memory used/free/total (MiB): 872 / 15408 / 16280
------------------
     ethr =  8.62E-09,  avg # of iterations =  2.0

     total cpu time spent up to now is      212.3 secs

     total energy              =    -372.84169116 Ry
     estimated scf accuracy    <       0.00000614 Ry

     total magnetization       =     0.41 Bohr mag/cell
     absolute magnetization    =     0.41 Bohr mag/cell

     End of self-consistent calculation

     convergence NOT achieved after  80 iterations: stopping

     Writing config to output data dir ./out/aiida.save/
 
     init_run     :     13.65s CPU      2.87s WALL (       1 calls)
     electrons    :    426.84s CPU    209.17s WALL (       1 calls)

     Called by init_run:
     wfcinit      :      0.89s CPU      1.48s WALL (       1 calls)
                                        1.48s GPU  (       1 calls)
     wfcinit:atom :      0.04s CPU      0.05s WALL (     360 calls)
                                        0.04s GPU  (     360 calls)
     wfcinit:wfcr :      0.66s CPU      1.21s WALL (     360 calls)
                                        1.20s GPU  (     360 calls)
     potinit      :      4.88s CPU      0.49s WALL (       1 calls)
     hinit0       :      4.28s CPU      0.38s WALL (       1 calls)

     Called by electrons:
     c_bands      :    312.18s CPU    179.00s WALL (      81 calls)
     sum_band     :     17.76s CPU     21.12s WALL (      81 calls)
     v_of_rho     :      8.15s CPU      0.72s WALL (      81 calls)
     v_h          :      1.25s CPU      0.11s WALL (      81 calls)
     v_xc         :      6.89s CPU      0.61s WALL (      81 calls)
     newd         :      5.59s CPU      0.71s WALL (      81 calls)
                                        0.71s GPU  (      81 calls)
     PAW_pot      :     76.33s CPU      7.13s WALL (      81 calls)
     mix_rho      :     10.10s CPU      0.99s WALL (      81 calls)

     Called by c_bands:
     init_us_2    :     16.42s CPU     11.25s WALL (   58680 calls)
     init_us_2:gp :     15.01s CPU     10.31s WALL (   58680 calls)
     cegterg      :    278.11s CPU    161.18s WALL (   29160 calls)

     Called by sum_band:
     sum_band:wei :      0.26s CPU      0.27s WALL (      81 calls)
                                        0.27s GPU  (      81 calls)
     sum_band:loo :     16.77s CPU     20.05s WALL (      81 calls)
                                       20.05s GPU  (      81 calls)
     sum_band:buf :      2.74s CPU      3.55s WALL (   29160 calls)
                                        3.39s GPU  (   29160 calls)
     sum_band:ini :      4.14s CPU      5.25s WALL (   29160 calls)
                                        5.09s GPU  (   29160 calls)
     sum_band:cal :      0.83s CPU      1.45s WALL (   29160 calls)
                                        1.29s GPU  (   29160 calls)
     sum_band:bec :      1.50s CPU      2.10s WALL (   29160 calls)
                                        1.92s GPU  (   29160 calls)
     addusdens    :      0.20s CPU      0.22s WALL (      81 calls)
                                        0.22s GPU  (      81 calls)
     addusd:skk   :      0.00s CPU      0.00s WALL (      81 calls)
                                        0.00s GPU  (      81 calls)

     Called by *egterg:
     cdiaghg      :     73.89s CPU     45.00s WALL (  108084 calls)
                                       44.29s GPU  (  108084 calls)
     cegterg:over :     11.65s CPU      7.07s WALL (   79284 calls)
     cegterg:upda :     14.24s CPU      8.39s WALL (   79284 calls)
     cegterg:last :      6.34s CPU      3.73s WALL (   61496 calls)
     h_psi        :    109.09s CPU     63.90s WALL (  108804 calls)
                                       63.32s GPU  (  108804 calls)
     s_psi        :     11.70s CPU      7.90s WALL (  108804 calls)
                                        7.21s GPU  (  108804 calls)
     g_psi        :      1.03s CPU      1.48s WALL (   79284 calls)
                                        1.00s GPU  (   79284 calls)

     Called by h_psi:
     h_psi:calbec :      6.58s CPU      5.78s WALL (  108804 calls)
                                        5.12s GPU  (  108804 calls)
     vloc_psi     :     77.32s CPU     45.95s WALL (  108804 calls)
                                       45.31s GPU  (  108804 calls)
     add_vuspsi   :      7.55s CPU      5.59s WALL (  108804 calls)
                                        4.96s GPU  (  108804 calls)

     General routines
     calbec       :      5.58s CPU      3.54s WALL (  137964 calls)
     fft          :      2.57s CPU      0.30s WALL (    2025 calls)
                                        0.23s GPU  (    1863 calls)
     ffts         :      0.03s CPU      0.02s WALL (     324 calls)
                                        0.01s GPU  (     162 calls)
     fftw         :      8.76s CPU     18.24s WALL (  246768 calls)
                                       16.86s GPU  (  246768 calls)
     interpolate  :      1.36s CPU      0.13s WALL (     162 calls)
     davcio       :      0.86s CPU      0.09s WALL (     378 calls)
 
     Parallel routines

     PAW routines
     PAW_pot      :     76.33s CPU      7.13s WALL (      81 calls)
     PAW_symme    :      0.02s CPU      0.00s WALL (     162 calls)
 
     PWSCF        :   7m23.90s CPU   3m32.46s WALL

 
   This run was terminated on:  22:41:29  22Oct2023            

=------------------------------------------------------------------------------=
   JOB DONE.
=------------------------------------------------------------------------------=
