
     Program PWSCF v.7.2 starts on 22Oct2023 at 17:19:30 

     This program is part of the open-source Quantum ESPRESSO suite
     for quantum simulation of materials; please cite
         "P. Giannozzi et al., J. Phys.:Condens. Matter 21 395502 (2009);
         "P. Giannozzi et al., J. Phys.:Condens. Matter 29 465901 (2017);
         "P. Giannozzi et al., J. Chem. Phys. 152 154105 (2020);
          URL http://www.quantum-espresso.org", 
     in publications or presentations arising from this work. More details at
     http://www.quantum-espresso.org/quote

     Parallel version (MPI & OpenMP), running on      12 processor cores
     Number of MPI processes:                 1
     Threads/MPI process:                    12

     MPI processes distributed on     1 nodes
     60084 MiB available memory on the printing compute node when the environment starts
 
     Reading input from aiida.in

     Current dimensions of program PWSCF are:
     Max number of different atomic species (ntypx) = 10
     Max number of k-points (npk) =  40000
     Max angular momentum in pseudopotentials (lmaxx) =  4
     file Fe.pbesol-spn-kjpaw_psl.0.2.1.UPF: wavefunction(s)  3D renormalized
     Message from routine setup:
     using ibrav=0 with symmetry is DISCOURAGED, use correct ibrav instead
 
     Subspace diagonalization in iterative solution of the eigenvalue problem:
     a serial algorithm will be used

 
     G-vector sticks info
     --------------------
     sticks:   dense  smooth     PW     G-vecs:    dense   smooth      PW
     Sum       14995    4999   1367              1069233   205703   29427
 
     Using Slab Decomposition
 


     bravais-lattice index     =            0
     lattice parameter (alat)  =      13.3004  a.u.
     unit-cell volume          =    1783.7079 (a.u.)^3
     number of atoms/cell      =           12
     number of atomic types    =            3
     number of electrons       =       126.00
     number of Kohn-Sham states=           76
     kinetic-energy cutoff     =      90.0000  Ry
     charge density cutoff     =    1080.0000  Ry
     scf convergence threshold =      2.4E-09
     mixing beta               =       0.4000
     number of iterations used =            8  plain     mixing
     Exchange-correlation= SLA  PW   PSX  PSC
                           (   1   4  10   8   0   0   0)

     GPU acceleration is ACTIVE.


     GPU used by master process:

        Device Number: 0
        Device name: Tesla P100-PCIE-16GB
        Compute capability : 60
        Ratio of single to double precision performance  : 2
        Memory Clock Rate (KHz): 715000
        Memory Bus Width (bits): 4096
        Peak Memory Bandwidth (GB/s): 732.16

     celldm(1)=  13.300417  celldm(2)=   0.000000  celldm(3)=   0.000000
     celldm(4)=   0.000000  celldm(5)=   0.000000  celldm(6)=   0.000000

     crystal axes: (cart. coord. in units of alat)
               a(1) = (   0.645257  -0.763965   0.000000 )  
               a(2) = (   0.645257   0.763965   0.000000 )  
               a(3) = (   0.000000   0.000000   0.768938 )  

     reciprocal axes: (cart. coord. in units 2 pi/alat)
               b(1) = (  0.774885 -0.654480  0.000000 )  
               b(2) = (  0.774885  0.654480 -0.000000 )  
               b(3) = ( -0.000000  0.000000  1.300495 )  


     PseudoPot. # 1 for Fe read from file:
     ./pseudo/Fe.pbesol-spn-kjpaw_psl.0.2.1.UPF
     MD5 check sum: 4d7ec5aa2156491519a4322664fbbf52
     Pseudo is Projector augmented-wave + core cor, Zval = 16.0
     Generated using "atomic" code by A. Dal Corso  v.6.0 svn rev. 13079
     Shape of augmentation charge: PSQ
     Using radial grid of 1191 points,  6 beta functions with: 
                l(1) =   0
                l(2) =   0
                l(3) =   1
                l(4) =   1
                l(5) =   2
                l(6) =   2
     Q(r) pseudized with 0 coefficients 


     PseudoPot. # 2 for S  read from file:
     ./pseudo/s_pbesol_v1.4.uspp.F.UPF
     MD5 check sum: 0ccfa86ec6eb59065d10aaae963ef2a7
     Pseudo is Ultrasoft + core correction, Zval =  6.0
     Generated by new atomic code, or converted to UPF format
     Using radial grid of  907 points,  6 beta functions with: 
                l(1) =   0
                l(2) =   0
                l(3) =   1
                l(4) =   1
                l(5) =   2
                l(6) =   2
     Q(r) pseudized with  8 coefficients,  rinner =    1.300   1.300   1.300
                                                       1.300   1.300

     PseudoPot. # 3 for Tl read from file:
     ./pseudo/tl_pbesol_v1.2.uspp.F.UPF
     MD5 check sum: ce331abb17083e2469b5604a64700343
     Pseudo is Ultrasoft + core correction, Zval = 13.0
     Generated by new atomic code, or converted to UPF format
     Using radial grid of  899 points,  6 beta functions with: 
                l(1) =   0
                l(2) =   0
                l(3) =   1
                l(4) =   1
                l(5) =   2
                l(6) =   2
     Q(r) pseudized with  6 coefficients,  rinner =    1.100   1.100   1.100
                                                       1.100   1.100

     atomic species   valence    mass     pseudopotential
        Fe            16.00    55.84500     Fe( 1.00)
        S              6.00    32.06500     S ( 1.00)
        Tl            13.00   204.38330     Tl( 1.00)

     Starting magnetic structure 
     atomic species   magnetization
        Fe           0.313
        S            0.100
        Tl           0.100

      8 Sym. Ops., with inversion, found ( 4 have fractional translation)


                                    s                        frac. trans.

      isym =  1     identity                                     

 cryst.   s( 1) = (     1          0          0      )
                  (     0          1          0      )
                  (     0          0          1      )

 cart.    s( 1) = (  1.0000000  0.0000000  0.0000000 )
                  (  0.0000000  1.0000000  0.0000000 )
                  (  0.0000000  0.0000000  1.0000000 )


      isym =  2     180 deg rotation - cart. axis [0,0,1]        

 cryst.   s( 2) = (    -1          0          0      )    f =(  0.0000000 )
                  (     0         -1          0      )       (  0.0000000 )
                  (     0          0          1      )       ( -0.5000000 )

 cart.    s( 2) = ( -1.0000000 -0.0000000  0.0000000 )    f =(  0.0000000 )
                  ( -0.0000000 -1.0000000  0.0000000 )       ( -0.0000000 )
                  (  0.0000000  0.0000000  1.0000000 )       ( -0.3844691 )


      isym =  3     180 deg rotation - cart. axis [0,1,0]        

 cryst.   s( 3) = (     0         -1          0      )    f =(  0.0000000 )
                  (    -1          0          0      )       (  0.0000000 )
                  (     0          0         -1      )       ( -0.5000000 )

 cart.    s( 3) = ( -1.0000000  0.0000000  0.0000000 )    f =(  0.0000000 )
                  ( -0.0000000  1.0000000  0.0000000 )       (  0.0000000 )
                  (  0.0000000  0.0000000 -1.0000000 )       ( -0.3844691 )


      isym =  4     180 deg rotation - cart. axis [1,0,0]        

 cryst.   s( 4) = (     0          1          0      )
                  (     1          0          0      )
                  (     0          0         -1      )

 cart.    s( 4) = (  1.0000000 -0.0000000  0.0000000 )
                  (  0.0000000 -1.0000000  0.0000000 )
                  (  0.0000000  0.0000000 -1.0000000 )


      isym =  5     inversion                                    

 cryst.   s( 5) = (    -1          0          0      )
                  (     0         -1          0      )
                  (     0          0         -1      )

 cart.    s( 5) = ( -1.0000000 -0.0000000  0.0000000 )
                  ( -0.0000000 -1.0000000  0.0000000 )
                  (  0.0000000  0.0000000 -1.0000000 )


      isym =  6     inv. 180 deg rotation - cart. axis [0,0,1]   

 cryst.   s( 6) = (     1          0          0      )    f =(  0.0000000 )
                  (     0          1          0      )       (  0.0000000 )
                  (     0          0         -1      )       ( -0.5000000 )

 cart.    s( 6) = (  1.0000000  0.0000000  0.0000000 )    f =(  0.0000000 )
                  (  0.0000000  1.0000000  0.0000000 )       (  0.0000000 )
                  (  0.0000000  0.0000000 -1.0000000 )       ( -0.3844691 )


      isym =  7     inv. 180 deg rotation - cart. axis [0,1,0]   

 cryst.   s( 7) = (     0          1          0      )    f =(  0.0000000 )
                  (     1          0          0      )       ( -0.0000000 )
                  (     0          0          1      )       ( -0.5000000 )

 cart.    s( 7) = (  1.0000000 -0.0000000  0.0000000 )    f =(  0.0000000 )
                  (  0.0000000 -1.0000000  0.0000000 )       ( -0.0000000 )
                  (  0.0000000  0.0000000  1.0000000 )       ( -0.3844691 )


      isym =  8     inv. 180 deg rotation - cart. axis [1,0,0]   

 cryst.   s( 8) = (     0         -1          0      )
                  (    -1          0          0      )
                  (     0          0          1      )

 cart.    s( 8) = ( -1.0000000  0.0000000  0.0000000 )
                  ( -0.0000000  1.0000000  0.0000000 )
                  (  0.0000000  0.0000000  1.0000000 )


   Cartesian axes

     site n.     atom                  positions (alat units)
         1           Tl  tau(   1) = (   0.6452573   1.2820866   0.1922345  )
         2           Tl  tau(   2) = (   0.6452573   0.2458440   0.5767036  )
         3           Fe  tau(   3) = (   1.0992603   0.0000000   0.3844691  )
         4           Fe  tau(   4) = (   1.0992603   0.0000000   0.0000000  )
         5           Fe  tau(   5) = (   0.1912543  -0.0000000   0.3844691  )
         6           Fe  tau(   6) = (   0.1912543  -0.0000000   0.0000000  )
         7           S   tau(   7) = (   0.6452573   0.5787801   0.1922345  )
         8           S   tau(   8) = (   0.6452573   0.9491505   0.5767036  )
         9           S   tau(   9) = (   0.3625056   0.1792263   0.1922345  )
        10           S   tau(  10) = (   0.3625056   1.3487044   0.5767036  )
        11           S   tau(  11) = (   0.9280091   0.1792263   0.1922345  )
        12           S   tau(  12) = (   0.9280091   1.3487044   0.5767036  )

   Crystallographic axes

     site n.     atom                  positions (cryst. coord.)
         1           Tl  tau(   1) = ( -0.3391000  1.3391000  0.2500000  )
         2           Tl  tau(   2) = (  0.3391000  0.6609000  0.7500000  )
         3           Fe  tau(   3) = (  0.8518000  0.8518000  0.5000000  )
         4           Fe  tau(   4) = (  0.8518000  0.8518000  0.0000000  )
         5           Fe  tau(   5) = (  0.1482000  0.1482000  0.5000000  )
         6           Fe  tau(   6) = (  0.1482000  0.1482000  0.0000000  )
         7           S   tau(   7) = (  0.1212000  0.8788000  0.2500000  )
         8           S   tau(   8) = ( -0.1212000  1.1212000  0.7500000  )
         9           S   tau(   9) = (  0.1636000  0.3982000  0.2500000  )
        10           S   tau(  10) = ( -0.6018000  1.1636000  0.7500000  )
        11           S   tau(  11) = (  0.6018000  0.8364000  0.2500000  )
        12           S   tau(  12) = ( -0.1636000  1.6018000  0.7500000  )

     number of k points=    80  Marzari-Vanderbilt smearing, width (Ry)=  0.0100
                       cart. coord. in units 2pi/alat
        k(    1) = (   0.0000000   0.0000000   0.0000000), wk =   0.0025510
        k(    2) = (   0.0000000   0.0000000   0.1625618), wk =   0.0051020
        k(    3) = (   0.0000000   0.0000000   0.3251237), wk =   0.0051020
        k(    4) = (   0.0000000   0.0000000   0.4876855), wk =   0.0051020
        k(    5) = (   0.0000000   0.0000000  -0.6502474), wk =   0.0025510
        k(    6) = (   0.1106978   0.0934971   0.0000000), wk =   0.0102041
        k(    7) = (   0.1106978   0.0934971   0.1625618), wk =   0.0204082
        k(    8) = (   0.1106978   0.0934971   0.3251237), wk =   0.0204082
        k(    9) = (   0.1106978   0.0934971   0.4876855), wk =   0.0204082
        k(   10) = (   0.1106978   0.0934971  -0.6502474), wk =   0.0102041
        k(   11) = (   0.2213956   0.1869943   0.0000000), wk =   0.0102041
        k(   12) = (   0.2213956   0.1869943   0.1625618), wk =   0.0204082
        k(   13) = (   0.2213956   0.1869943   0.3251237), wk =   0.0204082
        k(   14) = (   0.2213956   0.1869943   0.4876855), wk =   0.0204082
        k(   15) = (   0.2213956   0.1869943  -0.6502474), wk =   0.0102041
        k(   16) = (   0.3320934   0.2804914   0.0000000), wk =   0.0102041
        k(   17) = (   0.3320934   0.2804914   0.1625618), wk =   0.0204082
        k(   18) = (   0.3320934   0.2804914   0.3251237), wk =   0.0204082
        k(   19) = (   0.3320934   0.2804914   0.4876855), wk =   0.0204082
        k(   20) = (   0.3320934   0.2804914  -0.6502474), wk =   0.0102041
        k(   21) = (   0.2213956   0.0000000   0.0000000), wk =   0.0051020
        k(   22) = (   0.2213956   0.0000000   0.1625618), wk =   0.0102041
        k(   23) = (   0.2213956   0.0000000   0.3251237), wk =   0.0102041
        k(   24) = (   0.2213956   0.0000000   0.4876855), wk =   0.0102041
        k(   25) = (   0.2213956   0.0000000  -0.6502474), wk =   0.0051020
        k(   26) = (   0.3320934   0.0934971   0.0000000), wk =   0.0102041
        k(   27) = (   0.3320934   0.0934971   0.1625618), wk =   0.0204082
        k(   28) = (   0.3320934   0.0934971   0.3251237), wk =   0.0204082
        k(   29) = (   0.3320934   0.0934971   0.4876855), wk =   0.0204082
        k(   30) = (   0.3320934   0.0934971  -0.6502474), wk =   0.0102041
        k(   31) = (   0.4427912   0.1869943   0.0000000), wk =   0.0102041
        k(   32) = (   0.4427912   0.1869943   0.1625618), wk =   0.0204082
        k(   33) = (   0.4427912   0.1869943   0.3251237), wk =   0.0204082
        k(   34) = (   0.4427912   0.1869943   0.4876855), wk =   0.0204082
        k(   35) = (   0.4427912   0.1869943  -0.6502474), wk =   0.0102041
        k(   36) = (  -0.2213956  -0.3739886   0.0000000), wk =   0.0102041
        k(   37) = (  -0.2213956  -0.3739886   0.1625618), wk =   0.0204082
        k(   38) = (  -0.2213956  -0.3739886   0.3251237), wk =   0.0204082
        k(   39) = (  -0.2213956  -0.3739886   0.4876855), wk =   0.0204082
        k(   40) = (  -0.2213956  -0.3739886  -0.6502474), wk =   0.0102041
        k(   41) = (  -0.1106978  -0.2804914   0.0000000), wk =   0.0102041
        k(   42) = (  -0.1106978  -0.2804914   0.1625618), wk =   0.0204082
        k(   43) = (  -0.1106978  -0.2804914   0.3251237), wk =   0.0204082
        k(   44) = (  -0.1106978  -0.2804914   0.4876855), wk =   0.0204082
        k(   45) = (  -0.1106978  -0.2804914  -0.6502474), wk =   0.0102041
        k(   46) = (  -0.0000000  -0.1869943   0.0000000), wk =   0.0051020
        k(   47) = (  -0.0000000  -0.1869943   0.1625618), wk =   0.0102041
        k(   48) = (  -0.0000000  -0.1869943   0.3251237), wk =   0.0102041
        k(   49) = (  -0.0000000  -0.1869943   0.4876855), wk =   0.0102041
        k(   50) = (  -0.0000000  -0.1869943  -0.6502474), wk =   0.0051020
        k(   51) = (   0.4427912   0.0000000   0.0000000), wk =   0.0051020
        k(   52) = (   0.4427912   0.0000000   0.1625618), wk =   0.0102041
        k(   53) = (   0.4427912   0.0000000   0.3251237), wk =   0.0102041
        k(   54) = (   0.4427912   0.0000000   0.4876855), wk =   0.0102041
        k(   55) = (   0.4427912   0.0000000  -0.6502474), wk =   0.0051020
        k(   56) = (   0.5534891   0.0934971   0.0000000), wk =   0.0102041
        k(   57) = (   0.5534891   0.0934971   0.1625618), wk =   0.0204082
        k(   58) = (   0.5534891   0.0934971   0.3251237), wk =   0.0204082
        k(   59) = (   0.5534891   0.0934971   0.4876855), wk =   0.0204082
        k(   60) = (   0.5534891   0.0934971  -0.6502474), wk =   0.0102041
        k(   61) = (  -0.1106978  -0.4674857   0.0000000), wk =   0.0102041
        k(   62) = (  -0.1106978  -0.4674857   0.1625618), wk =   0.0204082
        k(   63) = (  -0.1106978  -0.4674857   0.3251237), wk =   0.0204082
        k(   64) = (  -0.1106978  -0.4674857   0.4876855), wk =   0.0204082
        k(   65) = (  -0.1106978  -0.4674857  -0.6502474), wk =   0.0102041
        k(   66) = (  -0.0000000  -0.3739886   0.0000000), wk =   0.0051020
        k(   67) = (  -0.0000000  -0.3739886   0.1625618), wk =   0.0102041
        k(   68) = (  -0.0000000  -0.3739886   0.3251237), wk =   0.0102041
        k(   69) = (  -0.0000000  -0.3739886   0.4876855), wk =   0.0102041
        k(   70) = (  -0.0000000  -0.3739886  -0.6502474), wk =   0.0051020
        k(   71) = (   0.6641869   0.0000000   0.0000000), wk =   0.0051020
        k(   72) = (   0.6641869   0.0000000   0.1625618), wk =   0.0102041
        k(   73) = (   0.6641869   0.0000000   0.3251237), wk =   0.0102041
        k(   74) = (   0.6641869   0.0000000   0.4876855), wk =   0.0102041
        k(   75) = (   0.6641869   0.0000000  -0.6502474), wk =   0.0051020
        k(   76) = (  -0.0000000  -0.5609828   0.0000000), wk =   0.0051020
        k(   77) = (  -0.0000000  -0.5609828   0.1625618), wk =   0.0102041
        k(   78) = (  -0.0000000  -0.5609828   0.3251237), wk =   0.0102041
        k(   79) = (  -0.0000000  -0.5609828   0.4876855), wk =   0.0102041
        k(   80) = (  -0.0000000  -0.5609828  -0.6502474), wk =   0.0051020

                       cryst. coord.
        k(    1) = (   0.0000000   0.0000000   0.0000000), wk =   0.0025510
        k(    2) = (   0.0000000   0.0000000   0.1250000), wk =   0.0051020
        k(    3) = (   0.0000000   0.0000000   0.2500000), wk =   0.0051020
        k(    4) = (   0.0000000   0.0000000   0.3750000), wk =   0.0051020
        k(    5) = (   0.0000000   0.0000000  -0.5000000), wk =   0.0025510
        k(    6) = (   0.0000000   0.1428571   0.0000000), wk =   0.0102041
        k(    7) = (   0.0000000   0.1428571   0.1250000), wk =   0.0204082
        k(    8) = (   0.0000000   0.1428571   0.2500000), wk =   0.0204082
        k(    9) = (   0.0000000   0.1428571   0.3750000), wk =   0.0204082
        k(   10) = (   0.0000000   0.1428571  -0.5000000), wk =   0.0102041
        k(   11) = (   0.0000000   0.2857143   0.0000000), wk =   0.0102041
        k(   12) = (   0.0000000   0.2857143   0.1250000), wk =   0.0204082
        k(   13) = (   0.0000000   0.2857143   0.2500000), wk =   0.0204082
        k(   14) = (   0.0000000   0.2857143   0.3750000), wk =   0.0204082
        k(   15) = (   0.0000000   0.2857143  -0.5000000), wk =   0.0102041
        k(   16) = (  -0.0000000   0.4285714   0.0000000), wk =   0.0102041
        k(   17) = (  -0.0000000   0.4285714   0.1250000), wk =   0.0204082
        k(   18) = (  -0.0000000   0.4285714   0.2500000), wk =   0.0204082
        k(   19) = (  -0.0000000   0.4285714   0.3750000), wk =   0.0204082
        k(   20) = (  -0.0000000   0.4285714  -0.5000000), wk =   0.0102041
        k(   21) = (   0.1428571   0.1428571   0.0000000), wk =   0.0051020
        k(   22) = (   0.1428571   0.1428571   0.1250000), wk =   0.0102041
        k(   23) = (   0.1428571   0.1428571   0.2500000), wk =   0.0102041
        k(   24) = (   0.1428571   0.1428571   0.3750000), wk =   0.0102041
        k(   25) = (   0.1428571   0.1428571  -0.5000000), wk =   0.0051020
        k(   26) = (   0.1428571   0.2857143   0.0000000), wk =   0.0102041
        k(   27) = (   0.1428571   0.2857143   0.1250000), wk =   0.0204082
        k(   28) = (   0.1428571   0.2857143   0.2500000), wk =   0.0204082
        k(   29) = (   0.1428571   0.2857143   0.3750000), wk =   0.0204082
        k(   30) = (   0.1428571   0.2857143  -0.5000000), wk =   0.0102041
        k(   31) = (   0.1428571   0.4285714   0.0000000), wk =   0.0102041
        k(   32) = (   0.1428571   0.4285714   0.1250000), wk =   0.0204082
        k(   33) = (   0.1428571   0.4285714   0.2500000), wk =   0.0204082
        k(   34) = (   0.1428571   0.4285714   0.3750000), wk =   0.0204082
        k(   35) = (   0.1428571   0.4285714  -0.5000000), wk =   0.0102041
        k(   36) = (   0.1428571  -0.4285714   0.0000000), wk =   0.0102041
        k(   37) = (   0.1428571  -0.4285714   0.1250000), wk =   0.0204082
        k(   38) = (   0.1428571  -0.4285714   0.2500000), wk =   0.0204082
        k(   39) = (   0.1428571  -0.4285714   0.3750000), wk =   0.0204082
        k(   40) = (   0.1428571  -0.4285714  -0.5000000), wk =   0.0102041
        k(   41) = (   0.1428571  -0.2857143   0.0000000), wk =   0.0102041
        k(   42) = (   0.1428571  -0.2857143   0.1250000), wk =   0.0204082
        k(   43) = (   0.1428571  -0.2857143   0.2500000), wk =   0.0204082
        k(   44) = (   0.1428571  -0.2857143   0.3750000), wk =   0.0204082
        k(   45) = (   0.1428571  -0.2857143  -0.5000000), wk =   0.0102041
        k(   46) = (   0.1428571  -0.1428571   0.0000000), wk =   0.0051020
        k(   47) = (   0.1428571  -0.1428571   0.1250000), wk =   0.0102041
        k(   48) = (   0.1428571  -0.1428571   0.2500000), wk =   0.0102041
        k(   49) = (   0.1428571  -0.1428571   0.3750000), wk =   0.0102041
        k(   50) = (   0.1428571  -0.1428571  -0.5000000), wk =   0.0051020
        k(   51) = (   0.2857143   0.2857143   0.0000000), wk =   0.0051020
        k(   52) = (   0.2857143   0.2857143   0.1250000), wk =   0.0102041
        k(   53) = (   0.2857143   0.2857143   0.2500000), wk =   0.0102041
        k(   54) = (   0.2857143   0.2857143   0.3750000), wk =   0.0102041
        k(   55) = (   0.2857143   0.2857143  -0.5000000), wk =   0.0051020
        k(   56) = (   0.2857143   0.4285714   0.0000000), wk =   0.0102041
        k(   57) = (   0.2857143   0.4285714   0.1250000), wk =   0.0204082
        k(   58) = (   0.2857143   0.4285714   0.2500000), wk =   0.0204082
        k(   59) = (   0.2857143   0.4285714   0.3750000), wk =   0.0204082
        k(   60) = (   0.2857143   0.4285714  -0.5000000), wk =   0.0102041
        k(   61) = (   0.2857143  -0.4285714   0.0000000), wk =   0.0102041
        k(   62) = (   0.2857143  -0.4285714   0.1250000), wk =   0.0204082
        k(   63) = (   0.2857143  -0.4285714   0.2500000), wk =   0.0204082
        k(   64) = (   0.2857143  -0.4285714   0.3750000), wk =   0.0204082
        k(   65) = (   0.2857143  -0.4285714  -0.5000000), wk =   0.0102041
        k(   66) = (   0.2857143  -0.2857143   0.0000000), wk =   0.0051020
        k(   67) = (   0.2857143  -0.2857143   0.1250000), wk =   0.0102041
        k(   68) = (   0.2857143  -0.2857143   0.2500000), wk =   0.0102041
        k(   69) = (   0.2857143  -0.2857143   0.3750000), wk =   0.0102041
        k(   70) = (   0.2857143  -0.2857143  -0.5000000), wk =   0.0051020
        k(   71) = (   0.4285714   0.4285714   0.0000000), wk =   0.0051020
        k(   72) = (   0.4285714   0.4285714   0.1250000), wk =   0.0102041
        k(   73) = (   0.4285714   0.4285714   0.2500000), wk =   0.0102041
        k(   74) = (   0.4285714   0.4285714   0.3750000), wk =   0.0102041
        k(   75) = (   0.4285714   0.4285714  -0.5000000), wk =   0.0051020
        k(   76) = (   0.4285714  -0.4285714   0.0000000), wk =   0.0051020
        k(   77) = (   0.4285714  -0.4285714   0.1250000), wk =   0.0102041
        k(   78) = (   0.4285714  -0.4285714   0.2500000), wk =   0.0102041
        k(   79) = (   0.4285714  -0.4285714   0.3750000), wk =   0.0102041
        k(   80) = (   0.4285714  -0.4285714  -0.5000000), wk =   0.0051020

     Dense  grid:  1069233 G-vectors     FFT dimensions: ( 144, 144, 108)

     Smooth grid:   205703 G-vectors     FFT dimensions: (  81,  81,  64)

     Dynamical RAM for                 wfc:      29.82 MB

     Dynamical RAM for     wfc (w. buffer):    4801.72 MB

     Dynamical RAM for           str. fact:      48.95 MB

     Dynamical RAM for           local pot:       0.00 MB

     Dynamical RAM for          nlocal pot:      84.76 MB

     Dynamical RAM for                qrad:       7.91 MB

     Dynamical RAM for          rho,v,vnew:     200.41 MB

     Dynamical RAM for               rhoin:      66.80 MB

     Dynamical RAM for            rho*nmix:     522.09 MB

     Dynamical RAM for           G-vectors:      62.75 MB

     Dynamical RAM for          h,s,v(r/c):       1.06 MB

     Dynamical RAM for          <psi|beta>:       0.25 MB

     Dynamical RAM for                 psi:      59.65 MB

     Dynamical RAM for                hpsi:      59.65 MB

     Dynamical RAM for                spsi:      59.65 MB

     Dynamical RAM for      wfcinit/wfcrot:      73.98 MB

     Dynamical RAM for           addusdens:    3148.83 MB

     Dynamical RAM for          addusforce:    3312.03 MB

     Dynamical RAM for         addusstress:    3303.83 MB

     Estimated static dynamical RAM per process >       5.31 GB

     Estimated max dynamical RAM per process >       9.06 GB

     Check: negative core charge=   -0.000003
     Generating pointlists ...
     new r_m :   0.1294 (alat units)  1.7211 (a.u.) for type    1
     new r_m :   0.1294 (alat units)  1.7211 (a.u.) for type    2
     new r_m :   0.1988 (alat units)  2.6438 (a.u.) for type    3

     Initial potential from superposition of free atoms

     starting charge     125.9894, renormalised to     126.0000

     negative rho (up, down):  5.442E-02 4.453E-02
     Starting wfcs are   94 randomized atomic wfcs
     Checking if some PAW data can be deallocated... 

     total cpu time spent up to now is       28.9 secs

     per-process dynamical memory:  1958.3 Mb

     Self-consistent Calculation
[tb_dev] Currently allocated     2.14E+01 Mbytes, locked:    0 /  13
[tb_pin] Currently allocated     0.00E+00 Mbytes, locked:    0 /   0

     iteration #  1     ecut=    90.00 Ry     beta= 0.40
     Davidson diagonalization with overlap

---- Real-time Memory Report at c_bands before calling an iterative solver
          6495 MiB given to the printing process from OS
          1983 MiB allocation reported by mallinfo(arena+hblkhd)
         52582 MiB available memory on the node where the printing process lives
     GPU memory used/free/total (MiB): 2534 / 13746 / 16280
------------------
     ethr =  1.00E-02,  avg # of iterations =  2.2

     Threshold (ethr) on eigenvalues was too large:
     Diagonalizing with lowered threshold

     Davidson diagonalization with overlap

---- Real-time Memory Report at c_bands before calling an iterative solver
          6555 MiB given to the printing process from OS
          2029 MiB allocation reported by mallinfo(arena+hblkhd)
         52541 MiB available memory on the node where the printing process lives
     GPU memory used/free/total (MiB): 6462 / 9818 / 16280
------------------
     ethr =  5.88E-04,  avg # of iterations =  5.0

     negative rho (up, down):  5.253E-02 4.651E-02

     total cpu time spent up to now is       81.8 secs

     total energy              =   -1741.02981217 Ry
     estimated scf accuracy    <       0.78457671 Ry

     total magnetization       =    15.73 Bohr mag/cell
     absolute magnetization    =    15.74 Bohr mag/cell
[tb_dev] Currently allocated     2.14E+01 Mbytes, locked:    0 /  11
[tb_pin] Currently allocated     0.00E+00 Mbytes, locked:    0 /   0

     iteration #  2     ecut=    90.00 Ry     beta= 0.40
     Davidson diagonalization with overlap

---- Real-time Memory Report at c_bands before calling an iterative solver
          6886 MiB given to the printing process from OS
         -1941 MiB allocation reported by mallinfo(arena+hblkhd)
         52440 MiB available memory on the node where the printing process lives
     GPU memory used/free/total (MiB): 6554 / 9726 / 16280
------------------
     ethr =  6.23E-04,  avg # of iterations =  2.1

     negative rho (up, down):  5.131E-02 4.766E-02

     total cpu time spent up to now is      106.8 secs

     total energy              =   -1741.18511233 Ry
     estimated scf accuracy    <       0.23774094 Ry

     total magnetization       =    15.41 Bohr mag/cell
     absolute magnetization    =    15.44 Bohr mag/cell
[tb_dev] Currently allocated     2.14E+01 Mbytes, locked:    0 /  11
[tb_pin] Currently allocated     0.00E+00 Mbytes, locked:    0 /   0

     iteration #  3     ecut=    90.00 Ry     beta= 0.40
     Davidson diagonalization with overlap

---- Real-time Memory Report at c_bands before calling an iterative solver
          6996 MiB given to the printing process from OS
         -1914 MiB allocation reported by mallinfo(arena+hblkhd)
         52413 MiB available memory on the node where the printing process lives
     GPU memory used/free/total (MiB): 6554 / 9726 / 16280
------------------
     ethr =  1.89E-04,  avg # of iterations =  4.1

     negative rho (up, down):  5.083E-02 4.815E-02

     total cpu time spent up to now is      135.7 secs

     total energy              =   -1741.22706365 Ry
     estimated scf accuracy    <       1.53291359 Ry

     total magnetization       =    10.90 Bohr mag/cell
     absolute magnetization    =    11.19 Bohr mag/cell
[tb_dev] Currently allocated     2.14E+01 Mbytes, locked:    0 /  11
[tb_pin] Currently allocated     0.00E+00 Mbytes, locked:    0 /   0

     iteration #  4     ecut=    90.00 Ry     beta= 0.40
     Davidson diagonalization with overlap

---- Real-time Memory Report at c_bands before calling an iterative solver
          7102 MiB given to the printing process from OS
         -1887 MiB allocation reported by mallinfo(arena+hblkhd)
         52388 MiB available memory on the node where the printing process lives
     GPU memory used/free/total (MiB): 6554 / 9726 / 16280
------------------
     ethr =  1.89E-04,  avg # of iterations =  2.0

     negative rho (up, down):  4.977E-02 4.901E-02

     total cpu time spent up to now is      159.3 secs

     total energy              =   -1741.34561476 Ry
     estimated scf accuracy    <       0.10238548 Ry

     total magnetization       =    13.12 Bohr mag/cell
     absolute magnetization    =    13.26 Bohr mag/cell
[tb_dev] Currently allocated     2.14E+01 Mbytes, locked:    0 /  11
[tb_pin] Currently allocated     0.00E+00 Mbytes, locked:    0 /   0

     iteration #  5     ecut=    90.00 Ry     beta= 0.40
     Davidson diagonalization with overlap

---- Real-time Memory Report at c_bands before calling an iterative solver
          7201 MiB given to the printing process from OS
         -1866 MiB allocation reported by mallinfo(arena+hblkhd)
         52369 MiB available memory on the node where the printing process lives
     GPU memory used/free/total (MiB): 6554 / 9726 / 16280
------------------
     ethr =  8.13E-05,  avg # of iterations =  2.2

     negative rho (up, down):  4.897E-02 4.959E-02

     total cpu time spent up to now is      183.3 secs

     total energy              =   -1741.37320782 Ry
     estimated scf accuracy    <       0.10809948 Ry

     total magnetization       =    11.62 Bohr mag/cell
     absolute magnetization    =    11.91 Bohr mag/cell
[tb_dev] Currently allocated     2.14E+01 Mbytes, locked:    0 /  11
[tb_pin] Currently allocated     0.00E+00 Mbytes, locked:    0 /   0

     iteration #  6     ecut=    90.00 Ry     beta= 0.40
     Davidson diagonalization with overlap

---- Real-time Memory Report at c_bands before calling an iterative solver
          7260 MiB given to the printing process from OS
         -1839 MiB allocation reported by mallinfo(arena+hblkhd)
         52341 MiB available memory on the node where the printing process lives
     GPU memory used/free/total (MiB): 6554 / 9726 / 16280
------------------
     ethr =  8.13E-05,  avg # of iterations =  1.5

     negative rho (up, down):  4.892E-02 4.953E-02

     total cpu time spent up to now is      205.5 secs

     total energy              =   -1741.38701915 Ry
     estimated scf accuracy    <       0.04861136 Ry

     total magnetization       =    10.44 Bohr mag/cell
     absolute magnetization    =    10.91 Bohr mag/cell
[tb_dev] Currently allocated     2.14E+01 Mbytes, locked:    0 /  11
[tb_pin] Currently allocated     0.00E+00 Mbytes, locked:    0 /   0

     iteration #  7     ecut=    90.00 Ry     beta= 0.40
     Davidson diagonalization with overlap

---- Real-time Memory Report at c_bands before calling an iterative solver
          7280 MiB given to the printing process from OS
         -1819 MiB allocation reported by mallinfo(arena+hblkhd)
         52322 MiB available memory on the node where the printing process lives
     GPU memory used/free/total (MiB): 6554 / 9726 / 16280
------------------
     ethr =  3.86E-05,  avg # of iterations =  1.7

     negative rho (up, down):  4.907E-02 4.934E-02

     total cpu time spent up to now is      228.1 secs

     total energy              =   -1741.38424267 Ry
     estimated scf accuracy    <       0.02422115 Ry

     total magnetization       =    10.09 Bohr mag/cell
     absolute magnetization    =    10.63 Bohr mag/cell
[tb_dev] Currently allocated     2.14E+01 Mbytes, locked:    0 /  11
[tb_pin] Currently allocated     0.00E+00 Mbytes, locked:    0 /   0

     iteration #  8     ecut=    90.00 Ry     beta= 0.40
     Davidson diagonalization with overlap

---- Real-time Memory Report at c_bands before calling an iterative solver
          7301 MiB given to the printing process from OS
         -1798 MiB allocation reported by mallinfo(arena+hblkhd)
         52299 MiB available memory on the node where the printing process lives
     GPU memory used/free/total (MiB): 6554 / 9726 / 16280
------------------
     c_bands:  1 eigenvalues not converged
     ethr =  1.92E-05,  avg # of iterations =  4.6

     negative rho (up, down):  4.914E-02 4.931E-02

     total cpu time spent up to now is      258.1 secs

     total energy              =   -1741.40562673 Ry
     estimated scf accuracy    <       0.00269418 Ry

     total magnetization       =     8.37 Bohr mag/cell
     absolute magnetization    =     9.09 Bohr mag/cell
[tb_dev] Currently allocated     2.14E+01 Mbytes, locked:    0 /  11
[tb_pin] Currently allocated     0.00E+00 Mbytes, locked:    0 /   0

     iteration #  9     ecut=    90.00 Ry     beta= 0.40
     Davidson diagonalization with overlap

---- Real-time Memory Report at c_bands before calling an iterative solver
          7322 MiB given to the printing process from OS
         -1777 MiB allocation reported by mallinfo(arena+hblkhd)
         52281 MiB available memory on the node where the printing process lives
     GPU memory used/free/total (MiB): 6554 / 9726 / 16280
------------------
     c_bands:  1 eigenvalues not converged
     ethr =  2.14E-06,  avg # of iterations =  8.9

     negative rho (up, down):  4.922E-02 4.923E-02

     total cpu time spent up to now is      297.9 secs

     total energy              =   -1741.40326755 Ry
     estimated scf accuracy    <       0.00285431 Ry

     total magnetization       =     8.22 Bohr mag/cell
     absolute magnetization    =     8.91 Bohr mag/cell
[tb_dev] Currently allocated     2.14E+01 Mbytes, locked:    0 /  11
[tb_pin] Currently allocated     0.00E+00 Mbytes, locked:    0 /   0

     iteration # 10     ecut=    90.00 Ry     beta= 0.40
     Davidson diagonalization with overlap

---- Real-time Memory Report at c_bands before calling an iterative solver
          7343 MiB given to the printing process from OS
         -1757 MiB allocation reported by mallinfo(arena+hblkhd)
         52260 MiB available memory on the node where the printing process lives
     GPU memory used/free/total (MiB): 6554 / 9726 / 16280
------------------
     ethr =  2.14E-06,  avg # of iterations =  3.8

     negative rho (up, down):  4.923E-02 4.922E-02

     total cpu time spent up to now is      327.3 secs

     total energy              =   -1741.41071445 Ry
     estimated scf accuracy    <       0.00244156 Ry

     total magnetization       =     7.12 Bohr mag/cell
     absolute magnetization    =     7.82 Bohr mag/cell
[tb_dev] Currently allocated     2.14E+01 Mbytes, locked:    0 /  11
[tb_pin] Currently allocated     0.00E+00 Mbytes, locked:    0 /   0

     iteration # 11     ecut=    90.00 Ry     beta= 0.40
     Davidson diagonalization with overlap

---- Real-time Memory Report at c_bands before calling an iterative solver
          7357 MiB given to the printing process from OS
         -1783 MiB allocation reported by mallinfo(arena+hblkhd)
         52249 MiB available memory on the node where the printing process lives
     GPU memory used/free/total (MiB): 6554 / 9726 / 16280
------------------
     ethr =  1.94E-06,  avg # of iterations =  1.2

     negative rho (up, down):  4.928E-02 4.916E-02

     total cpu time spent up to now is      349.1 secs

     total energy              =   -1741.41169799 Ry
     estimated scf accuracy    <       0.00321283 Ry

     total magnetization       =     7.16 Bohr mag/cell
     absolute magnetization    =     7.86 Bohr mag/cell
[tb_dev] Currently allocated     2.14E+01 Mbytes, locked:    0 /  11
[tb_pin] Currently allocated     0.00E+00 Mbytes, locked:    0 /   0

     iteration # 12     ecut=    90.00 Ry     beta= 0.40
     Davidson diagonalization with overlap

---- Real-time Memory Report at c_bands before calling an iterative solver
          7359 MiB given to the printing process from OS
         -1741 MiB allocation reported by mallinfo(arena+hblkhd)
         52245 MiB available memory on the node where the printing process lives
     GPU memory used/free/total (MiB): 6554 / 9726 / 16280
------------------
     ethr =  1.94E-06,  avg # of iterations =  1.7

     negative rho (up, down):  4.926E-02 4.916E-02

     total cpu time spent up to now is      371.8 secs

     total energy              =   -1741.41064773 Ry
     estimated scf accuracy    <       0.00132400 Ry

     total magnetization       =     7.07 Bohr mag/cell
     absolute magnetization    =     7.73 Bohr mag/cell
[tb_dev] Currently allocated     2.14E+01 Mbytes, locked:    0 /  11
[tb_pin] Currently allocated     0.00E+00 Mbytes, locked:    0 /   0

     iteration # 13     ecut=    90.00 Ry     beta= 0.40
     Davidson diagonalization with overlap

---- Real-time Memory Report at c_bands before calling an iterative solver
          7373 MiB given to the printing process from OS
         -1767 MiB allocation reported by mallinfo(arena+hblkhd)
         52237 MiB available memory on the node where the printing process lives
     GPU memory used/free/total (MiB): 6554 / 9726 / 16280
------------------
     ethr =  1.05E-06,  avg # of iterations =  4.7

     negative rho (up, down):  4.925E-02 4.917E-02

     total cpu time spent up to now is      403.2 secs

     total energy              =   -1741.41403598 Ry
     estimated scf accuracy    <       0.00204067 Ry

     total magnetization       =     6.47 Bohr mag/cell
     absolute magnetization    =     7.07 Bohr mag/cell
[tb_dev] Currently allocated     2.14E+01 Mbytes, locked:    0 /  11
[tb_pin] Currently allocated     0.00E+00 Mbytes, locked:    0 /   0

     iteration # 14     ecut=    90.00 Ry     beta= 0.40
     Davidson diagonalization with overlap

---- Real-time Memory Report at c_bands before calling an iterative solver
          7381 MiB given to the printing process from OS
         -1724 MiB allocation reported by mallinfo(arena+hblkhd)
         52221 MiB available memory on the node where the printing process lives
     GPU memory used/free/total (MiB): 6554 / 9726 / 16280
------------------
     ethr =  1.05E-06,  avg # of iterations =  1.1

     negative rho (up, down):  4.925E-02 4.916E-02

     total cpu time spent up to now is      425.0 secs

     total energy              =   -1741.41401356 Ry
     estimated scf accuracy    <       0.00234191 Ry

     total magnetization       =     6.49 Bohr mag/cell
     absolute magnetization    =     7.09 Bohr mag/cell
[tb_dev] Currently allocated     2.14E+01 Mbytes, locked:    0 /  11
[tb_pin] Currently allocated     0.00E+00 Mbytes, locked:    0 /   0

     iteration # 15     ecut=    90.00 Ry     beta= 0.40
     Davidson diagonalization with overlap

---- Real-time Memory Report at c_bands before calling an iterative solver
          7389 MiB given to the printing process from OS
         -1751 MiB allocation reported by mallinfo(arena+hblkhd)
         52221 MiB available memory on the node where the printing process lives
     GPU memory used/free/total (MiB): 6554 / 9726 / 16280
------------------
     ethr =  1.05E-06,  avg # of iterations =  1.0

     negative rho (up, down):  4.929E-02 4.913E-02

     total cpu time spent up to now is      446.5 secs

     total energy              =   -1741.41414585 Ry
     estimated scf accuracy    <       0.00229565 Ry

     total magnetization       =     6.51 Bohr mag/cell
     absolute magnetization    =     7.11 Bohr mag/cell
[tb_dev] Currently allocated     2.14E+01 Mbytes, locked:    0 /  11
[tb_pin] Currently allocated     0.00E+00 Mbytes, locked:    0 /   0

     iteration # 16     ecut=    90.00 Ry     beta= 0.40
     Davidson diagonalization with overlap

---- Real-time Memory Report at c_bands before calling an iterative solver
          7404 MiB given to the printing process from OS
         -1708 MiB allocation reported by mallinfo(arena+hblkhd)
         52201 MiB available memory on the node where the printing process lives
     GPU memory used/free/total (MiB): 6554 / 9726 / 16280
------------------
     ethr =  1.05E-06,  avg # of iterations =  1.0

     negative rho (up, down):  4.929E-02 4.910E-02

     total cpu time spent up to now is      468.0 secs

     total energy              =   -1741.41357476 Ry
     estimated scf accuracy    <       0.00186518 Ry

     total magnetization       =     6.42 Bohr mag/cell
     absolute magnetization    =     7.01 Bohr mag/cell
[tb_dev] Currently allocated     2.14E+01 Mbytes, locked:    0 /  11
[tb_pin] Currently allocated     0.00E+00 Mbytes, locked:    0 /   0

     iteration # 17     ecut=    90.00 Ry     beta= 0.40
     Davidson diagonalization with overlap

---- Real-time Memory Report at c_bands before calling an iterative solver
          7412 MiB given to the printing process from OS
         -1735 MiB allocation reported by mallinfo(arena+hblkhd)
         52203 MiB available memory on the node where the printing process lives
     GPU memory used/free/total (MiB): 6554 / 9726 / 16280
------------------
     ethr =  1.05E-06,  avg # of iterations =  2.6

     negative rho (up, down):  4.931E-02 4.912E-02

     total cpu time spent up to now is      493.7 secs

     total energy              =   -1741.40637796 Ry
     estimated scf accuracy    <       0.00226307 Ry

     total magnetization       =     6.03 Bohr mag/cell
     absolute magnetization    =     6.57 Bohr mag/cell
[tb_dev] Currently allocated     2.14E+01 Mbytes, locked:    0 /  11
[tb_pin] Currently allocated     0.00E+00 Mbytes, locked:    0 /   0

     iteration # 18     ecut=    90.00 Ry     beta= 0.40
     Davidson diagonalization with overlap

---- Real-time Memory Report at c_bands before calling an iterative solver
          7419 MiB given to the printing process from OS
         -1692 MiB allocation reported by mallinfo(arena+hblkhd)
         52185 MiB available memory on the node where the printing process lives
     GPU memory used/free/total (MiB): 6554 / 9726 / 16280
------------------
     ethr =  1.05E-06,  avg # of iterations =  3.3

     negative rho (up, down):  4.931E-02 4.912E-02

     total cpu time spent up to now is      522.4 secs

     total energy              =   -1741.41319702 Ry
     estimated scf accuracy    <       0.00085495 Ry

     total magnetization       =     6.92 Bohr mag/cell
     absolute magnetization    =     7.53 Bohr mag/cell
[tb_dev] Currently allocated     2.14E+01 Mbytes, locked:    0 /  11
[tb_pin] Currently allocated     0.00E+00 Mbytes, locked:    0 /   0

     iteration # 19     ecut=    90.00 Ry     beta= 0.40
     Davidson diagonalization with overlap

---- Real-time Memory Report at c_bands before calling an iterative solver
          7427 MiB given to the printing process from OS
         -1719 MiB allocation reported by mallinfo(arena+hblkhd)
         52187 MiB available memory on the node where the printing process lives
     GPU memory used/free/total (MiB): 6554 / 9726 / 16280
------------------
     ethr =  6.79E-07,  avg # of iterations =  1.1

     negative rho (up, down):  4.929E-02 4.911E-02

     total cpu time spent up to now is      544.1 secs

     total energy              =   -1741.41303504 Ry
     estimated scf accuracy    <       0.00074587 Ry

     total magnetization       =     6.80 Bohr mag/cell
     absolute magnetization    =     7.41 Bohr mag/cell
[tb_dev] Currently allocated     2.14E+01 Mbytes, locked:    0 /  11
[tb_pin] Currently allocated     0.00E+00 Mbytes, locked:    0 /   0

     iteration # 20     ecut=    90.00 Ry     beta= 0.40
     Davidson diagonalization with overlap

---- Real-time Memory Report at c_bands before calling an iterative solver
          7436 MiB given to the printing process from OS
         -1676 MiB allocation reported by mallinfo(arena+hblkhd)
         52169 MiB available memory on the node where the printing process lives
     GPU memory used/free/total (MiB): 6554 / 9726 / 16280
------------------
     ethr =  5.92E-07,  avg # of iterations =  1.8

     negative rho (up, down):  4.930E-02 4.911E-02

     total cpu time spent up to now is      566.8 secs

     total energy              =   -1741.41250713 Ry
     estimated scf accuracy    <       0.00155032 Ry

     total magnetization       =     6.90 Bohr mag/cell
     absolute magnetization    =     7.51 Bohr mag/cell
[tb_dev] Currently allocated     2.14E+01 Mbytes, locked:    0 /  11
[tb_pin] Currently allocated     0.00E+00 Mbytes, locked:    0 /   0

     iteration # 21     ecut=    90.00 Ry     beta= 0.40
     Davidson diagonalization with overlap

---- Real-time Memory Report at c_bands before calling an iterative solver
          7444 MiB given to the printing process from OS
         -1703 MiB allocation reported by mallinfo(arena+hblkhd)
         52173 MiB available memory on the node where the printing process lives
     GPU memory used/free/total (MiB): 6554 / 9726 / 16280
------------------
     ethr =  5.92E-07,  avg # of iterations =  1.5

     negative rho (up, down):  4.931E-02 4.912E-02

     total cpu time spent up to now is      589.3 secs

     total energy              =   -1741.41281566 Ry
     estimated scf accuracy    <       0.00129266 Ry

     total magnetization       =     7.01 Bohr mag/cell
     absolute magnetization    =     7.63 Bohr mag/cell
[tb_dev] Currently allocated     2.14E+01 Mbytes, locked:    0 /  11
[tb_pin] Currently allocated     0.00E+00 Mbytes, locked:    0 /   0

     iteration # 22     ecut=    90.00 Ry     beta= 0.40
     Davidson diagonalization with overlap

---- Real-time Memory Report at c_bands before calling an iterative solver
          7452 MiB given to the printing process from OS
         -1660 MiB allocation reported by mallinfo(arena+hblkhd)
         52150 MiB available memory on the node where the printing process lives
     GPU memory used/free/total (MiB): 6554 / 9726 / 16280
------------------
     ethr =  5.92E-07,  avg # of iterations =  1.6

     negative rho (up, down):  4.929E-02 4.913E-02

     total cpu time spent up to now is      611.7 secs

     total energy              =   -1741.41250658 Ry
     estimated scf accuracy    <       0.00092369 Ry

     total magnetization       =     6.91 Bohr mag/cell
     absolute magnetization    =     7.52 Bohr mag/cell
[tb_dev] Currently allocated     2.14E+01 Mbytes, locked:    0 /  11
[tb_pin] Currently allocated     0.00E+00 Mbytes, locked:    0 /   0

     iteration # 23     ecut=    90.00 Ry     beta= 0.40
     Davidson diagonalization with overlap

---- Real-time Memory Report at c_bands before calling an iterative solver
          7460 MiB given to the printing process from OS
         -1687 MiB allocation reported by mallinfo(arena+hblkhd)
         52154 MiB available memory on the node where the printing process lives
     GPU memory used/free/total (MiB): 6554 / 9726 / 16280
------------------
     ethr =  5.92E-07,  avg # of iterations =  1.2

     negative rho (up, down):  4.929E-02 4.913E-02

     total cpu time spent up to now is      633.5 secs

     total energy              =   -1741.41295707 Ry
     estimated scf accuracy    <       0.00132595 Ry

     total magnetization       =     6.99 Bohr mag/cell
     absolute magnetization    =     7.60 Bohr mag/cell
[tb_dev] Currently allocated     2.14E+01 Mbytes, locked:    0 /  11
[tb_pin] Currently allocated     0.00E+00 Mbytes, locked:    0 /   0

     iteration # 24     ecut=    90.00 Ry     beta= 0.40
     Davidson diagonalization with overlap

---- Real-time Memory Report at c_bands before calling an iterative solver
          7467 MiB given to the printing process from OS
         -1644 MiB allocation reported by mallinfo(arena+hblkhd)
         52135 MiB available memory on the node where the printing process lives
     GPU memory used/free/total (MiB): 6554 / 9726 / 16280
------------------
     ethr =  5.92E-07,  avg # of iterations =  2.0

     negative rho (up, down):  4.927E-02 4.914E-02

     total cpu time spent up to now is      657.2 secs

     total energy              =   -1741.41192201 Ry
     estimated scf accuracy    <       0.00079666 Ry

     total magnetization       =     6.74 Bohr mag/cell
     absolute magnetization    =     7.34 Bohr mag/cell
[tb_dev] Currently allocated     2.14E+01 Mbytes, locked:    0 /  11
[tb_pin] Currently allocated     0.00E+00 Mbytes, locked:    0 /   0

     iteration # 25     ecut=    90.00 Ry     beta= 0.40
     Davidson diagonalization with overlap

---- Real-time Memory Report at c_bands before calling an iterative solver
          7475 MiB given to the printing process from OS
         -1670 MiB allocation reported by mallinfo(arena+hblkhd)
         52139 MiB available memory on the node where the printing process lives
     GPU memory used/free/total (MiB): 6554 / 9726 / 16280
------------------
     ethr =  5.92E-07,  avg # of iterations =  4.0

     negative rho (up, down):  4.924E-02 4.915E-02

     total cpu time spent up to now is      687.4 secs

     total energy              =   -1741.41458690 Ry
     estimated scf accuracy    <       0.00028585 Ry

     total magnetization       =     6.12 Bohr mag/cell
     absolute magnetization    =     6.69 Bohr mag/cell
[tb_dev] Currently allocated     2.14E+01 Mbytes, locked:    0 /  11
[tb_pin] Currently allocated     0.00E+00 Mbytes, locked:    0 /   0

     iteration # 26     ecut=    90.00 Ry     beta= 0.40
     Davidson diagonalization with overlap

---- Real-time Memory Report at c_bands before calling an iterative solver
          7484 MiB given to the printing process from OS
         -1628 MiB allocation reported by mallinfo(arena+hblkhd)
         52121 MiB available memory on the node where the printing process lives
     GPU memory used/free/total (MiB): 6554 / 9726 / 16280
------------------
     ethr =  2.27E-07,  avg # of iterations =  4.0

     negative rho (up, down):  4.922E-02 4.916E-02

     total cpu time spent up to now is      717.2 secs

     total energy              =   -1741.41258810 Ry
     estimated scf accuracy    <       0.00041947 Ry

     total magnetization       =     5.78 Bohr mag/cell
     absolute magnetization    =     6.35 Bohr mag/cell
[tb_dev] Currently allocated     2.14E+01 Mbytes, locked:    0 /  11
[tb_pin] Currently allocated     0.00E+00 Mbytes, locked:    0 /   0

     iteration # 27     ecut=    90.00 Ry     beta= 0.40
     Davidson diagonalization with overlap

---- Real-time Memory Report at c_bands before calling an iterative solver
          7492 MiB given to the printing process from OS
         -1654 MiB allocation reported by mallinfo(arena+hblkhd)
         52123 MiB available memory on the node where the printing process lives
     GPU memory used/free/total (MiB): 6554 / 9726 / 16280
------------------
     ethr =  2.27E-07,  avg # of iterations =  5.3

     negative rho (up, down):  4.923E-02 4.915E-02

     total cpu time spent up to now is      752.2 secs

     total energy              =   -1741.41650951 Ry
     estimated scf accuracy    <       0.00081437 Ry

     total magnetization       =     4.87 Bohr mag/cell
     absolute magnetization    =     5.40 Bohr mag/cell
[tb_dev] Currently allocated     2.14E+01 Mbytes, locked:    0 /  11
[tb_pin] Currently allocated     0.00E+00 Mbytes, locked:    0 /   0

     iteration # 28     ecut=    90.00 Ry     beta= 0.40
     Davidson diagonalization with overlap

---- Real-time Memory Report at c_bands before calling an iterative solver
          7500 MiB given to the printing process from OS
         -1612 MiB allocation reported by mallinfo(arena+hblkhd)
         52105 MiB available memory on the node where the printing process lives
     GPU memory used/free/total (MiB): 6554 / 9726 / 16280
------------------
     ethr =  2.27E-07,  avg # of iterations =  2.0

     negative rho (up, down):  4.923E-02 4.915E-02

     total cpu time spent up to now is      775.8 secs

     total energy              =   -1741.41672823 Ry
     estimated scf accuracy    <       0.00072992 Ry

     total magnetization       =     5.06 Bohr mag/cell
     absolute magnetization    =     5.60 Bohr mag/cell
[tb_dev] Currently allocated     2.14E+01 Mbytes, locked:    0 /  11
[tb_pin] Currently allocated     0.00E+00 Mbytes, locked:    0 /   0

     iteration # 29     ecut=    90.00 Ry     beta= 0.40
     Davidson diagonalization with overlap

---- Real-time Memory Report at c_bands before calling an iterative solver
          7508 MiB given to the printing process from OS
         -1638 MiB allocation reported by mallinfo(arena+hblkhd)
         52095 MiB available memory on the node where the printing process lives
     GPU memory used/free/total (MiB): 6554 / 9726 / 16280
------------------
     ethr =  2.27E-07,  avg # of iterations =  1.0

     negative rho (up, down):  4.921E-02 4.916E-02

     total cpu time spent up to now is      797.4 secs

     total energy              =   -1741.41704923 Ry
     estimated scf accuracy    <       0.00072212 Ry

     total magnetization       =     5.07 Bohr mag/cell
     absolute magnetization    =     5.61 Bohr mag/cell
[tb_dev] Currently allocated     2.14E+01 Mbytes, locked:    0 /  11
[tb_pin] Currently allocated     0.00E+00 Mbytes, locked:    0 /   0

     iteration # 30     ecut=    90.00 Ry     beta= 0.40
     Davidson diagonalization with overlap

---- Real-time Memory Report at c_bands before calling an iterative solver
          7515 MiB given to the printing process from OS
         -1596 MiB allocation reported by mallinfo(arena+hblkhd)
         52079 MiB available memory on the node where the printing process lives
     GPU memory used/free/total (MiB): 6554 / 9726 / 16280
------------------
     ethr =  2.27E-07,  avg # of iterations =  2.0

     negative rho (up, down):  4.922E-02 4.916E-02

     total cpu time spent up to now is      820.9 secs

     total energy              =   -1741.41694586 Ry
     estimated scf accuracy    <       0.00074540 Ry

     total magnetization       =     4.86 Bohr mag/cell
     absolute magnetization    =     5.40 Bohr mag/cell
[tb_dev] Currently allocated     2.14E+01 Mbytes, locked:    0 /  11
[tb_pin] Currently allocated     0.00E+00 Mbytes, locked:    0 /   0

     iteration # 31     ecut=    90.00 Ry     beta= 0.40
     Davidson diagonalization with overlap

---- Real-time Memory Report at c_bands before calling an iterative solver
          7523 MiB given to the printing process from OS
         -1622 MiB allocation reported by mallinfo(arena+hblkhd)
         52087 MiB available memory on the node where the printing process lives
     GPU memory used/free/total (MiB): 6554 / 9726 / 16280
------------------
     ethr =  2.27E-07,  avg # of iterations =  1.5

     negative rho (up, down):  4.922E-02 4.915E-02

     total cpu time spent up to now is      843.1 secs

     total energy              =   -1741.41627627 Ry
     estimated scf accuracy    <       0.00071277 Ry

     total magnetization       =     4.96 Bohr mag/cell
     absolute magnetization    =     5.50 Bohr mag/cell
[tb_dev] Currently allocated     2.14E+01 Mbytes, locked:    0 /  11
[tb_pin] Currently allocated     0.00E+00 Mbytes, locked:    0 /   0

     iteration # 32     ecut=    90.00 Ry     beta= 0.40
     Davidson diagonalization with overlap

---- Real-time Memory Report at c_bands before calling an iterative solver
          7532 MiB given to the printing process from OS
         -1580 MiB allocation reported by mallinfo(arena+hblkhd)
         52068 MiB available memory on the node where the printing process lives
     GPU memory used/free/total (MiB): 6554 / 9726 / 16280
------------------
     ethr =  2.27E-07,  avg # of iterations =  2.0

     negative rho (up, down):  4.922E-02 4.915E-02

     total cpu time spent up to now is      866.9 secs

     total energy              =   -1741.41367425 Ry
     estimated scf accuracy    <       0.00067120 Ry

     total magnetization       =     5.17 Bohr mag/cell
     absolute magnetization    =     5.72 Bohr mag/cell
[tb_dev] Currently allocated     2.14E+01 Mbytes, locked:    0 /  11
[tb_pin] Currently allocated     0.00E+00 Mbytes, locked:    0 /   0

     iteration # 33     ecut=    90.00 Ry     beta= 0.40
     Davidson diagonalization with overlap

---- Real-time Memory Report at c_bands before calling an iterative solver
          7540 MiB given to the printing process from OS
         -1606 MiB allocation reported by mallinfo(arena+hblkhd)
         52071 MiB available memory on the node where the printing process lives
     GPU memory used/free/total (MiB): 6554 / 9726 / 16280
------------------
     c_bands:  1 eigenvalues not converged
     ethr =  2.27E-07,  avg # of iterations =  4.6

     negative rho (up, down):  4.925E-02 4.913E-02

     total cpu time spent up to now is      898.0 secs

     total energy              =   -1741.40900638 Ry
     estimated scf accuracy    <       0.00039435 Ry

     total magnetization       =     5.76 Bohr mag/cell
     absolute magnetization    =     6.32 Bohr mag/cell
[tb_dev] Currently allocated     2.14E+01 Mbytes, locked:    0 /  11
[tb_pin] Currently allocated     0.00E+00 Mbytes, locked:    0 /   0

     iteration # 34     ecut=    90.00 Ry     beta= 0.40
     Davidson diagonalization with overlap

---- Real-time Memory Report at c_bands before calling an iterative solver
          7548 MiB given to the printing process from OS
         -1564 MiB allocation reported by mallinfo(arena+hblkhd)
         52054 MiB available memory on the node where the printing process lives
     GPU memory used/free/total (MiB): 6554 / 9726 / 16280
------------------
     ethr =  2.27E-07,  avg # of iterations =  5.2

     negative rho (up, down):  4.921E-02 4.915E-02

     total cpu time spent up to now is      932.7 secs

     total energy              =   -1741.41209428 Ry
     estimated scf accuracy    <       0.00044505 Ry

     total magnetization       =     6.60 Bohr mag/cell
     absolute magnetization    =     7.19 Bohr mag/cell
[tb_dev] Currently allocated     2.14E+01 Mbytes, locked:    0 /  11
[tb_pin] Currently allocated     0.00E+00 Mbytes, locked:    0 /   0

     iteration # 35     ecut=    90.00 Ry     beta= 0.40
     Davidson diagonalization with overlap

---- Real-time Memory Report at c_bands before calling an iterative solver
          7556 MiB given to the printing process from OS
         -1590 MiB allocation reported by mallinfo(arena+hblkhd)
         52059 MiB available memory on the node where the printing process lives
     GPU memory used/free/total (MiB): 6554 / 9726 / 16280
------------------
     ethr =  2.27E-07,  avg # of iterations =  4.7

     negative rho (up, down):  4.919E-02 4.915E-02

     total cpu time spent up to now is      964.6 secs

     total energy              =   -1741.41466813 Ry
     estimated scf accuracy    <       0.00050634 Ry

     total magnetization       =     5.93 Bohr mag/cell
     absolute magnetization    =     6.51 Bohr mag/cell
[tb_dev] Currently allocated     2.14E+01 Mbytes, locked:    0 /  11
[tb_pin] Currently allocated     0.00E+00 Mbytes, locked:    0 /   0

     iteration # 36     ecut=    90.00 Ry     beta= 0.40
     Davidson diagonalization with overlap

---- Real-time Memory Report at c_bands before calling an iterative solver
          7569 MiB given to the printing process from OS
         -1548 MiB allocation reported by mallinfo(arena+hblkhd)
         52031 MiB available memory on the node where the printing process lives
     GPU memory used/free/total (MiB): 6554 / 9726 / 16280
------------------
     ethr =  2.27E-07,  avg # of iterations =  2.0

     negative rho (up, down):  4.918E-02 4.915E-02

     total cpu time spent up to now is      988.3 secs

     total energy              =   -1741.41477111 Ry
     estimated scf accuracy    <       0.00150951 Ry

     total magnetization       =     5.98 Bohr mag/cell
     absolute magnetization    =     6.56 Bohr mag/cell
[tb_dev] Currently allocated     2.14E+01 Mbytes, locked:    0 /  11
[tb_pin] Currently allocated     0.00E+00 Mbytes, locked:    0 /   0

     iteration # 37     ecut=    90.00 Ry     beta= 0.40
     Davidson diagonalization with overlap

---- Real-time Memory Report at c_bands before calling an iterative solver
          7578 MiB given to the printing process from OS
         -1574 MiB allocation reported by mallinfo(arena+hblkhd)
         52030 MiB available memory on the node where the printing process lives
     GPU memory used/free/total (MiB): 6554 / 9726 / 16280
------------------
     ethr =  2.27E-07,  avg # of iterations =  3.0

     negative rho (up, down):  4.920E-02 4.915E-02

     total cpu time spent up to now is     1015.0 secs

     total energy              =   -1741.41233640 Ry
     estimated scf accuracy    <       0.00110133 Ry

     total magnetization       =     5.61 Bohr mag/cell
     absolute magnetization    =     6.19 Bohr mag/cell
[tb_dev] Currently allocated     2.14E+01 Mbytes, locked:    0 /  11
[tb_pin] Currently allocated     0.00E+00 Mbytes, locked:    0 /   0

     iteration # 38     ecut=    90.00 Ry     beta= 0.40
     Davidson diagonalization with overlap

---- Real-time Memory Report at c_bands before calling an iterative solver
          7586 MiB given to the printing process from OS
         -1532 MiB allocation reported by mallinfo(arena+hblkhd)
         52012 MiB available memory on the node where the printing process lives
     GPU memory used/free/total (MiB): 6554 / 9726 / 16280
------------------
     ethr =  2.27E-07,  avg # of iterations =  3.7

     negative rho (up, down):  4.921E-02 4.915E-02

     total cpu time spent up to now is     1044.8 secs

     total energy              =   -1741.41213547 Ry
     estimated scf accuracy    <       0.00135681 Ry

     total magnetization       =     6.23 Bohr mag/cell
     absolute magnetization    =     6.80 Bohr mag/cell
[tb_dev] Currently allocated     2.14E+01 Mbytes, locked:    0 /  11
[tb_pin] Currently allocated     0.00E+00 Mbytes, locked:    0 /   0

     iteration # 39     ecut=    90.00 Ry     beta= 0.40
     Davidson diagonalization with overlap

---- Real-time Memory Report at c_bands before calling an iterative solver
          7595 MiB given to the printing process from OS
         -1558 MiB allocation reported by mallinfo(arena+hblkhd)
         52026 MiB available memory on the node where the printing process lives
     GPU memory used/free/total (MiB): 6554 / 9726 / 16280
------------------
     ethr =  2.27E-07,  avg # of iterations =  4.6

     negative rho (up, down):  4.921E-02 4.916E-02

     total cpu time spent up to now is     1076.3 secs

     total energy              =   -1741.41192392 Ry
     estimated scf accuracy    <       0.00115233 Ry

     total magnetization       =     6.64 Bohr mag/cell
     absolute magnetization    =     7.23 Bohr mag/cell
[tb_dev] Currently allocated     2.14E+01 Mbytes, locked:    0 /  11
[tb_pin] Currently allocated     0.00E+00 Mbytes, locked:    0 /   0

     iteration # 40     ecut=    90.00 Ry     beta= 0.40
     Davidson diagonalization with overlap

---- Real-time Memory Report at c_bands before calling an iterative solver
          7602 MiB given to the printing process from OS
         -1516 MiB allocation reported by mallinfo(arena+hblkhd)
         51999 MiB available memory on the node where the printing process lives
     GPU memory used/free/total (MiB): 6554 / 9726 / 16280
------------------
     ethr =  2.27E-07,  avg # of iterations =  4.9

     negative rho (up, down):  4.921E-02 4.916E-02

     total cpu time spent up to now is     1108.8 secs

     total energy              =   -1741.41516026 Ry
     estimated scf accuracy    <       0.00049882 Ry

     total magnetization       =     5.92 Bohr mag/cell
     absolute magnetization    =     6.48 Bohr mag/cell
[tb_dev] Currently allocated     2.14E+01 Mbytes, locked:    0 /  11
[tb_pin] Currently allocated     0.00E+00 Mbytes, locked:    0 /   0

     iteration # 41     ecut=    90.00 Ry     beta= 0.40
     Davidson diagonalization with overlap

---- Real-time Memory Report at c_bands before calling an iterative solver
          7610 MiB given to the printing process from OS
         -1542 MiB allocation reported by mallinfo(arena+hblkhd)
         52008 MiB available memory on the node where the printing process lives
     GPU memory used/free/total (MiB): 6554 / 9726 / 16280
------------------
     ethr =  2.27E-07,  avg # of iterations =  2.5

     negative rho (up, down):  4.922E-02 4.916E-02

     total cpu time spent up to now is     1134.4 secs

     total energy              =   -1741.41568723 Ry
     estimated scf accuracy    <       0.00043917 Ry

     total magnetization       =     5.64 Bohr mag/cell
     absolute magnetization    =     6.20 Bohr mag/cell
[tb_dev] Currently allocated     2.14E+01 Mbytes, locked:    0 /  11
[tb_pin] Currently allocated     0.00E+00 Mbytes, locked:    0 /   0

     iteration # 42     ecut=    90.00 Ry     beta= 0.40
     Davidson diagonalization with overlap

---- Real-time Memory Report at c_bands before calling an iterative solver
          7618 MiB given to the printing process from OS
         -1500 MiB allocation reported by mallinfo(arena+hblkhd)
         51984 MiB available memory on the node where the printing process lives
     GPU memory used/free/total (MiB): 6554 / 9726 / 16280
------------------
     ethr =  2.27E-07,  avg # of iterations =  1.7

     negative rho (up, down):  4.922E-02 4.916E-02

     total cpu time spent up to now is     1157.3 secs

     total energy              =   -1741.41577153 Ry
     estimated scf accuracy    <       0.00050796 Ry

     total magnetization       =     5.53 Bohr mag/cell
     absolute magnetization    =     6.09 Bohr mag/cell
[tb_dev] Currently allocated     2.14E+01 Mbytes, locked:    0 /  11
[tb_pin] Currently allocated     0.00E+00 Mbytes, locked:    0 /   0

     iteration # 43     ecut=    90.00 Ry     beta= 0.40
     Davidson diagonalization with overlap

---- Real-time Memory Report at c_bands before calling an iterative solver
          7632 MiB given to the printing process from OS
         -1526 MiB allocation reported by mallinfo(arena+hblkhd)
         51995 MiB available memory on the node where the printing process lives
     GPU memory used/free/total (MiB): 6554 / 9726 / 16280
------------------
     ethr =  2.27E-07,  avg # of iterations =  1.0

     negative rho (up, down):  4.923E-02 4.915E-02

     total cpu time spent up to now is     1178.8 secs

     total energy              =   -1741.41485930 Ry
     estimated scf accuracy    <       0.00050575 Ry

     total magnetization       =     5.52 Bohr mag/cell
     absolute magnetization    =     6.08 Bohr mag/cell
[tb_dev] Currently allocated     2.14E+01 Mbytes, locked:    0 /  11
[tb_pin] Currently allocated     0.00E+00 Mbytes, locked:    0 /   0

     iteration # 44     ecut=    90.00 Ry     beta= 0.40
     Davidson diagonalization with overlap

---- Real-time Memory Report at c_bands before calling an iterative solver
          7641 MiB given to the printing process from OS
         -1484 MiB allocation reported by mallinfo(arena+hblkhd)
         51960 MiB available memory on the node where the printing process lives
     GPU memory used/free/total (MiB): 6554 / 9726 / 16280
------------------
     ethr =  2.27E-07,  avg # of iterations =  2.0

     negative rho (up, down):  4.923E-02 4.915E-02

     total cpu time spent up to now is     1202.7 secs

     total energy              =   -1741.41508766 Ry
     estimated scf accuracy    <       0.00038742 Ry

     total magnetization       =     5.80 Bohr mag/cell
     absolute magnetization    =     6.36 Bohr mag/cell
[tb_dev] Currently allocated     2.14E+01 Mbytes, locked:    0 /  11
[tb_pin] Currently allocated     0.00E+00 Mbytes, locked:    0 /   0

     iteration # 45     ecut=    90.00 Ry     beta= 0.40
     Davidson diagonalization with overlap

---- Real-time Memory Report at c_bands before calling an iterative solver
          7649 MiB given to the printing process from OS
         -1510 MiB allocation reported by mallinfo(arena+hblkhd)
         51979 MiB available memory on the node where the printing process lives
     GPU memory used/free/total (MiB): 6554 / 9726 / 16280
------------------
     ethr =  2.27E-07,  avg # of iterations =  1.1

     negative rho (up, down):  4.923E-02 4.915E-02

     total cpu time spent up to now is     1224.4 secs

     total energy              =   -1741.41504315 Ry
     estimated scf accuracy    <       0.00036340 Ry

     total magnetization       =     5.88 Bohr mag/cell
     absolute magnetization    =     6.44 Bohr mag/cell
[tb_dev] Currently allocated     2.14E+01 Mbytes, locked:    0 /  11
[tb_pin] Currently allocated     0.00E+00 Mbytes, locked:    0 /   0

     iteration # 46     ecut=    90.00 Ry     beta= 0.40
     Davidson diagonalization with overlap

---- Real-time Memory Report at c_bands before calling an iterative solver
          7657 MiB given to the printing process from OS
         -1468 MiB allocation reported by mallinfo(arena+hblkhd)
         51946 MiB available memory on the node where the printing process lives
     GPU memory used/free/total (MiB): 6554 / 9726 / 16280
------------------
     ethr =  2.27E-07,  avg # of iterations =  1.4

     negative rho (up, down):  4.923E-02 4.915E-02

     total cpu time spent up to now is     1246.5 secs

     total energy              =   -1741.41519354 Ry
     estimated scf accuracy    <       0.00037608 Ry

     total magnetization       =     5.92 Bohr mag/cell
     absolute magnetization    =     6.48 Bohr mag/cell
[tb_dev] Currently allocated     2.14E+01 Mbytes, locked:    0 /  11
[tb_pin] Currently allocated     0.00E+00 Mbytes, locked:    0 /   0

     iteration # 47     ecut=    90.00 Ry     beta= 0.40
     Davidson diagonalization with overlap

---- Real-time Memory Report at c_bands before calling an iterative solver
          7664 MiB given to the printing process from OS
         -1494 MiB allocation reported by mallinfo(arena+hblkhd)
         51961 MiB available memory on the node where the printing process lives
     GPU memory used/free/total (MiB): 6554 / 9726 / 16280
------------------
     ethr =  2.27E-07,  avg # of iterations =  1.0

     negative rho (up, down):  4.924E-02 4.914E-02

     total cpu time spent up to now is     1268.0 secs

     total energy              =   -1741.41196971 Ry
     estimated scf accuracy    <       0.00040738 Ry

     total magnetization       =     5.80 Bohr mag/cell
     absolute magnetization    =     6.36 Bohr mag/cell
[tb_dev] Currently allocated     2.14E+01 Mbytes, locked:    0 /  11
[tb_pin] Currently allocated     0.00E+00 Mbytes, locked:    0 /   0

     iteration # 48     ecut=    90.00 Ry     beta= 0.40
     Davidson diagonalization with overlap

---- Real-time Memory Report at c_bands before calling an iterative solver
          7672 MiB given to the printing process from OS
         -1452 MiB allocation reported by mallinfo(arena+hblkhd)
         51930 MiB available memory on the node where the printing process lives
     GPU memory used/free/total (MiB): 6554 / 9726 / 16280
------------------
     ethr =  2.27E-07,  avg # of iterations =  4.4

     negative rho (up, down):  4.923E-02 4.914E-02

     total cpu time spent up to now is     1299.0 secs

     total energy              =   -1741.41430301 Ry
     estimated scf accuracy    <       0.00034548 Ry

     total magnetization       =     6.41 Bohr mag/cell
     absolute magnetization    =     6.99 Bohr mag/cell
[tb_dev] Currently allocated     2.14E+01 Mbytes, locked:    0 /  11
[tb_pin] Currently allocated     0.00E+00 Mbytes, locked:    0 /   0

     iteration # 49     ecut=    90.00 Ry     beta= 0.40
     Davidson diagonalization with overlap

---- Real-time Memory Report at c_bands before calling an iterative solver
          7681 MiB given to the printing process from OS
         -1478 MiB allocation reported by mallinfo(arena+hblkhd)
         51945 MiB available memory on the node where the printing process lives
     GPU memory used/free/total (MiB): 6554 / 9726 / 16280
------------------
     ethr =  2.27E-07,  avg # of iterations =  2.2

     negative rho (up, down):  4.921E-02 4.915E-02

     total cpu time spent up to now is     1323.9 secs

     total energy              =   -1741.41388926 Ry
     estimated scf accuracy    <       0.00045852 Ry

     total magnetization       =     6.19 Bohr mag/cell
     absolute magnetization    =     6.77 Bohr mag/cell
[tb_dev] Currently allocated     2.14E+01 Mbytes, locked:    0 /  11
[tb_pin] Currently allocated     0.00E+00 Mbytes, locked:    0 /   0

     iteration # 50     ecut=    90.00 Ry     beta= 0.40
     Davidson diagonalization with overlap

---- Real-time Memory Report at c_bands before calling an iterative solver
          7683 MiB given to the printing process from OS
         -1436 MiB allocation reported by mallinfo(arena+hblkhd)
         51919 MiB available memory on the node where the printing process lives
     GPU memory used/free/total (MiB): 6554 / 9726 / 16280
------------------
     ethr =  2.27E-07,  avg # of iterations =  4.3

     negative rho (up, down):  4.923E-02 4.915E-02

     total cpu time spent up to now is     1354.8 secs

     total energy              =   -1741.41333722 Ry
     estimated scf accuracy    <       0.00055991 Ry

     total magnetization       =     5.64 Bohr mag/cell
     absolute magnetization    =     6.21 Bohr mag/cell
[tb_dev] Currently allocated     2.14E+01 Mbytes, locked:    0 /  11
[tb_pin] Currently allocated     0.00E+00 Mbytes, locked:    0 /   0

     iteration # 51     ecut=    90.00 Ry     beta= 0.40
     Davidson diagonalization with overlap

---- Real-time Memory Report at c_bands before calling an iterative solver
          7697 MiB given to the printing process from OS
         -1462 MiB allocation reported by mallinfo(arena+hblkhd)
         51903 MiB available memory on the node where the printing process lives
     GPU memory used/free/total (MiB): 6554 / 9726 / 16280
------------------
     ethr =  2.27E-07,  avg # of iterations =  3.2

     negative rho (up, down):  4.923E-02 4.915E-02

     total cpu time spent up to now is     1383.2 secs

     total energy              =   -1741.41478681 Ry
     estimated scf accuracy    <       0.00037501 Ry

     total magnetization       =     6.14 Bohr mag/cell
     absolute magnetization    =     6.70 Bohr mag/cell
[tb_dev] Currently allocated     2.14E+01 Mbytes, locked:    0 /  11
[tb_pin] Currently allocated     0.00E+00 Mbytes, locked:    0 /   0

     iteration # 52     ecut=    90.00 Ry     beta= 0.40
     Davidson diagonalization with overlap

---- Real-time Memory Report at c_bands before calling an iterative solver
          7699 MiB given to the printing process from OS
         -1420 MiB allocation reported by mallinfo(arena+hblkhd)
         51893 MiB available memory on the node where the printing process lives
     GPU memory used/free/total (MiB): 6554 / 9726 / 16280
------------------
     ethr =  2.27E-07,  avg # of iterations =  2.0

     negative rho (up, down):  4.925E-02 4.915E-02

     total cpu time spent up to now is     1406.9 secs

     total energy              =   -1741.40858066 Ry
     estimated scf accuracy    <       0.00037123 Ry

     total magnetization       =     5.87 Bohr mag/cell
     absolute magnetization    =     6.44 Bohr mag/cell
[tb_dev] Currently allocated     2.14E+01 Mbytes, locked:    0 /  11
[tb_pin] Currently allocated     0.00E+00 Mbytes, locked:    0 /   0

     iteration # 53     ecut=    90.00 Ry     beta= 0.40
     Davidson diagonalization with overlap

---- Real-time Memory Report at c_bands before calling an iterative solver
          7712 MiB given to the printing process from OS
         -1446 MiB allocation reported by mallinfo(arena+hblkhd)
         51908 MiB available memory on the node where the printing process lives
     GPU memory used/free/total (MiB): 6554 / 9726 / 16280
------------------
     ethr =  2.27E-07,  avg # of iterations =  5.1

     negative rho (up, down):  4.921E-02 4.916E-02

     total cpu time spent up to now is     1441.1 secs

     total energy              =   -1741.40094599 Ry
     estimated scf accuracy    <       0.00071521 Ry

     total magnetization       =     6.69 Bohr mag/cell
     absolute magnetization    =     7.26 Bohr mag/cell
[tb_dev] Currently allocated     2.14E+01 Mbytes, locked:    0 /  11
[tb_pin] Currently allocated     0.00E+00 Mbytes, locked:    0 /   0

     iteration # 54     ecut=    90.00 Ry     beta= 0.40
     Davidson diagonalization with overlap

---- Real-time Memory Report at c_bands before calling an iterative solver
          7720 MiB given to the printing process from OS
         -1404 MiB allocation reported by mallinfo(arena+hblkhd)
         51878 MiB available memory on the node where the printing process lives
     GPU memory used/free/total (MiB): 6554 / 9726 / 16280
------------------
     ethr =  2.27E-07,  avg # of iterations =  6.5

     negative rho (up, down):  4.924E-02 4.914E-02

     total cpu time spent up to now is     1480.1 secs

     total energy              =   -1741.39418362 Ry
     estimated scf accuracy    <       0.00080797 Ry

     total magnetization       =     5.02 Bohr mag/cell
     absolute magnetization    =     5.56 Bohr mag/cell
[tb_dev] Currently allocated     2.14E+01 Mbytes, locked:    0 /  11
[tb_pin] Currently allocated     0.00E+00 Mbytes, locked:    0 /   0

     iteration # 55     ecut=    90.00 Ry     beta= 0.40
     Davidson diagonalization with overlap

---- Real-time Memory Report at c_bands before calling an iterative solver
          7735 MiB given to the printing process from OS
         -1430 MiB allocation reported by mallinfo(arena+hblkhd)
         51895 MiB available memory on the node where the printing process lives
     GPU memory used/free/total (MiB): 6554 / 9726 / 16280
------------------
     ethr =  2.27E-07,  avg # of iterations =  6.5

     negative rho (up, down):  4.922E-02 4.915E-02

     total cpu time spent up to now is     1519.4 secs

     total energy              =   -1741.41007841 Ry
[...]
     estimated scf accuracy    <       0.00226771 Ry

     total magnetization       =     7.27 Bohr mag/cell
     absolute magnetization    =     7.91 Bohr mag/cell
[tb_dev] Currently allocated     2.14E+01 Mbytes, locked:    0 /  11
[tb_pin] Currently allocated     0.00E+00 Mbytes, locked:    0 /   0

     iteration # 66     ecut=    90.00 Ry     beta= 0.40
     Davidson diagonalization with overlap

---- Real-time Memory Report at c_bands before calling an iterative solver
          7836 MiB given to the printing process from OS
         -1325 MiB allocation reported by mallinfo(arena+hblkhd)
         51792 MiB available memory on the node where the printing process lives
     GPU memory used/free/total (MiB): 6554 / 9726 / 16280
------------------
     ethr =  2.27E-07,  avg # of iterations =  9.5

     negative rho (up, down):  4.919E-02 4.920E-02

     total cpu time spent up to now is     1888.0 secs

     total energy              =   -1741.41859045 Ry
     estimated scf accuracy    <       0.04869738 Ry

     total magnetization       =     2.43 Bohr mag/cell
     absolute magnetization    =     2.80 Bohr mag/cell
[tb_dev] Currently allocated     2.14E+01 Mbytes, locked:    0 /  11
[tb_pin] Currently allocated     0.00E+00 Mbytes, locked:    0 /   0

     iteration # 67     ecut=    90.00 Ry     beta= 0.40
     Davidson diagonalization with overlap

---- Real-time Memory Report at c_bands before calling an iterative solver
          7844 MiB given to the printing process from OS
         -1317 MiB allocation reported by mallinfo(arena+hblkhd)
         51787 MiB available memory on the node where the printing process lives
     GPU memory used/free/total (MiB): 6554 / 9726 / 16280
------------------
     ethr =  2.27E-07,  avg # of iterations =  4.1

     negative rho (up, down):  4.919E-02 4.920E-02

     total cpu time spent up to now is     1919.0 secs

     total energy              =   -1741.42024250 Ry
     estimated scf accuracy    <       0.02736422 Ry

     total magnetization       =     2.91 Bohr mag/cell
     absolute magnetization    =     3.32 Bohr mag/cell
[tb_dev] Currently allocated     2.14E+01 Mbytes, locked:    0 /  11
[tb_pin] Currently allocated     0.00E+00 Mbytes, locked:    0 /   0

     iteration # 68     ecut=    90.00 Ry     beta= 0.40
     Davidson diagonalization with overlap

---- Real-time Memory Report at c_bands before calling an iterative solver
          7852 MiB given to the printing process from OS
         -1309 MiB allocation reported by mallinfo(arena+hblkhd)
         51779 MiB available memory on the node where the printing process lives
     GPU memory used/free/total (MiB): 6554 / 9726 / 16280
------------------
     ethr =  2.27E-07,  avg # of iterations =  1.3

     negative rho (up, down):  4.918E-02 4.920E-02

     total cpu time spent up to now is     1940.9 secs

     total energy              =   -1741.42012024 Ry
     estimated scf accuracy    <       0.02875909 Ry

     total magnetization       =     2.96 Bohr mag/cell
     absolute magnetization    =     3.38 Bohr mag/cell
[tb_dev] Currently allocated     2.14E+01 Mbytes, locked:    0 /  11
[tb_pin] Currently allocated     0.00E+00 Mbytes, locked:    0 /   0

     iteration # 69     ecut=    90.00 Ry     beta= 0.40
     Davidson diagonalization with overlap

---- Real-time Memory Report at c_bands before calling an iterative solver
          7860 MiB given to the printing process from OS
         -1301 MiB allocation reported by mallinfo(arena+hblkhd)
         51769 MiB available memory on the node where the printing process lives
     GPU memory used/free/total (MiB): 6554 / 9726 / 16280
------------------
     ethr =  2.27E-07,  avg # of iterations =  1.0

     negative rho (up, down):  4.918E-02 4.919E-02

     total cpu time spent up to now is     1962.4 secs

     total energy              =   -1741.41865160 Ry
     estimated scf accuracy    <       0.02931495 Ry

     total magnetization       =     3.01 Bohr mag/cell
     absolute magnetization    =     3.43 Bohr mag/cell
[tb_dev] Currently allocated     2.14E+01 Mbytes, locked:    0 /  11
[tb_pin] Currently allocated     0.00E+00 Mbytes, locked:    0 /   0

     iteration # 70     ecut=    90.00 Ry     beta= 0.40
     Davidson diagonalization with overlap

---- Real-time Memory Report at c_bands before calling an iterative solver
          7868 MiB given to the printing process from OS
         -1293 MiB allocation reported by mallinfo(arena+hblkhd)
         51763 MiB available memory on the node where the printing process lives
     GPU memory used/free/total (MiB): 6554 / 9726 / 16280
------------------
     ethr =  2.27E-07,  avg # of iterations =  3.0

     negative rho (up, down):  4.918E-02 4.920E-02

     total cpu time spent up to now is     1989.3 secs

     total energy              =   -1741.41395653 Ry
     estimated scf accuracy    <       0.02854363 Ry

     total magnetization       =     3.38 Bohr mag/cell
     absolute magnetization    =     3.81 Bohr mag/cell
[tb_dev] Currently allocated     2.14E+01 Mbytes, locked:    0 /  11
[tb_pin] Currently allocated     0.00E+00 Mbytes, locked:    0 /   0

     iteration # 71     ecut=    90.00 Ry     beta= 0.40
     Davidson diagonalization with overlap

---- Real-time Memory Report at c_bands before calling an iterative solver
          7875 MiB given to the printing process from OS
         -1285 MiB allocation reported by mallinfo(arena+hblkhd)
         51752 MiB available memory on the node where the printing process lives
     GPU memory used/free/total (MiB): 6554 / 9726 / 16280
------------------
     ethr =  2.27E-07,  avg # of iterations =  5.8

     negative rho (up, down):  4.920E-02 4.919E-02

     total cpu time spent up to now is     2025.1 secs

     total energy              =   -1741.41778600 Ry
     estimated scf accuracy    <       0.05008520 Ry

     total magnetization       =     2.32 Bohr mag/cell
     absolute magnetization    =     2.67 Bohr mag/cell
[tb_dev] Currently allocated     2.14E+01 Mbytes, locked:    0 /  11
[tb_pin] Currently allocated     0.00E+00 Mbytes, locked:    0 /   0

     iteration # 72     ecut=    90.00 Ry     beta= 0.40
     Davidson diagonalization with overlap

---- Real-time Memory Report at c_bands before calling an iterative solver
          7884 MiB given to the printing process from OS
         -1277 MiB allocation reported by mallinfo(arena+hblkhd)
         51746 MiB available memory on the node where the printing process lives
     GPU memory used/free/total (MiB): 6554 / 9726 / 16280
------------------
     ethr =  2.27E-07,  avg # of iterations =  5.0

     negative rho (up, down):  4.927E-02 4.916E-02

     total cpu time spent up to now is     2059.2 secs

     total energy              =   -1741.37017006 Ry
     estimated scf accuracy    <       0.01819658 Ry

     total magnetization       =     2.91 Bohr mag/cell
     absolute magnetization    =     3.32 Bohr mag/cell
[tb_dev] Currently allocated     2.14E+01 Mbytes, locked:    0 /  11
[tb_pin] Currently allocated     0.00E+00 Mbytes, locked:    0 /   0

     iteration # 73     ecut=    90.00 Ry     beta= 0.40
     Davidson diagonalization with overlap

---- Real-time Memory Report at c_bands before calling an iterative solver
          7892 MiB given to the printing process from OS
         -1269 MiB allocation reported by mallinfo(arena+hblkhd)
         51739 MiB available memory on the node where the printing process lives
     GPU memory used/free/total (MiB): 6554 / 9726 / 16280
------------------
     ethr =  2.27E-07,  avg # of iterations =  7.8

     negative rho (up, down):  4.922E-02 4.915E-02

     total cpu time spent up to now is     2106.8 secs

     total energy              =   -1741.41339847 Ry
     estimated scf accuracy    <       0.00889346 Ry

     total magnetization       =     5.82 Bohr mag/cell
     absolute magnetization    =     6.34 Bohr mag/cell
[tb_dev] Currently allocated     2.14E+01 Mbytes, locked:    0 /  11
[tb_pin] Currently allocated     0.00E+00 Mbytes, locked:    0 /   0

     iteration # 74     ecut=    90.00 Ry     beta= 0.40
     Davidson diagonalization with overlap

---- Real-time Memory Report at c_bands before calling an iterative solver
          7900 MiB given to the printing process from OS
         -1261 MiB allocation reported by mallinfo(arena+hblkhd)
         51729 MiB available memory on the node where the printing process lives
     GPU memory used/free/total (MiB): 6554 / 9726 / 16280
------------------
     ethr =  2.27E-07,  avg # of iterations =  4.4

     negative rho (up, down):  4.922E-02 4.915E-02

     total cpu time spent up to now is     2138.9 secs

     total energy              =   -1741.41468697 Ry
     estimated scf accuracy    <       0.00056688 Ry

     total magnetization       =     5.93 Bohr mag/cell
     absolute magnetization    =     6.50 Bohr mag/cell
[tb_dev] Currently allocated     2.14E+01 Mbytes, locked:    0 /  11
[tb_pin] Currently allocated     0.00E+00 Mbytes, locked:    0 /   0

     iteration # 75     ecut=    90.00 Ry     beta= 0.40
     Davidson diagonalization with overlap

---- Real-time Memory Report at c_bands before calling an iterative solver
          7908 MiB given to the printing process from OS
         -1253 MiB allocation reported by mallinfo(arena+hblkhd)
         51723 MiB available memory on the node where the printing process lives
     GPU memory used/free/total (MiB): 6554 / 9726 / 16280
------------------
     ethr =  2.27E-07,  avg # of iterations =  1.6

     negative rho (up, down):  4.923E-02 4.914E-02

     total cpu time spent up to now is     2161.5 secs

     total energy              =   -1741.41339488 Ry
     estimated scf accuracy    <       0.00050443 Ry

     total magnetization       =     6.04 Bohr mag/cell
     absolute magnetization    =     6.61 Bohr mag/cell
[tb_dev] Currently allocated     2.14E+01 Mbytes, locked:    0 /  11
[tb_pin] Currently allocated     0.00E+00 Mbytes, locked:    0 /   0

     iteration # 76     ecut=    90.00 Ry     beta= 0.40
     Davidson diagonalization with overlap

---- Real-time Memory Report at c_bands before calling an iterative solver
          7916 MiB given to the printing process from OS
         -1245 MiB allocation reported by mallinfo(arena+hblkhd)
         51715 MiB available memory on the node where the printing process lives
     GPU memory used/free/total (MiB): 6554 / 9726 / 16280
------------------
     ethr =  2.27E-07,  avg # of iterations =  3.6

     negative rho (up, down):  4.923E-02 4.913E-02

     total cpu time spent up to now is     2190.1 secs

     total energy              =   -1741.41262715 Ry
     estimated scf accuracy    <       0.00070755 Ry

     total magnetization       =     6.39 Bohr mag/cell
     absolute magnetization    =     6.97 Bohr mag/cell
[tb_dev] Currently allocated     2.14E+01 Mbytes, locked:    0 /  11
[tb_pin] Currently allocated     0.00E+00 Mbytes, locked:    0 /   0

     iteration # 77     ecut=    90.00 Ry     beta= 0.40
     Davidson diagonalization with overlap

---- Real-time Memory Report at c_bands before calling an iterative solver
          7924 MiB given to the printing process from OS
         -1237 MiB allocation reported by mallinfo(arena+hblkhd)
         51705 MiB available memory on the node where the printing process lives
     GPU memory used/free/total (MiB): 6554 / 9726 / 16280
------------------
     ethr =  2.27E-07,  avg # of iterations =  4.0

     negative rho (up, down):  4.923E-02 4.914E-02

     total cpu time spent up to now is     2220.4 secs

     total energy              =   -1741.41370701 Ry
     estimated scf accuracy    <       0.00111537 Ry

     total magnetization       =     6.70 Bohr mag/cell
     absolute magnetization    =     7.30 Bohr mag/cell
[tb_dev] Currently allocated     2.14E+01 Mbytes, locked:    0 /  11
[tb_pin] Currently allocated     0.00E+00 Mbytes, locked:    0 /   0

     iteration # 78     ecut=    90.00 Ry     beta= 0.40
     Davidson diagonalization with overlap

---- Real-time Memory Report at c_bands before calling an iterative solver
          7932 MiB given to the printing process from OS
         -1229 MiB allocation reported by mallinfo(arena+hblkhd)
         51699 MiB available memory on the node where the printing process lives
     GPU memory used/free/total (MiB): 6554 / 9726 / 16280
------------------
     ethr =  2.27E-07,  avg # of iterations =  2.0

     negative rho (up, down):  4.922E-02 4.914E-02

     total cpu time spent up to now is     2244.0 secs

     total energy              =   -1741.41397793 Ry
     estimated scf accuracy    <       0.00082795 Ry

     total magnetization       =     6.54 Bohr mag/cell
     absolute magnetization    =     7.13 Bohr mag/cell
[tb_dev] Currently allocated     2.14E+01 Mbytes, locked:    0 /  11
[tb_pin] Currently allocated     0.00E+00 Mbytes, locked:    0 /   0

     iteration # 79     ecut=    90.00 Ry     beta= 0.40
     Davidson diagonalization with overlap

---- Real-time Memory Report at c_bands before calling an iterative solver
          7940 MiB given to the printing process from OS
         -1221 MiB allocation reported by mallinfo(arena+hblkhd)
         51691 MiB available memory on the node where the printing process lives
     GPU memory used/free/total (MiB): 6554 / 9726 / 16280
------------------
     ethr =  2.27E-07,  avg # of iterations =  3.2

     negative rho (up, down):  4.921E-02 4.915E-02

     total cpu time spent up to now is     2270.9 secs

     total energy              =   -1741.41218245 Ry
     estimated scf accuracy    <       0.00063814 Ry

     total magnetization       =     6.30 Bohr mag/cell
     absolute magnetization    =     6.89 Bohr mag/cell
[tb_dev] Currently allocated     2.14E+01 Mbytes, locked:    0 /  11
[tb_pin] Currently allocated     0.00E+00 Mbytes, locked:    0 /   0

     iteration # 80     ecut=    90.00 Ry     beta= 0.40
     Davidson diagonalization with overlap

---- Real-time Memory Report at c_bands before calling an iterative solver
          7949 MiB given to the printing process from OS
         -1213 MiB allocation reported by mallinfo(arena+hblkhd)
         51682 MiB available memory on the node where the printing process lives
     GPU memory used/free/total (MiB): 6554 / 9726 / 16280
------------------
     ethr =  2.27E-07,  avg # of iterations =  5.2

     negative rho (up, down):  4.920E-02 4.917E-02

     total cpu time spent up to now is     2305.1 secs

     total energy              =   -1741.41275745 Ry
     estimated scf accuracy    <       0.00056063 Ry

     total magnetization       =     5.47 Bohr mag/cell
     absolute magnetization    =     6.04 Bohr mag/cell

     End of self-consistent calculation

     convergence NOT achieved after  80 iterations: stopping

     Writing config to output data dir ./out/aiida.save/
 
     init_run     :     59.43s CPU     27.89s WALL (       1 calls)
     electrons    :   3648.87s CPU   2276.45s WALL (       1 calls)

     Called by init_run:
     wfcinit      :     14.83s CPU     19.30s WALL (       1 calls)
                                       19.30s GPU  (       1 calls)
     wfcinit:atom :      0.09s CPU      0.29s WALL (     160 calls)
                                        0.29s GPU  (     160 calls)
     wfcinit:wfcr :      6.88s CPU      7.72s WALL (     160 calls)
                                        7.72s GPU  (     160 calls)
     potinit      :     26.41s CPU      2.42s WALL (       1 calls)
     hinit0       :     10.47s CPU      4.20s WALL (       1 calls)

     Called by electrons:
     c_bands      :   1646.47s CPU   1731.20s WALL (      81 calls)
     sum_band     :    346.18s CPU    360.11s WALL (      81 calls)
     v_of_rho     :     99.38s CPU     13.17s WALL (      81 calls)
     v_h          :     21.55s CPU      2.04s WALL (      81 calls)
     v_xc         :     77.82s CPU     11.13s WALL (      81 calls)
     newd         :    206.50s CPU     47.19s WALL (      81 calls)
                                       47.19s GPU  (      81 calls)
     PAW_pot      :   1201.48s CPU    108.83s WALL (      81 calls)
     mix_rho      :    123.68s CPU     12.19s WALL (      81 calls)

     Called by c_bands:
     init_us_2    :     49.33s CPU     69.21s WALL (   26080 calls)
     init_us_2:gp :     48.79s CPU     68.69s WALL (   26080 calls)
     cegterg      :   1339.71s CPU   1400.31s WALL (   12960 calls)

     Called by sum_band:
     sum_band:wei :      0.96s CPU      0.97s WALL (      81 calls)
                                        0.96s GPU  (      81 calls)
     sum_band:loo :    298.67s CPU    312.44s WALL (      81 calls)
                                      312.44s GPU  (      81 calls)
     sum_band:buf :    125.67s CPU    126.98s WALL (   12960 calls)
                                      126.88s GPU  (   12960 calls)
     sum_band:ini :     24.11s CPU     30.18s WALL (   12960 calls)
                                       30.10s GPU  (   12960 calls)
     sum_band:cal :      0.56s CPU     18.08s WALL (   12960 calls)
                                       14.36s GPU  (   12960 calls)
     sum_band:bec :      4.99s CPU      5.24s WALL (   12960 calls)
                                        5.10s GPU  (   12960 calls)
     addusdens    :     34.71s CPU     34.83s WALL (      81 calls)
                                       34.83s GPU  (      81 calls)
     addusd:skk   :      0.10s CPU      0.10s WALL (     243 calls)
                                        0.10s GPU  (     243 calls)

     Called by *egterg:
     cdiaghg      :    311.30s CPU    353.92s WALL (   55283 calls)
                                      353.53s GPU  (   55283 calls)
     cegterg:over :     41.24s CPU     42.39s WALL (   42483 calls)
     cegterg:upda :     47.81s CPU     49.43s WALL (   42483 calls)
     cegterg:last :     46.90s CPU     47.38s WALL (   28635 calls)
     h_psi        :    797.90s CPU    811.88s WALL (   55603 calls)
                                      809.89s GPU  (   55603 calls)
     s_psi        :     13.70s CPU     57.53s WALL (   55603 calls)
                                       52.98s GPU  (   55603 calls)
     g_psi        :      0.31s CPU      5.17s WALL (   42483 calls)
                                        4.89s GPU  (   42483 calls)

     Called by h_psi:
     h_psi:calbec :      2.00s CPU     46.03s WALL (   55603 calls)
                                       45.66s GPU  (   55603 calls)
     vloc_psi     :    687.19s CPU    698.75s WALL (   55603 calls)
                                      698.40s GPU  (   55603 calls)
     add_vuspsi   :     16.50s CPU     57.27s WALL (   55603 calls)
                                       56.91s GPU  (   55603 calls)

     General routines
     calbec       :      1.91s CPU      1.98s WALL (   68563 calls)
     fft          :      7.08s CPU      1.54s WALL (    2025 calls)
                                        1.08s GPU  (    1863 calls)
     ffts         :      0.21s CPU      0.09s WALL (     324 calls)
                                        0.02s GPU  (     162 calls)
     fftw         :      8.40s CPU    576.08s WALL (  443688 calls)
                                      571.29s GPU  (  443688 calls)
     interpolate  :     20.23s CPU      1.76s WALL (     162 calls)
     davcio       :      0.08s CPU      3.45s WALL (     178 calls)
 
     Parallel routines

     PAW routines
     PAW_pot      :   1201.48s CPU    108.83s WALL (      81 calls)
     PAW_symme    :      0.52s CPU      0.08s WALL (     162 calls)
 
     PWSCF        :      1h 1m CPU  38m29.79s WALL

 
   This run was terminated on:  17:57:59  22Oct2023            

=------------------------------------------------------------------------------=
   JOB DONE.
=------------------------------------------------------------------------------=
