
     Program PWSCF v.7.2 starts on 19Dec2023 at 22:42:35 
        Git branch: develop
        Last git commit: 9055681be6fc8200e6fffe76ed5fda34c2696339
        Last git commit date: Wed Nov 8 16:29:39 2023 +0000
        Last git commit subject: Merge branch 'calbec_fix' into 'develop'

     This program is part of the open-source Quantum ESPRESSO suite
     for quantum simulation of materials; please cite
         "P. Giannozzi et al., J. Phys.:Condens. Matter 21 395502 (2009);
         "P. Giannozzi et al., J. Phys.:Condens. Matter 29 465901 (2017);
         "P. Giannozzi et al., J. Chem. Phys. 152 154105 (2020);
          URL http://www.quantum-espresso.org", 
     in publications or presentations arising from this work. More details at
     http://www.quantum-espresso.org/quote

     Parallel version (MPI), running on    56 processors

     MPI processes distributed on     1 nodes
     489050 MiB available memory on the printing compute node when the environment starts

     Reading input from aiida.in

     Current dimensions of program PWSCF are:
     Max number of different atomic species (ntypx) = 10
     Max number of k-points (npk) =  40000
     Max angular momentum in pseudopotentials (lmaxx) =  4
     file Ba.pbesol-spn-kjpaw_psl.1.0.0.UPF: wavefunction(s)  5S 6S renormalized
     Message from routine setup:
     using ibrav=0 with symmetry is DISCOURAGED, use correct ibrav instead

     K-points division:     npool     =       7
     R & G space division:  proc/nbgrp/npool/nimage =       8
     Subspace diagonalization in iterative solution of the eigenvalue problem:
     a serial algorithm will be used


     Parallelization info
     --------------------
     sticks:   dense  smooth     PW     G-vecs:    dense   smooth      PW
     Min         392     195     58                14508     5128     829
     Max         393     196     59                14511     5130     830
     Sum        3137    1567    469               116073    41035    6635

     Using Slab Decomposition



     bravais-lattice index     =            0
     lattice parameter (alat)  =      12.0811  a.u.
     unit-cell volume          =    1467.1548 (a.u.)^3
     number of atoms/cell      =            8
     number of atomic types    =            2
     number of electrons       =        50.00
     number of Kohn-Sham states=           30
     kinetic-energy cutoff     =      35.0000  Ry
     charge density cutoff     =     280.0000  Ry
     scf convergence threshold =      1.6E-09
     mixing beta               =       0.4000
     number of iterations used =            8  plain     mixing
     Exchange-correlation= SLA  PW   PSX  PSC
                           (   1   4  10   8   0   0   0)

     celldm(1)=  12.081095  celldm(2)=   0.000000  celldm(3)=   0.000000
     celldm(4)=   0.000000  celldm(5)=   0.000000  celldm(6)=   0.000000

     crystal axes: (cart. coord. in units of alat)
               a(1) = (   0.794771   0.606910   0.000000 )  
               a(2) = (  -0.794771   0.606910   0.000000 )  
               a(3) = (  -0.375923   0.000000   0.862504 )  

     reciprocal axes: (cart. coord. in units 2 pi/alat)
               b(1) = (  0.629112  0.823845  0.274199 )  
               b(2) = ( -0.629112  0.823845 -0.274199 )  
               b(3) = (  0.000000 -0.000000  1.159415 )  


     PseudoPot. # 1 for As read from file:
     ./pseudo/As.pbesol-n-rrkjus_psl.0.2.UPF
     MD5 check sum: 1aa86e6aa4f77befd3aa87cac6788838
     Pseudo is Ultrasoft + core correction, Zval =  5.0
     Generated using "atomic" code by A. Dal Corso  v.6.0 svn rev. 13079
     Using radial grid of 1209 points,  4 beta functions with: 
                l(1) =   0
                l(2) =   0
                l(3) =   1
                l(4) =   1
     Q(r) pseudized with 0 coefficients 


     PseudoPot. # 2 for Ba read from file:
     ./pseudo/Ba.pbesol-spn-kjpaw_psl.1.0.0.UPF
     MD5 check sum: f28c4a63d325c1a0d00fd3a4f19b8d73
     Pseudo is Projector augmented-wave + core cor, Zval = 10.0
     Generated using "atomic" code by A. Dal Corso  v.6.0 svn rev. 13079
     Shape of augmentation charge: PSQ
     Using radial grid of 1251 points,  7 beta functions with: 
                l(1) =   0
                l(2) =   0
                l(3) =   0
                l(4) =   1
                l(5) =   1
                l(6) =   2
                l(7) =   2
     Q(r) pseudized with 0 coefficients 


     atomic species   valence    mass     pseudopotential
     As                5.00    74.92160     As( 1.00)
     Ba               10.00   137.32700     Ba( 1.00)

     Starting magnetic structure 
     atomic species   magnetization
     As              0.100
     Ba              0.100

      4 Sym. Ops., with inversion, found


                                    s                        frac. trans.

      isym =  1     identity                                     

 cryst.   s( 1) = (     1          0          0      )
                  (     0          1          0      )
                  (     0          0          1      )

 cart.    s( 1) = (  1.0000000  0.0000000 -0.0000000 )
                  ( -0.0000000  1.0000000 -0.0000000 )
                  (  0.0000000  0.0000000  1.0000000 )


      isym =  2     180 deg rotation - cart. axis [0,1,0]        

 cryst.   s( 2) = (     0          1          0      )
                  (     1          0          0      )
                  (     0          0         -1      )

 cart.    s( 2) = ( -1.0000000  0.0000000  0.0000000 )
                  (  0.0000000  1.0000000  0.0000000 )
                  (  0.0000000  0.0000000 -1.0000000 )


      isym =  3     inversion                                    

 cryst.   s( 3) = (    -1          0          0      )
                  (     0         -1          0      )
                  (     0          0         -1      )

 cart.    s( 3) = ( -1.0000000 -0.0000000  0.0000000 )
                  (  0.0000000 -1.0000000  0.0000000 )
                  (  0.0000000  0.0000000 -1.0000000 )


      isym =  4     inv. 180 deg rotation - cart. axis [0,1,0]   

 cryst.   s( 4) = (     0         -1          0      )
                  (    -1          0          0      )
                  (     0          0          1      )

 cart.    s( 4) = (  1.0000000 -0.0000000 -0.0000000 )
                  ( -0.0000000 -1.0000000 -0.0000000 )
                  (  0.0000000  0.0000000  1.0000000 )


   Cartesian axes

     site n.     atom                  positions (alat units)
         1        Ba     tau(   1) = (   0.2853260   0.6069100   0.5718400  )
         2        Ba     tau(   2) = (   0.9282925   0.6069100   0.2906638  )
         3        As     tau(   3) = (  -0.0866304   0.2842766   0.7042343  )
         4        As     tau(   4) = (  -0.0866304   0.9295434   0.7042343  )
         5        As     tau(   5) = (   1.3002489   0.2842766   0.1582694  )
         6        As     tau(   6) = (   1.3002489   0.9295434   0.1582694  )
         7        As     tau(   7) = (  -0.2928967   0.6069100   0.6873293  )
         8        As     tau(   8) = (   1.5065152   0.6069100   0.1751745  )

   Crystallographic axes

     site n.     atom                  positions (cryst. coord.)
         1        Ba     tau(   1) = (  0.8363000  0.1637000  0.6630000  )
         2        Ba     tau(   2) = (  1.1637000 -0.1637000  0.3370000  )
         3        As     tau(   3) = (  0.3728000  0.0956000  0.8165000  )
         4        As     tau(   4) = (  0.9044000  0.6272000  0.8165000  )
         5        As     tau(   5) = (  1.0956000 -0.6272000  0.1835000  )
         6        As     tau(   6) = (  1.6272000 -0.0956000  0.1835000  )
         7        As     tau(   7) = (  0.5042000  0.4958000  0.7969000  )
         8        As     tau(   8) = (  1.4958000 -0.4958000  0.2031000  )

     number of k points=   150  Marzari-Vanderbilt smearing, width (Ry)=  0.0200
                       cart. coord. in units 2pi/alat
        k(    1) = (   0.0000000   0.0000000   0.0000000), wk =   0.0019531
        k(    2) = (   0.0000000   0.0000000   0.1449269), wk =   0.0039062
        k(    3) = (   0.0000000   0.0000000   0.2898538), wk =   0.0039062
        k(    4) = (   0.0000000   0.0000000   0.4347807), wk =   0.0039062
        k(    5) = (   0.0000000   0.0000000  -0.5797076), wk =   0.0019531
        k(    6) = (  -0.0786390   0.1029807  -0.0342749), wk =   0.0078125
        k(    7) = (  -0.0786390   0.1029807   0.1106520), wk =   0.0078125
        k(    8) = (  -0.0786390   0.1029807   0.2555789), wk =   0.0078125
        k(    9) = (  -0.0786390   0.1029807   0.4005058), wk =   0.0078125
        k(   10) = (  -0.0786390   0.1029807  -0.6139825), wk =   0.0078125
        k(   11) = (  -0.0786390   0.1029807  -0.4690556), wk =   0.0078125
        k(   12) = (  -0.0786390   0.1029807  -0.3241287), wk =   0.0078125
        k(   13) = (  -0.0786390   0.1029807  -0.1792018), wk =   0.0078125
        k(   14) = (  -0.1572781   0.2059613  -0.0685497), wk =   0.0078125
        k(   15) = (  -0.1572781   0.2059613   0.0763772), wk =   0.0078125
        k(   16) = (  -0.1572781   0.2059613   0.2213041), wk =   0.0078125
        k(   17) = (  -0.1572781   0.2059613   0.3662310), wk =   0.0078125
        k(   18) = (  -0.1572781   0.2059613  -0.6482573), wk =   0.0078125
        k(   19) = (  -0.1572781   0.2059613  -0.5033304), wk =   0.0078125
        k(   20) = (  -0.1572781   0.2059613  -0.3584035), wk =   0.0078125
        k(   21) = (  -0.1572781   0.2059613  -0.2134766), wk =   0.0078125
        k(   22) = (  -0.2359171   0.3089420  -0.1028246), wk =   0.0078125
        k(   23) = (  -0.2359171   0.3089420   0.0421023), wk =   0.0078125
        k(   24) = (  -0.2359171   0.3089420   0.1870292), wk =   0.0078125
        k(   25) = (  -0.2359171   0.3089420   0.3319561), wk =   0.0078125
        k(   26) = (  -0.2359171   0.3089420  -0.6825322), wk =   0.0078125
        k(   27) = (  -0.2359171   0.3089420  -0.5376053), wk =   0.0078125
        k(   28) = (  -0.2359171   0.3089420  -0.3926784), wk =   0.0078125
        k(   29) = (  -0.2359171   0.3089420  -0.2477515), wk =   0.0078125
        k(   30) = (   0.3145562  -0.4119227   0.1370994), wk =   0.0039062
        k(   31) = (   0.3145562  -0.4119227   0.2820264), wk =   0.0078125
        k(   32) = (   0.3145562  -0.4119227   0.4269533), wk =   0.0078125
        k(   33) = (   0.3145562  -0.4119227   0.5718802), wk =   0.0078125
        k(   34) = (   0.3145562  -0.4119227  -0.4426082), wk =   0.0039062
        k(   35) = (   0.0000000   0.2059613   0.0000000), wk =   0.0039062
        k(   36) = (   0.0000000   0.2059613   0.1449269), wk =   0.0078125
        k(   37) = (   0.0000000   0.2059613   0.2898538), wk =   0.0078125
        k(   38) = (   0.0000000   0.2059613   0.4347807), wk =   0.0078125
        k(   39) = (   0.0000000   0.2059613  -0.5797076), wk =   0.0039062
        k(   40) = (  -0.0786390   0.3089420  -0.0342749), wk =   0.0078125
        k(   41) = (  -0.0786390   0.3089420   0.1106520), wk =   0.0078125
        k(   42) = (  -0.0786390   0.3089420   0.2555789), wk =   0.0078125
        k(   43) = (  -0.0786390   0.3089420   0.4005058), wk =   0.0078125
        k(   44) = (  -0.0786390   0.3089420  -0.6139825), wk =   0.0078125
        k(   45) = (  -0.0786390   0.3089420  -0.4690556), wk =   0.0078125
        k(   46) = (  -0.0786390   0.3089420  -0.3241287), wk =   0.0078125
        k(   47) = (  -0.0786390   0.3089420  -0.1792018), wk =   0.0078125
        k(   48) = (  -0.1572781   0.4119227  -0.0685497), wk =   0.0078125
        k(   49) = (  -0.1572781   0.4119227   0.0763772), wk =   0.0078125
        k(   50) = (  -0.1572781   0.4119227   0.2213041), wk =   0.0078125
        k(   51) = (  -0.1572781   0.4119227   0.3662310), wk =   0.0078125
        k(   52) = (  -0.1572781   0.4119227  -0.6482573), wk =   0.0078125
        k(   53) = (  -0.1572781   0.4119227  -0.5033304), wk =   0.0078125
        k(   54) = (  -0.1572781   0.4119227  -0.3584035), wk =   0.0078125
        k(   55) = (  -0.1572781   0.4119227  -0.2134766), wk =   0.0078125
        k(   56) = (   0.3931952  -0.3089420   0.1713743), wk =   0.0078125
        k(   57) = (   0.3931952  -0.3089420   0.3163012), wk =   0.0078125
        k(   58) = (   0.3931952  -0.3089420   0.4612281), wk =   0.0078125
        k(   59) = (   0.3931952  -0.3089420   0.6061550), wk =   0.0078125
        k(   60) = (   0.3931952  -0.3089420  -0.4083333), wk =   0.0078125
        k(   61) = (   0.3931952  -0.3089420  -0.2634064), wk =   0.0078125
        k(   62) = (   0.3931952  -0.3089420  -0.1184795), wk =   0.0078125
        k(   63) = (   0.3931952  -0.3089420   0.0264474), wk =   0.0078125
        k(   64) = (   0.3145562  -0.2059613   0.1370994), wk =   0.0078125
        k(   65) = (   0.3145562  -0.2059613   0.2820264), wk =   0.0078125
        k(   66) = (   0.3145562  -0.2059613   0.4269533), wk =   0.0078125
        k(   67) = (   0.3145562  -0.2059613   0.5718802), wk =   0.0078125
        k(   68) = (   0.3145562  -0.2059613  -0.4426082), wk =   0.0078125
        k(   69) = (   0.3145562  -0.2059613  -0.2976813), wk =   0.0078125
        k(   70) = (   0.3145562  -0.2059613  -0.1527544), wk =   0.0078125
        k(   71) = (   0.3145562  -0.2059613  -0.0078275), wk =   0.0078125
        k(   72) = (   0.2359171  -0.1029807   0.1028246), wk =   0.0078125
        k(   73) = (   0.2359171  -0.1029807   0.2477515), wk =   0.0078125
        k(   74) = (   0.2359171  -0.1029807   0.3926784), wk =   0.0078125
        k(   75) = (   0.2359171  -0.1029807   0.5376053), wk =   0.0078125
        k(   76) = (   0.2359171  -0.1029807  -0.4768830), wk =   0.0078125
        k(   77) = (   0.2359171  -0.1029807  -0.3319561), wk =   0.0078125
        k(   78) = (   0.2359171  -0.1029807  -0.1870292), wk =   0.0078125
        k(   79) = (   0.2359171  -0.1029807  -0.0421023), wk =   0.0078125
        k(   80) = (   0.1572781   0.0000000   0.0685497), wk =   0.0039062
        k(   81) = (   0.1572781   0.0000000   0.2134766), wk =   0.0039062
        k(   82) = (   0.1572781   0.0000000   0.3584035), wk =   0.0039062
        k(   83) = (   0.1572781   0.0000000   0.5033304), wk =   0.0039062
        k(   84) = (   0.1572781   0.0000000  -0.5111579), wk =   0.0039062
        k(   85) = (   0.1572781   0.0000000  -0.3662310), wk =   0.0039062
        k(   86) = (   0.1572781   0.0000000  -0.2213041), wk =   0.0039062
        k(   87) = (   0.1572781   0.0000000  -0.0763772), wk =   0.0039062
        k(   88) = (   0.0000000   0.4119227   0.0000000), wk =   0.0039062
        k(   89) = (   0.0000000   0.4119227   0.1449269), wk =   0.0078125
        k(   90) = (   0.0000000   0.4119227   0.2898538), wk =   0.0078125
        k(   91) = (   0.0000000   0.4119227   0.4347807), wk =   0.0078125
        k(   92) = (   0.0000000   0.4119227  -0.5797076), wk =   0.0039062
        k(   93) = (  -0.0786390   0.5149034  -0.0342749), wk =   0.0078125
        k(   94) = (  -0.0786390   0.5149034   0.1106520), wk =   0.0078125
        k(   95) = (  -0.0786390   0.5149034   0.2555789), wk =   0.0078125
        k(   96) = (  -0.0786390   0.5149034   0.4005058), wk =   0.0078125
        k(   97) = (  -0.0786390   0.5149034  -0.6139825), wk =   0.0078125
        k(   98) = (  -0.0786390   0.5149034  -0.4690556), wk =   0.0078125
        k(   99) = (  -0.0786390   0.5149034  -0.3241287), wk =   0.0078125
        k(  100) = (  -0.0786390   0.5149034  -0.1792018), wk =   0.0078125
        k(  101) = (   0.4718343  -0.2059613   0.2056492), wk =   0.0078125
        k(  102) = (   0.4718343  -0.2059613   0.3505761), wk =   0.0078125
        k(  103) = (   0.4718343  -0.2059613   0.4955030), wk =   0.0078125
        k(  104) = (   0.4718343  -0.2059613   0.6404299), wk =   0.0078125
        k(  105) = (   0.4718343  -0.2059613  -0.3740584), wk =   0.0078125
        k(  106) = (   0.4718343  -0.2059613  -0.2291315), wk =   0.0078125
        k(  107) = (   0.4718343  -0.2059613  -0.0842046), wk =   0.0078125
        k(  108) = (   0.4718343  -0.2059613   0.0607223), wk =   0.0078125
        k(  109) = (   0.3931952  -0.1029807   0.1713743), wk =   0.0078125
        k(  110) = (   0.3931952  -0.1029807   0.3163012), wk =   0.0078125
        k(  111) = (   0.3931952  -0.1029807   0.4612281), wk =   0.0078125
        k(  112) = (   0.3931952  -0.1029807   0.6061550), wk =   0.0078125
        k(  113) = (   0.3931952  -0.1029807  -0.4083333), wk =   0.0078125
        k(  114) = (   0.3931952  -0.1029807  -0.2634064), wk =   0.0078125
        k(  115) = (   0.3931952  -0.1029807  -0.1184795), wk =   0.0078125
        k(  116) = (   0.3931952  -0.1029807   0.0264474), wk =   0.0078125
        k(  117) = (   0.3145562   0.0000000   0.1370994), wk =   0.0039062
        k(  118) = (   0.3145562   0.0000000   0.2820264), wk =   0.0039062
        k(  119) = (   0.3145562   0.0000000   0.4269533), wk =   0.0039062
        k(  120) = (   0.3145562   0.0000000   0.5718802), wk =   0.0039062
        k(  121) = (   0.3145562   0.0000000  -0.4426082), wk =   0.0039062
        k(  122) = (   0.3145562   0.0000000  -0.2976813), wk =   0.0039062
        k(  123) = (   0.3145562   0.0000000  -0.1527544), wk =   0.0039062
        k(  124) = (   0.3145562   0.0000000  -0.0078275), wk =   0.0039062
        k(  125) = (   0.0000000   0.6178840   0.0000000), wk =   0.0039062
        k(  126) = (   0.0000000   0.6178840   0.1449269), wk =   0.0078125
        k(  127) = (   0.0000000   0.6178840   0.2898538), wk =   0.0078125
        k(  128) = (   0.0000000   0.6178840   0.4347807), wk =   0.0078125
        k(  129) = (   0.0000000   0.6178840  -0.5797076), wk =   0.0039062
        k(  130) = (   0.5504733  -0.1029807   0.2399240), wk =   0.0078125
        k(  131) = (   0.5504733  -0.1029807   0.3848509), wk =   0.0078125
        k(  132) = (   0.5504733  -0.1029807   0.5297778), wk =   0.0078125
        k(  133) = (   0.5504733  -0.1029807   0.6747047), wk =   0.0078125
        k(  134) = (   0.5504733  -0.1029807  -0.3397836), wk =   0.0078125
        k(  135) = (   0.5504733  -0.1029807  -0.1948567), wk =   0.0078125
        k(  136) = (   0.5504733  -0.1029807  -0.0499298), wk =   0.0078125
        k(  137) = (   0.5504733  -0.1029807   0.0949971), wk =   0.0078125
        k(  138) = (   0.4718343  -0.0000000   0.2056492), wk =   0.0039062
        k(  139) = (   0.4718343  -0.0000000   0.3505761), wk =   0.0039062
        k(  140) = (   0.4718343  -0.0000000   0.4955030), wk =   0.0039062
        k(  141) = (   0.4718343  -0.0000000   0.6404299), wk =   0.0039062
        k(  142) = (   0.4718343  -0.0000000  -0.3740584), wk =   0.0039062
        k(  143) = (   0.4718343  -0.0000000  -0.2291315), wk =   0.0039062
        k(  144) = (   0.4718343  -0.0000000  -0.0842046), wk =   0.0039062
        k(  145) = (   0.4718343  -0.0000000   0.0607223), wk =   0.0039062
        k(  146) = (   0.0000000  -0.8238454   0.0000000), wk =   0.0019531
        k(  147) = (   0.0000000  -0.8238454   0.1449269), wk =   0.0039062
        k(  148) = (   0.0000000  -0.8238454   0.2898538), wk =   0.0039062
        k(  149) = (   0.0000000  -0.8238454   0.4347807), wk =   0.0039062
        k(  150) = (   0.0000000  -0.8238454  -0.5797076), wk =   0.0019531

                       cryst. coord.
        k(    1) = (   0.0000000   0.0000000   0.0000000), wk =   0.0019531
        k(    2) = (   0.0000000   0.0000000   0.1250000), wk =   0.0039062
        k(    3) = (   0.0000000   0.0000000   0.2500000), wk =   0.0039062
        k(    4) = (   0.0000000   0.0000000   0.3750000), wk =   0.0039062
        k(    5) = (   0.0000000   0.0000000  -0.5000000), wk =   0.0019531
        k(    6) = (  -0.0000000   0.1250000   0.0000000), wk =   0.0078125
        k(    7) = (  -0.0000000   0.1250000   0.1250000), wk =   0.0078125
        k(    8) = (  -0.0000000   0.1250000   0.2500000), wk =   0.0078125
        k(    9) = (  -0.0000000   0.1250000   0.3750000), wk =   0.0078125
        k(   10) = (  -0.0000000   0.1250000  -0.5000000), wk =   0.0078125
        k(   11) = (  -0.0000000   0.1250000  -0.3750000), wk =   0.0078125
        k(   12) = (  -0.0000000   0.1250000  -0.2500000), wk =   0.0078125
        k(   13) = (  -0.0000000   0.1250000  -0.1250000), wk =   0.0078125
        k(   14) = (  -0.0000000   0.2500000   0.0000000), wk =   0.0078125
        k(   15) = (  -0.0000000   0.2500000   0.1250000), wk =   0.0078125
        k(   16) = (  -0.0000000   0.2500000   0.2500000), wk =   0.0078125
        k(   17) = (  -0.0000000   0.2500000   0.3750000), wk =   0.0078125
        k(   18) = (  -0.0000000   0.2500000  -0.5000000), wk =   0.0078125
        k(   19) = (  -0.0000000   0.2500000  -0.3750000), wk =   0.0078125
        k(   20) = (  -0.0000000   0.2500000  -0.2500000), wk =   0.0078125
        k(   21) = (  -0.0000000   0.2500000  -0.1250000), wk =   0.0078125
        k(   22) = (  -0.0000000   0.3750000   0.0000000), wk =   0.0078125
        k(   23) = (  -0.0000000   0.3750000   0.1250000), wk =   0.0078125
        k(   24) = (  -0.0000000   0.3750000   0.2500000), wk =   0.0078125
        k(   25) = (  -0.0000000   0.3750000   0.3750000), wk =   0.0078125
        k(   26) = (  -0.0000000   0.3750000  -0.5000000), wk =   0.0078125
        k(   27) = (  -0.0000000   0.3750000  -0.3750000), wk =   0.0078125
        k(   28) = (  -0.0000000   0.3750000  -0.2500000), wk =   0.0078125
        k(   29) = (  -0.0000000   0.3750000  -0.1250000), wk =   0.0078125
        k(   30) = (   0.0000000  -0.5000000  -0.0000000), wk =   0.0039062
        k(   31) = (   0.0000000  -0.5000000   0.1250000), wk =   0.0078125
        k(   32) = (   0.0000000  -0.5000000   0.2500000), wk =   0.0078125
        k(   33) = (   0.0000000  -0.5000000   0.3750000), wk =   0.0078125
        k(   34) = (   0.0000000  -0.5000000  -0.5000000), wk =   0.0039062
        k(   35) = (   0.1250000   0.1250000   0.0000000), wk =   0.0039062
        k(   36) = (   0.1250000   0.1250000   0.1250000), wk =   0.0078125
        k(   37) = (   0.1250000   0.1250000   0.2500000), wk =   0.0078125
        k(   38) = (   0.1250000   0.1250000   0.3750000), wk =   0.0078125
        k(   39) = (   0.1250000   0.1250000  -0.5000000), wk =   0.0039062
        k(   40) = (   0.1250000   0.2500000   0.0000000), wk =   0.0078125
        k(   41) = (   0.1250000   0.2500000   0.1250000), wk =   0.0078125
        k(   42) = (   0.1250000   0.2500000   0.2500000), wk =   0.0078125
        k(   43) = (   0.1250000   0.2500000   0.3750000), wk =   0.0078125
        k(   44) = (   0.1250000   0.2500000  -0.5000000), wk =   0.0078125
        k(   45) = (   0.1250000   0.2500000  -0.3750000), wk =   0.0078125
        k(   46) = (   0.1250000   0.2500000  -0.2500000), wk =   0.0078125
        k(   47) = (   0.1250000   0.2500000  -0.1250000), wk =   0.0078125
        k(   48) = (   0.1250000   0.3750000   0.0000000), wk =   0.0078125
        k(   49) = (   0.1250000   0.3750000   0.1250000), wk =   0.0078125
        k(   50) = (   0.1250000   0.3750000   0.2500000), wk =   0.0078125
        k(   51) = (   0.1250000   0.3750000   0.3750000), wk =   0.0078125
        k(   52) = (   0.1250000   0.3750000  -0.5000000), wk =   0.0078125
        k(   53) = (   0.1250000   0.3750000  -0.3750000), wk =   0.0078125
        k(   54) = (   0.1250000   0.3750000  -0.2500000), wk =   0.0078125
        k(   55) = (   0.1250000   0.3750000  -0.1250000), wk =   0.0078125
        k(   56) = (   0.1250000  -0.5000000  -0.0000000), wk =   0.0078125
        k(   57) = (   0.1250000  -0.5000000   0.1250000), wk =   0.0078125
        k(   58) = (   0.1250000  -0.5000000   0.2500000), wk =   0.0078125
        k(   59) = (   0.1250000  -0.5000000   0.3750000), wk =   0.0078125
        k(   60) = (   0.1250000  -0.5000000  -0.5000000), wk =   0.0078125
        k(   61) = (   0.1250000  -0.5000000  -0.3750000), wk =   0.0078125
        k(   62) = (   0.1250000  -0.5000000  -0.2500000), wk =   0.0078125
        k(   63) = (   0.1250000  -0.5000000  -0.1250000), wk =   0.0078125
        k(   64) = (   0.1250000  -0.3750000  -0.0000000), wk =   0.0078125
        k(   65) = (   0.1250000  -0.3750000   0.1250000), wk =   0.0078125
        k(   66) = (   0.1250000  -0.3750000   0.2500000), wk =   0.0078125
        k(   67) = (   0.1250000  -0.3750000   0.3750000), wk =   0.0078125
        k(   68) = (   0.1250000  -0.3750000  -0.5000000), wk =   0.0078125
        k(   69) = (   0.1250000  -0.3750000  -0.3750000), wk =   0.0078125
        k(   70) = (   0.1250000  -0.3750000  -0.2500000), wk =   0.0078125
        k(   71) = (   0.1250000  -0.3750000  -0.1250000), wk =   0.0078125
        k(   72) = (   0.1250000  -0.2500000  -0.0000000), wk =   0.0078125
        k(   73) = (   0.1250000  -0.2500000   0.1250000), wk =   0.0078125
        k(   74) = (   0.1250000  -0.2500000   0.2500000), wk =   0.0078125
        k(   75) = (   0.1250000  -0.2500000   0.3750000), wk =   0.0078125
        k(   76) = (   0.1250000  -0.2500000  -0.5000000), wk =   0.0078125
        k(   77) = (   0.1250000  -0.2500000  -0.3750000), wk =   0.0078125
        k(   78) = (   0.1250000  -0.2500000  -0.2500000), wk =   0.0078125
        k(   79) = (   0.1250000  -0.2500000  -0.1250000), wk =   0.0078125
        k(   80) = (   0.1250000  -0.1250000  -0.0000000), wk =   0.0039062
        k(   81) = (   0.1250000  -0.1250000   0.1250000), wk =   0.0039062
        k(   82) = (   0.1250000  -0.1250000   0.2500000), wk =   0.0039062
        k(   83) = (   0.1250000  -0.1250000   0.3750000), wk =   0.0039062
        k(   84) = (   0.1250000  -0.1250000  -0.5000000), wk =   0.0039062
        k(   85) = (   0.1250000  -0.1250000  -0.3750000), wk =   0.0039062
        k(   86) = (   0.1250000  -0.1250000  -0.2500000), wk =   0.0039062
        k(   87) = (   0.1250000  -0.1250000  -0.1250000), wk =   0.0039062
        k(   88) = (   0.2500000   0.2500000   0.0000000), wk =   0.0039062
        k(   89) = (   0.2500000   0.2500000   0.1250000), wk =   0.0078125
        k(   90) = (   0.2500000   0.2500000   0.2500000), wk =   0.0078125
        k(   91) = (   0.2500000   0.2500000   0.3750000), wk =   0.0078125
        k(   92) = (   0.2500000   0.2500000  -0.5000000), wk =   0.0039062
        k(   93) = (   0.2500000   0.3750000   0.0000000), wk =   0.0078125
        k(   94) = (   0.2500000   0.3750000   0.1250000), wk =   0.0078125
        k(   95) = (   0.2500000   0.3750000   0.2500000), wk =   0.0078125
        k(   96) = (   0.2500000   0.3750000   0.3750000), wk =   0.0078125
        k(   97) = (   0.2500000   0.3750000  -0.5000000), wk =   0.0078125
        k(   98) = (   0.2500000   0.3750000  -0.3750000), wk =   0.0078125
        k(   99) = (   0.2500000   0.3750000  -0.2500000), wk =   0.0078125
        k(  100) = (   0.2500000   0.3750000  -0.1250000), wk =   0.0078125
        k(  101) = (   0.2500000  -0.5000000  -0.0000000), wk =   0.0078125
        k(  102) = (   0.2500000  -0.5000000   0.1250000), wk =   0.0078125
        k(  103) = (   0.2500000  -0.5000000   0.2500000), wk =   0.0078125
        k(  104) = (   0.2500000  -0.5000000   0.3750000), wk =   0.0078125
        k(  105) = (   0.2500000  -0.5000000  -0.5000000), wk =   0.0078125
        k(  106) = (   0.2500000  -0.5000000  -0.3750000), wk =   0.0078125
        k(  107) = (   0.2500000  -0.5000000  -0.2500000), wk =   0.0078125
        k(  108) = (   0.2500000  -0.5000000  -0.1250000), wk =   0.0078125
        k(  109) = (   0.2500000  -0.3750000  -0.0000000), wk =   0.0078125
        k(  110) = (   0.2500000  -0.3750000   0.1250000), wk =   0.0078125
        k(  111) = (   0.2500000  -0.3750000   0.2500000), wk =   0.0078125
        k(  112) = (   0.2500000  -0.3750000   0.3750000), wk =   0.0078125
        k(  113) = (   0.2500000  -0.3750000  -0.5000000), wk =   0.0078125
        k(  114) = (   0.2500000  -0.3750000  -0.3750000), wk =   0.0078125
        k(  115) = (   0.2500000  -0.3750000  -0.2500000), wk =   0.0078125
        k(  116) = (   0.2500000  -0.3750000  -0.1250000), wk =   0.0078125
        k(  117) = (   0.2500000  -0.2500000  -0.0000000), wk =   0.0039062
        k(  118) = (   0.2500000  -0.2500000   0.1250000), wk =   0.0039062
        k(  119) = (   0.2500000  -0.2500000   0.2500000), wk =   0.0039062
        k(  120) = (   0.2500000  -0.2500000   0.3750000), wk =   0.0039062
        k(  121) = (   0.2500000  -0.2500000  -0.5000000), wk =   0.0039062
        k(  122) = (   0.2500000  -0.2500000  -0.3750000), wk =   0.0039062
        k(  123) = (   0.2500000  -0.2500000  -0.2500000), wk =   0.0039062
        k(  124) = (   0.2500000  -0.2500000  -0.1250000), wk =   0.0039062
        k(  125) = (   0.3750000   0.3750000   0.0000000), wk =   0.0039062
        k(  126) = (   0.3750000   0.3750000   0.1250000), wk =   0.0078125
        k(  127) = (   0.3750000   0.3750000   0.2500000), wk =   0.0078125
        k(  128) = (   0.3750000   0.3750000   0.3750000), wk =   0.0078125
        k(  129) = (   0.3750000   0.3750000  -0.5000000), wk =   0.0039062
        k(  130) = (   0.3750000  -0.5000000  -0.0000000), wk =   0.0078125
        k(  131) = (   0.3750000  -0.5000000   0.1250000), wk =   0.0078125
        k(  132) = (   0.3750000  -0.5000000   0.2500000), wk =   0.0078125
        k(  133) = (   0.3750000  -0.5000000   0.3750000), wk =   0.0078125
        k(  134) = (   0.3750000  -0.5000000  -0.5000000), wk =   0.0078125
        k(  135) = (   0.3750000  -0.5000000  -0.3750000), wk =   0.0078125
        k(  136) = (   0.3750000  -0.5000000  -0.2500000), wk =   0.0078125
        k(  137) = (   0.3750000  -0.5000000  -0.1250000), wk =   0.0078125
        k(  138) = (   0.3750000  -0.3750000  -0.0000000), wk =   0.0039062
        k(  139) = (   0.3750000  -0.3750000   0.1250000), wk =   0.0039062
        k(  140) = (   0.3750000  -0.3750000   0.2500000), wk =   0.0039062
        k(  141) = (   0.3750000  -0.3750000   0.3750000), wk =   0.0039062
        k(  142) = (   0.3750000  -0.3750000  -0.5000000), wk =   0.0039062
        k(  143) = (   0.3750000  -0.3750000  -0.3750000), wk =   0.0039062
        k(  144) = (   0.3750000  -0.3750000  -0.2500000), wk =   0.0039062
        k(  145) = (   0.3750000  -0.3750000  -0.1250000), wk =   0.0039062
        k(  146) = (  -0.5000000  -0.5000000   0.0000000), wk =   0.0019531
        k(  147) = (  -0.5000000  -0.5000000   0.1250000), wk =   0.0039062
        k(  148) = (  -0.5000000  -0.5000000   0.2500000), wk =   0.0039062
        k(  149) = (  -0.5000000  -0.5000000   0.3750000), wk =   0.0039062
        k(  150) = (  -0.5000000  -0.5000000  -0.5000000), wk =   0.0019531

     Dense  grid:   116073 G-vectors     FFT dimensions: (  72,  72,  64)

     Smooth grid:    41035 G-vectors     FFT dimensions: (  45,  45,  45)

     Dynamical RAM for                 wfc:       0.29 MB

     Dynamical RAM for     wfc (w. buffer):      12.91 MB

     Dynamical RAM for           str. fact:       0.44 MB

     Dynamical RAM for           local pot:       0.00 MB

     Dynamical RAM for          nlocal pot:       0.84 MB

     Dynamical RAM for                qrad:       3.58 MB

     Dynamical RAM for          rho,v,vnew:       3.23 MB

     Dynamical RAM for               rhoin:       1.08 MB

     Dynamical RAM for            rho*nmix:       7.08 MB

     Dynamical RAM for           G-vectors:       0.87 MB

     Dynamical RAM for          h,s,v(r/c):       0.16 MB

     Dynamical RAM for          <psi|beta>:       0.04 MB

     Dynamical RAM for                 psi:       0.59 MB

     Dynamical RAM for                hpsi:       0.59 MB

     Dynamical RAM for                spsi:       0.59 MB

     Dynamical RAM for      wfcinit/wfcrot:       0.69 MB

     Dynamical RAM for           addusdens:       7.08 MB

     Dynamical RAM for          addusforce:       7.26 MB

     Dynamical RAM for         addusstress:       7.19 MB

     Estimated static dynamical RAM per process >      25.51 MB

     Estimated max dynamical RAM per process >      39.86 MB

     Estimated total dynamical RAM >       1.85 GB
     Generating pointlists ...
     new r_m :   0.1581 (alat units)  1.9102 (a.u.) for type    1
     new r_m :   0.2103 (alat units)  2.5409 (a.u.) for type    2

     Initial potential from superposition of free atoms

     starting charge      49.9673, renormalised to      50.0000
     Starting wfcs are   34 randomized atomic wfcs
     Checking if some PAW data can be deallocated... 
       PAW data deallocated on   42 nodes for type:  2

     total cpu time spent up to now is        2.7 secs

     per-process dynamical memory:    47.4 Mb

     Self-consistent Calculation

     iteration #  1     ecut=    35.00 Ry     beta= 0.40
     Davidson diagonalization with overlap

---- Real-time Memory Report at c_bands before calling an iterative solver
            81 MiB given to the printing process from OS
            46 MiB allocation reported by mallinfo(arena+hblkhd)
        487002 MiB available memory on the node where the printing process lives
------------------
     ethr =  1.00E-02,  avg # of iterations =  4.7

     negative rho (up, down):  4.052E-01 9.283E-02

     total cpu time spent up to now is        5.3 secs

     total energy              =    -968.78789842 Ry
     estimated scf accuracy    <       2.77615542 Ry

     total magnetization       =     0.09 Bohr mag/cell
     absolute magnetization    =     5.03 Bohr mag/cell

     iteration #  2     ecut=    35.00 Ry     beta= 0.40
     Davidson diagonalization with overlap

---- Real-time Memory Report at c_bands before calling an iterative solver
            97 MiB given to the printing process from OS
            47 MiB allocation reported by mallinfo(arena+hblkhd)
        486353 MiB available memory on the node where the printing process lives
------------------
     ethr =  5.55E-03,  avg # of iterations =  1.0

     negative rho (up, down):  1.050E+00 1.530E-01

     total cpu time spent up to now is        7.1 secs

     total energy              =    -968.74500233 Ry
     estimated scf accuracy    <       2.17597469 Ry

     total magnetization       =     0.10 Bohr mag/cell
     absolute magnetization    =     5.45 Bohr mag/cell

     iteration #  3     ecut=    35.00 Ry     beta= 0.40
     Davidson diagonalization with overlap

---- Real-time Memory Report at c_bands before calling an iterative solver
            98 MiB given to the printing process from OS
            48 MiB allocation reported by mallinfo(arena+hblkhd)
        486344 MiB available memory on the node where the printing process lives
------------------
     ethr =  4.35E-03,  avg # of iterations =  1.5

     negative rho (up, down):  1.177E+00 1.682E-01

     total cpu time spent up to now is        9.0 secs

     total energy              =    -968.80147411 Ry
     estimated scf accuracy    <       0.46524948 Ry

     total magnetization       =     0.06 Bohr mag/cell
     absolute magnetization    =     3.76 Bohr mag/cell

     iteration #  4     ecut=    35.00 Ry     beta= 0.40
     Davidson diagonalization with overlap

---- Real-time Memory Report at c_bands before calling an iterative solver
            98 MiB given to the printing process from OS
            48 MiB allocation reported by mallinfo(arena+hblkhd)
        486331 MiB available memory on the node where the printing process lives
------------------
     ethr =  9.30E-04,  avg # of iterations =  2.7

     negative rho (up, down):  7.060E-01 1.387E-01

     total cpu time spent up to now is       11.4 secs

     total energy              =    -968.81475086 Ry
     estimated scf accuracy    <      12.66208255 Ry

     total magnetization       =     0.03 Bohr mag/cell
     absolute magnetization    =     4.92 Bohr mag/cell

     iteration #  5     ecut=    35.00 Ry     beta= 0.40
     Davidson diagonalization with overlap

---- Real-time Memory Report at c_bands before calling an iterative solver
            99 MiB given to the printing process from OS
            48 MiB allocation reported by mallinfo(arena+hblkhd)
        486325 MiB available memory on the node where the printing process lives
------------------
     ethr =  9.30E-04,  avg # of iterations =  2.5

     negative rho (up, down):  7.800E-01 1.411E-01

     total cpu time spent up to now is       13.7 secs

     total energy              =    -968.90297596 Ry
     estimated scf accuracy    <       5.94333812 Ry

     total magnetization       =     0.05 Bohr mag/cell
     absolute magnetization    =     3.53 Bohr mag/cell

     iteration #  6     ecut=    35.00 Ry     beta= 0.40
     Davidson diagonalization with overlap

---- Real-time Memory Report at c_bands before calling an iterative solver
            99 MiB given to the printing process from OS
            49 MiB allocation reported by mallinfo(arena+hblkhd)
        486317 MiB available memory on the node where the printing process lives
------------------
     ethr =  9.30E-04,  avg # of iterations =  2.4

     negative rho (up, down):  9.275E-01 1.428E-01

     total cpu time spent up to now is       15.8 secs

     total energy              =    -968.89149412 Ry
     estimated scf accuracy    <       8.84868749 Ry

     total magnetization       =     0.04 Bohr mag/cell
     absolute magnetization    =     5.22 Bohr mag/cell

     iteration #  7     ecut=    35.00 Ry     beta= 0.40
     Davidson diagonalization with overlap

---- Real-time Memory Report at c_bands before calling an iterative solver
            99 MiB given to the printing process from OS
            49 MiB allocation reported by mallinfo(arena+hblkhd)
        486303 MiB available memory on the node where the printing process lives
------------------
     ethr =  9.30E-04,  avg # of iterations =  1.5

     negative rho (up, down):  9.259E-01 1.408E-01

     total cpu time spent up to now is       17.6 secs

     total energy              =    -968.90496564 Ry
     estimated scf accuracy    <       8.15688928 Ry

     total magnetization       =     0.03 Bohr mag/cell
     absolute magnetization    =     4.84 Bohr mag/cell

     iteration #  8     ecut=    35.00 Ry     beta= 0.40
     Davidson diagonalization with overlap

---- Real-time Memory Report at c_bands before calling an iterative solver
           100 MiB given to the printing process from OS
            49 MiB allocation reported by mallinfo(arena+hblkhd)
        486300 MiB available memory on the node where the printing process lives
------------------
     ethr =  9.30E-04,  avg # of iterations =  1.0

     negative rho (up, down):  9.584E-01 1.376E-01

     total cpu time spent up to now is       19.4 secs

     total energy              =    -968.95033710 Ry
     estimated scf accuracy    <       8.12045850 Ry

     total magnetization       =     0.03 Bohr mag/cell
     absolute magnetization    =     4.77 Bohr mag/cell

     iteration #  9     ecut=    35.00 Ry     beta= 0.40
     Davidson diagonalization with overlap

---- Real-time Memory Report at c_bands before calling an iterative solver
           100 MiB given to the printing process from OS
            50 MiB allocation reported by mallinfo(arena+hblkhd)
        486294 MiB available memory on the node where the printing process lives
------------------
     ethr =  9.30E-04,  avg # of iterations =  2.0

     negative rho (up, down):  9.576E-01 1.376E-01

     total cpu time spent up to now is       21.4 secs

     total energy              =    -968.96277982 Ry
     estimated scf accuracy    <      11.91203945 Ry

     total magnetization       =     0.03 Bohr mag/cell
     absolute magnetization    =     6.46 Bohr mag/cell

     iteration # 10     ecut=    35.00 Ry     beta= 0.40
     Davidson diagonalization with overlap

---- Real-time Memory Report at c_bands before calling an iterative solver
           101 MiB given to the printing process from OS
            50 MiB allocation reported by mallinfo(arena+hblkhd)
        486281 MiB available memory on the node where the printing process lives
------------------
     ethr =  9.30E-04,  avg # of iterations =  1.0

     negative rho (up, down):  9.473E-01 1.326E-01

     total cpu time spent up to now is       23.1 secs

     total energy              =    -968.95693791 Ry
     estimated scf accuracy    <      12.22480292 Ry

     total magnetization       =     0.03 Bohr mag/cell
     absolute magnetization    =     6.59 Bohr mag/cell

     iteration # 11     ecut=    35.00 Ry     beta= 0.40
     Davidson diagonalization with overlap

---- Real-time Memory Report at c_bands before calling an iterative solver
           101 MiB given to the printing process from OS
            50 MiB allocation reported by mallinfo(arena+hblkhd)
        486280 MiB available memory on the node where the printing process lives
------------------
     ethr =  9.30E-04,  avg # of iterations =  1.0

     negative rho (up, down):  1.305E+00 1.277E-01

     total cpu time spent up to now is       24.9 secs

     total energy              =    -969.00620766 Ry
     estimated scf accuracy    <      12.28439040 Ry

     total magnetization       =     0.03 Bohr mag/cell
     absolute magnetization    =     6.76 Bohr mag/cell

     iteration # 12     ecut=    35.00 Ry     beta= 0.40
     Davidson diagonalization with overlap

---- Real-time Memory Report at c_bands before calling an iterative solver
           101 MiB given to the printing process from OS
            50 MiB allocation reported by mallinfo(arena+hblkhd)
        486280 MiB available memory on the node where the printing process lives
------------------
     ethr =  9.30E-04,  avg # of iterations =  2.8

     negative rho (up, down):  7.310E-01 2.188E-01

     total cpu time spent up to now is       27.3 secs

     total energy              =    -968.46596199 Ry
     estimated scf accuracy    <      31.83690383 Ry

     total magnetization       =     0.02 Bohr mag/cell
     absolute magnetization    =     9.99 Bohr mag/cell

     iteration # 13     ecut=    35.00 Ry     beta= 0.40
     Davidson diagonalization with overlap

---- Real-time Memory Report at c_bands before calling an iterative solver
           101 MiB given to the printing process from OS
            50 MiB allocation reported by mallinfo(arena+hblkhd)
        486273 MiB available memory on the node where the printing process lives
------------------
     ethr =  9.30E-04,  avg # of iterations =  3.4

     negative rho (up, down):  6.637E-01 1.733E-01

     total cpu time spent up to now is       30.0 secs

     total energy              =    -968.85320216 Ry
     estimated scf accuracy    <       1.83125930 Ry

     total magnetization       =     0.02 Bohr mag/cell
     absolute magnetization    =     1.95 Bohr mag/cell

     iteration # 14     ecut=    35.00 Ry     beta= 0.40
     Davidson diagonalization with overlap

---- Real-time Memory Report at c_bands before calling an iterative solver
           101 MiB given to the printing process from OS
            50 MiB allocation reported by mallinfo(arena+hblkhd)
        486270 MiB available memory on the node where the printing process lives
------------------
     ethr =  9.30E-04,  avg # of iterations =  1.3

     negative rho (up, down):  6.673E-01 1.695E-01

     total cpu time spent up to now is       31.8 secs

     total energy              =    -968.85548019 Ry
     estimated scf accuracy    <       2.78227052 Ry

     total magnetization       =     0.03 Bohr mag/cell
     absolute magnetization    =     1.94 Bohr mag/cell

     iteration # 15     ecut=    35.00 Ry     beta= 0.40
     Davidson diagonalization with overlap

---- Real-time Memory Report at c_bands before calling an iterative solver
           101 MiB given to the printing process from OS
            50 MiB allocation reported by mallinfo(arena+hblkhd)
        486267 MiB available memory on the node where the printing process lives
------------------
     ethr =  9.30E-04,  avg # of iterations =  1.2

     negative rho (up, down):  1.209E-01 4.520E-02

     total cpu time spent up to now is       33.6 secs

     total energy              =    -968.80349810 Ry
     estimated scf accuracy    <       2.78778772 Ry

     total magnetization       =     0.03 Bohr mag/cell
     absolute magnetization    =     2.28 Bohr mag/cell

     iteration # 16     ecut=    35.00 Ry     beta= 0.40
     Davidson diagonalization with overlap

---- Real-time Memory Report at c_bands before calling an iterative solver
           101 MiB given to the printing process from OS
            50 MiB allocation reported by mallinfo(arena+hblkhd)
        486264 MiB available memory on the node where the printing process lives
------------------
     ethr =  9.30E-04,  avg # of iterations =  1.8

     negative rho (up, down):  6.810E-02 2.919E-02

     total cpu time spent up to now is       35.6 secs

     total energy              =    -968.82499849 Ry
     estimated scf accuracy    <       0.12788239 Ry

     total magnetization       =     0.04 Bohr mag/cell
     absolute magnetization    =     1.45 Bohr mag/cell

     iteration # 17     ecut=    35.00 Ry     beta= 0.40
     Davidson diagonalization with overlap

---- Real-time Memory Report at c_bands before calling an iterative solver
           101 MiB given to the printing process from OS
            50 MiB allocation reported by mallinfo(arena+hblkhd)
        486264 MiB available memory on the node where the printing process lives
------------------
     ethr =  2.56E-04,  avg # of iterations =  1.4

     negative rho (up, down):  2.014E-01 3.075E-02

     total cpu time spent up to now is       37.5 secs

     total energy              =    -968.82559204 Ry
     estimated scf accuracy    <       0.15096493 Ry

     total magnetization       =     0.03 Bohr mag/cell
     absolute magnetization    =     1.21 Bohr mag/cell

     iteration # 18     ecut=    35.00 Ry     beta= 0.40
     Davidson diagonalization with overlap

---- Real-time Memory Report at c_bands before calling an iterative solver
           101 MiB given to the printing process from OS
            50 MiB allocation reported by mallinfo(arena+hblkhd)
        486256 MiB available memory on the node where the printing process lives
------------------
     ethr =  2.56E-04,  avg # of iterations =  1.1

     negative rho (up, down):  4.082E-01 4.626E-02

     total cpu time spent up to now is       39.3 secs

     total energy              =    -968.81777439 Ry
     estimated scf accuracy    <       0.09986068 Ry

     total magnetization       =     0.02 Bohr mag/cell
     absolute magnetization    =     0.78 Bohr mag/cell

     iteration # 19     ecut=    35.00 Ry     beta= 0.40
     Davidson diagonalization with overlap

---- Real-time Memory Report at c_bands before calling an iterative solver
           101 MiB given to the printing process from OS
            50 MiB allocation reported by mallinfo(arena+hblkhd)
        486254 MiB available memory on the node where the printing process lives
------------------
     ethr =  2.00E-04,  avg # of iterations =  1.5

     negative rho (up, down):  7.349E-01 1.023E-02

     total cpu time spent up to now is       41.2 secs

     total energy              =    -968.82897575 Ry
     estimated scf accuracy    <       0.13588827 Ry

     total magnetization       =     0.02 Bohr mag/cell
     absolute magnetization    =     1.06 Bohr mag/cell

     iteration # 20     ecut=    35.00 Ry     beta= 0.40
     Davidson diagonalization with overlap

---- Real-time Memory Report at c_bands before calling an iterative solver
           101 MiB given to the printing process from OS
            50 MiB allocation reported by mallinfo(arena+hblkhd)
        486254 MiB available memory on the node where the printing process lives
------------------
     ethr =  2.00E-04,  avg # of iterations =  3.5

     negative rho (up, down):  2.322E-01 2.798E-02

     total cpu time spent up to now is       43.9 secs

     total energy              =    -968.76978947 Ry
     estimated scf accuracy    <       5.71772057 Ry

     total magnetization       =     0.01 Bohr mag/cell
     absolute magnetization    =     3.77 Bohr mag/cell

     iteration # 21     ecut=    35.00 Ry     beta= 0.40
     Davidson diagonalization with overlap

---- Real-time Memory Report at c_bands before calling an iterative solver
           101 MiB given to the printing process from OS
            50 MiB allocation reported by mallinfo(arena+hblkhd)
        486250 MiB available memory on the node where the printing process lives
------------------
     ethr =  2.00E-04,  avg # of iterations =  3.4

     negative rho (up, down):  1.478E-01 3.102E-02

     total cpu time spent up to now is       46.5 secs

     total energy              =    -968.82596309 Ry
     estimated scf accuracy    <       0.21311426 Ry

     total magnetization       =     0.01 Bohr mag/cell
     absolute magnetization    =     0.26 Bohr mag/cell

     iteration # 22     ecut=    35.00 Ry     beta= 0.40
     Davidson diagonalization with overlap

---- Real-time Memory Report at c_bands before calling an iterative solver
           101 MiB given to the printing process from OS
            50 MiB allocation reported by mallinfo(arena+hblkhd)
        486250 MiB available memory on the node where the printing process lives
------------------
     ethr =  2.00E-04,  avg # of iterations =  1.0

     negative rho (up, down):  2.106E-01 2.513E-02

     total cpu time spent up to now is       48.2 secs

     total energy              =    -968.82515084 Ry
     estimated scf accuracy    <       0.10671376 Ry

     total magnetization       =     0.02 Bohr mag/cell
     absolute magnetization    =     0.32 Bohr mag/cell

     iteration # 23     ecut=    35.00 Ry     beta= 0.40
     Davidson diagonalization with overlap

---- Real-time Memory Report at c_bands before calling an iterative solver
           101 MiB given to the printing process from OS
            50 MiB allocation reported by mallinfo(arena+hblkhd)
        486248 MiB available memory on the node where the printing process lives
------------------
     ethr =  2.00E-04,  avg # of iterations =  1.0

     negative rho (up, down):  3.550E-01 3.114E-02

     total cpu time spent up to now is       50.0 secs

     total energy              =    -968.82690364 Ry
     estimated scf accuracy    <       0.08308348 Ry

     total magnetization       =     0.02 Bohr mag/cell
     absolute magnetization    =     0.37 Bohr mag/cell

     iteration # 24     ecut=    35.00 Ry     beta= 0.40
     Davidson diagonalization with overlap

---- Real-time Memory Report at c_bands before calling an iterative solver
           101 MiB given to the printing process from OS
            50 MiB allocation reported by mallinfo(arena+hblkhd)
        486248 MiB available memory on the node where the printing process lives
------------------
     ethr =  1.66E-04,  avg # of iterations =  1.1

     negative rho (up, down):  4.874E-01 1.673E-02

     total cpu time spent up to now is       51.8 secs

     total energy              =    -968.84010034 Ry
     estimated scf accuracy    <       0.29441548 Ry

     total magnetization       =     0.02 Bohr mag/cell
     absolute magnetization    =     0.22 Bohr mag/cell

     iteration # 25     ecut=    35.00 Ry     beta= 0.40
     Davidson diagonalization with overlap

---- Real-time Memory Report at c_bands before calling an iterative solver
           102 MiB given to the printing process from OS
            50 MiB allocation reported by mallinfo(arena+hblkhd)
        486248 MiB available memory on the node where the printing process lives
------------------
     ethr =  1.66E-04,  avg # of iterations =  1.8

     negative rho (up, down):  7.183E-02 0.000E+00

     total cpu time spent up to now is       53.8 secs

     total energy              =    -968.82194667 Ry
     estimated scf accuracy    <       1.00279211 Ry

     total magnetization       =     0.02 Bohr mag/cell
     absolute magnetization    =     0.89 Bohr mag/cell

     iteration # 26     ecut=    35.00 Ry     beta= 0.40
     Davidson diagonalization with overlap

---- Real-time Memory Report at c_bands before calling an iterative solver
           102 MiB given to the printing process from OS
            50 MiB allocation reported by mallinfo(arena+hblkhd)
        486249 MiB available memory on the node where the printing process lives
------------------
     ethr =  1.66E-04,  avg # of iterations =  2.3

     negative rho (up, down):  1.039E-01 0.000E+00

     total cpu time spent up to now is       55.9 secs

     total energy              =    -968.82892966 Ry
     estimated scf accuracy    <       0.03821424 Ry

     total magnetization       =     0.00 Bohr mag/cell
     absolute magnetization    =     0.20 Bohr mag/cell

     iteration # 27     ecut=    35.00 Ry     beta= 0.40
     Davidson diagonalization with overlap

---- Real-time Memory Report at c_bands before calling an iterative solver
           102 MiB given to the printing process from OS
            50 MiB allocation reported by mallinfo(arena+hblkhd)
        486248 MiB available memory on the node where the printing process lives
------------------
     ethr =  7.64E-05,  avg # of iterations =  1.2

     negative rho (up, down):  1.341E-01 0.000E+00

     total cpu time spent up to now is       57.8 secs

     total energy              =    -968.83000521 Ry
     estimated scf accuracy    <       0.05831910 Ry

     total magnetization       =     0.00 Bohr mag/cell
     absolute magnetization    =     0.13 Bohr mag/cell

     iteration # 28     ecut=    35.00 Ry     beta= 0.40
     Davidson diagonalization with overlap

---- Real-time Memory Report at c_bands before calling an iterative solver
           102 MiB given to the printing process from OS
            50 MiB allocation reported by mallinfo(arena+hblkhd)
        486248 MiB available memory on the node where the printing process lives
------------------
     ethr =  7.64E-05,  avg # of iterations =  1.0

     negative rho (up, down):  7.607E-02 0.000E+00

     total cpu time spent up to now is       59.5 secs

     total energy              =    -968.82986308 Ry
     estimated scf accuracy    <       0.10363505 Ry

     total magnetization       =    -0.00 Bohr mag/cell
     absolute magnetization    =     0.24 Bohr mag/cell

     iteration # 29     ecut=    35.00 Ry     beta= 0.40
     Davidson diagonalization with overlap

---- Real-time Memory Report at c_bands before calling an iterative solver
           102 MiB given to the printing process from OS
            50 MiB allocation reported by mallinfo(arena+hblkhd)
        486249 MiB available memory on the node where the printing process lives
------------------
     ethr =  7.64E-05,  avg # of iterations =  1.0

     negative rho (up, down):  7.581E-02 0.000E+00

     total cpu time spent up to now is       61.3 secs

     total energy              =    -968.82975951 Ry
     estimated scf accuracy    <       0.04811764 Ry

     total magnetization       =    -0.00 Bohr mag/cell
     absolute magnetization    =     0.19 Bohr mag/cell

     iteration # 30     ecut=    35.00 Ry     beta= 0.40
     Davidson diagonalization with overlap

---- Real-time Memory Report at c_bands before calling an iterative solver
           102 MiB given to the printing process from OS
            50 MiB allocation reported by mallinfo(arena+hblkhd)
        486248 MiB available memory on the node where the printing process lives
------------------
     ethr =  7.64E-05,  avg # of iterations =  1.0

     negative rho (up, down):  7.267E-02 0.000E+00

     total cpu time spent up to now is       63.0 secs

     total energy              =    -968.82966765 Ry
     estimated scf accuracy    <       0.04212107 Ry

     total magnetization       =    -0.00 Bohr mag/cell
     absolute magnetization    =     0.12 Bohr mag/cell

     iteration # 31     ecut=    35.00 Ry     beta= 0.40
     Davidson diagonalization with overlap

---- Real-time Memory Report at c_bands before calling an iterative solver
           102 MiB given to the printing process from OS
            50 MiB allocation reported by mallinfo(arena+hblkhd)
        486240 MiB available memory on the node where the printing process lives
------------------
     ethr =  7.64E-05,  avg # of iterations =  1.0

     negative rho (up, down):  6.106E-02 0.000E+00

     total cpu time spent up to now is       64.8 secs

     total energy              =    -968.82972336 Ry
     estimated scf accuracy    <       0.03438362 Ry

     total magnetization       =     0.00 Bohr mag/cell
     absolute magnetization    =     0.08 Bohr mag/cell

     iteration # 32     ecut=    35.00 Ry     beta= 0.40
     Davidson diagonalization with overlap

---- Real-time Memory Report at c_bands before calling an iterative solver
           102 MiB given to the printing process from OS
            50 MiB allocation reported by mallinfo(arena+hblkhd)
        486239 MiB available memory on the node where the printing process lives
------------------
     ethr =  6.88E-05,  avg # of iterations =  1.0

     negative rho (up, down):  8.802E-02 0.000E+00

     total cpu time spent up to now is       66.5 secs

     total energy              =    -968.82988684 Ry
     estimated scf accuracy    <       0.02751970 Ry

     total magnetization       =     0.00 Bohr mag/cell
     absolute magnetization    =     0.07 Bohr mag/cell

     iteration # 33     ecut=    35.00 Ry     beta= 0.40
     Davidson diagonalization with overlap

---- Real-time Memory Report at c_bands before calling an iterative solver
           102 MiB given to the printing process from OS
            50 MiB allocation reported by mallinfo(arena+hblkhd)
        486238 MiB available memory on the node where the printing process lives
------------------
     ethr =  5.50E-05,  avg # of iterations =  1.1

     negative rho (up, down):  2.819E-02 0.000E+00

     total cpu time spent up to now is       68.3 secs

     total energy              =    -968.82989945 Ry
     estimated scf accuracy    <       0.04229203 Ry

     total magnetization       =    -0.00 Bohr mag/cell
     absolute magnetization    =     0.10 Bohr mag/cell

     iteration # 34     ecut=    35.00 Ry     beta= 0.40
     Davidson diagonalization with overlap

---- Real-time Memory Report at c_bands before calling an iterative solver
           102 MiB given to the printing process from OS
            50 MiB allocation reported by mallinfo(arena+hblkhd)
        486233 MiB available memory on the node where the printing process lives
------------------
     ethr =  5.50E-05,  avg # of iterations =  1.0

     total cpu time spent up to now is       70.1 secs

     total energy              =    -968.82988757 Ry
     estimated scf accuracy    <       0.01451949 Ry

     total magnetization       =    -0.00 Bohr mag/cell
     absolute magnetization    =     0.07 Bohr mag/cell

     iteration # 35     ecut=    35.00 Ry     beta= 0.40
     Davidson diagonalization with overlap

---- Real-time Memory Report at c_bands before calling an iterative solver
           102 MiB given to the printing process from OS
            50 MiB allocation reported by mallinfo(arena+hblkhd)
        486233 MiB available memory on the node where the printing process lives
------------------
     ethr =  2.90E-05,  avg # of iterations =  1.2

     total cpu time spent up to now is       71.9 secs

     total energy              =    -968.82999326 Ry
     estimated scf accuracy    <       0.00037135 Ry

     total magnetization       =    -0.00 Bohr mag/cell
     absolute magnetization    =     0.04 Bohr mag/cell

     iteration # 36     ecut=    35.00 Ry     beta= 0.40
     Davidson diagonalization with overlap

---- Real-time Memory Report at c_bands before calling an iterative solver
           102 MiB given to the printing process from OS
            50 MiB allocation reported by mallinfo(arena+hblkhd)
        486233 MiB available memory on the node where the printing process lives
------------------
     ethr =  7.43E-07,  avg # of iterations =  4.2

     total cpu time spent up to now is       74.4 secs

     total energy              =    -968.83001576 Ry
     estimated scf accuracy    <       0.00018958 Ry

     total magnetization       =     0.00 Bohr mag/cell
     absolute magnetization    =     0.02 Bohr mag/cell

     iteration # 37     ecut=    35.00 Ry     beta= 0.40
     Davidson diagonalization with overlap

---- Real-time Memory Report at c_bands before calling an iterative solver
           102 MiB given to the printing process from OS
            50 MiB allocation reported by mallinfo(arena+hblkhd)
        486231 MiB available memory on the node where the printing process lives
------------------
     ethr =  3.79E-07,  avg # of iterations =  1.0

     total cpu time spent up to now is       76.2 secs

     total energy              =    -968.83001521 Ry
     estimated scf accuracy    <       0.00009895 Ry

     total magnetization       =     0.00 Bohr mag/cell
     absolute magnetization    =     0.01 Bohr mag/cell

     iteration # 38     ecut=    35.00 Ry     beta= 0.40
     Davidson diagonalization with overlap

---- Real-time Memory Report at c_bands before calling an iterative solver
           102 MiB given to the printing process from OS
            50 MiB allocation reported by mallinfo(arena+hblkhd)
        486231 MiB available memory on the node where the printing process lives
------------------
     ethr =  1.98E-07,  avg # of iterations =  1.8

     total cpu time spent up to now is       78.1 secs

     total energy              =    -968.83002369 Ry
     estimated scf accuracy    <       0.00017752 Ry

     total magnetization       =     0.00 Bohr mag/cell
     absolute magnetization    =     0.01 Bohr mag/cell

     iteration # 39     ecut=    35.00 Ry     beta= 0.40
     Davidson diagonalization with overlap

---- Real-time Memory Report at c_bands before calling an iterative solver
           102 MiB given to the printing process from OS
            50 MiB allocation reported by mallinfo(arena+hblkhd)
        486230 MiB available memory on the node where the printing process lives
------------------
     ethr =  1.98E-07,  avg # of iterations =  1.0

     total cpu time spent up to now is       79.9 secs

     total energy              =    -968.83002530 Ry
     estimated scf accuracy    <       0.00004898 Ry

     total magnetization       =     0.00 Bohr mag/cell
     absolute magnetization    =     0.00 Bohr mag/cell

     iteration # 40     ecut=    35.00 Ry     beta= 0.40
     Davidson diagonalization with overlap

---- Real-time Memory Report at c_bands before calling an iterative solver
           102 MiB given to the printing process from OS
            50 MiB allocation reported by mallinfo(arena+hblkhd)
        486234 MiB available memory on the node where the printing process lives
------------------
     ethr =  9.80E-08,  avg # of iterations =  1.0

     total cpu time spent up to now is       81.6 secs

     total energy              =    -968.83002564 Ry
     estimated scf accuracy    <       0.00002007 Ry

     total magnetization       =     0.00 Bohr mag/cell
     absolute magnetization    =     0.00 Bohr mag/cell

     iteration # 41     ecut=    35.00 Ry     beta= 0.40
     Davidson diagonalization with overlap

---- Real-time Memory Report at c_bands before calling an iterative solver
           102 MiB given to the printing process from OS
            50 MiB allocation reported by mallinfo(arena+hblkhd)
        486234 MiB available memory on the node where the printing process lives
------------------
     ethr =  4.01E-08,  avg # of iterations =  1.5

     total cpu time spent up to now is       83.5 secs

     total energy              =    -968.83002555 Ry
     estimated scf accuracy    <       0.00000478 Ry

     total magnetization       =    -0.00 Bohr mag/cell
     absolute magnetization    =     0.00 Bohr mag/cell

     iteration # 42     ecut=    35.00 Ry     beta= 0.40
     Davidson diagonalization with overlap

---- Real-time Memory Report at c_bands before calling an iterative solver
           102 MiB given to the printing process from OS
            50 MiB allocation reported by mallinfo(arena+hblkhd)
        486233 MiB available memory on the node where the printing process lives
------------------
     ethr =  9.55E-09,  avg # of iterations =  2.0

     total cpu time spent up to now is       85.4 secs

     total energy              =    -968.83002607 Ry
     estimated scf accuracy    <       0.00002049 Ry

     total magnetization       =    -0.00 Bohr mag/cell
     absolute magnetization    =     0.00 Bohr mag/cell

     iteration # 43     ecut=    35.00 Ry     beta= 0.40
     Davidson diagonalization with overlap

---- Real-time Memory Report at c_bands before calling an iterative solver
           102 MiB given to the printing process from OS
            50 MiB allocation reported by mallinfo(arena+hblkhd)
        486233 MiB available memory on the node where the printing process lives
------------------
     ethr =  9.55E-09,  avg # of iterations =  1.0

     total cpu time spent up to now is       87.2 secs

     total energy              =    -968.83002537 Ry
     estimated scf accuracy    <       0.00001124 Ry

     total magnetization       =    -0.00 Bohr mag/cell
     absolute magnetization    =     0.00 Bohr mag/cell

     iteration # 44     ecut=    35.00 Ry     beta= 0.40
     Davidson diagonalization with overlap

---- Real-time Memory Report at c_bands before calling an iterative solver
           102 MiB given to the printing process from OS
            50 MiB allocation reported by mallinfo(arena+hblkhd)
        486233 MiB available memory on the node where the printing process lives
------------------
     ethr =  9.55E-09,  avg # of iterations =  2.0

     total cpu time spent up to now is       89.1 secs

     total energy              =    -968.83002608 Ry
     estimated scf accuracy    <       0.00003489 Ry

     total magnetization       =    -0.00 Bohr mag/cell
     absolute magnetization    =     0.00 Bohr mag/cell

     iteration # 45     ecut=    35.00 Ry     beta= 0.40
     Davidson diagonalization with overlap

---- Real-time Memory Report at c_bands before calling an iterative solver
           102 MiB given to the printing process from OS
            50 MiB allocation reported by mallinfo(arena+hblkhd)
        486230 MiB available memory on the node where the printing process lives
------------------
     ethr =  9.55E-09,  avg # of iterations =  2.0

     total cpu time spent up to now is       91.0 secs

     total energy              =    -968.83002631 Ry
     estimated scf accuracy    <       0.00001355 Ry

     total magnetization       =    -0.00 Bohr mag/cell
     absolute magnetization    =     0.00 Bohr mag/cell

     iteration # 46     ecut=    35.00 Ry     beta= 0.40
     Davidson diagonalization with overlap

---- Real-time Memory Report at c_bands before calling an iterative solver
           102 MiB given to the printing process from OS
            50 MiB allocation reported by mallinfo(arena+hblkhd)
        486229 MiB available memory on the node where the printing process lives
------------------
     ethr =  9.55E-09,  avg # of iterations =  1.0

     total cpu time spent up to now is       92.7 secs

     total energy              =    -968.83002636 Ry
     estimated scf accuracy    <       0.00001062 Ry

     total magnetization       =    -0.00 Bohr mag/cell
     absolute magnetization    =     0.00 Bohr mag/cell

     iteration # 47     ecut=    35.00 Ry     beta= 0.40
     Davidson diagonalization with overlap

---- Real-time Memory Report at c_bands before calling an iterative solver
           102 MiB given to the printing process from OS
            50 MiB allocation reported by mallinfo(arena+hblkhd)
        486224 MiB available memory on the node where the printing process lives
------------------
     ethr =  9.55E-09,  avg # of iterations =  1.0

     total cpu time spent up to now is       94.5 secs

     total energy              =    -968.83002641 Ry
     estimated scf accuracy    <       0.00000626 Ry

     total magnetization       =    -0.00 Bohr mag/cell
     absolute magnetization    =     0.00 Bohr mag/cell

     iteration # 48     ecut=    35.00 Ry     beta= 0.40
     Davidson diagonalization with overlap

---- Real-time Memory Report at c_bands before calling an iterative solver
           102 MiB given to the printing process from OS
            50 MiB allocation reported by mallinfo(arena+hblkhd)
        486224 MiB available memory on the node where the printing process lives
------------------
     ethr =  9.55E-09,  avg # of iterations =  1.0

     total cpu time spent up to now is       96.2 secs

     total energy              =    -968.83002644 Ry
     estimated scf accuracy    <       0.00000100 Ry

     total magnetization       =    -0.00 Bohr mag/cell
     absolute magnetization    =     0.00 Bohr mag/cell

     iteration # 49     ecut=    35.00 Ry     beta= 0.40
     Davidson diagonalization with overlap

---- Real-time Memory Report at c_bands before calling an iterative solver
           102 MiB given to the printing process from OS
            50 MiB allocation reported by mallinfo(arena+hblkhd)
        486224 MiB available memory on the node where the printing process lives
------------------
     ethr =  2.00E-09,  avg # of iterations =  2.0

     total cpu time spent up to now is       98.2 secs

     total energy              =    -968.83002649 Ry
     estimated scf accuracy    <       0.00000006 Ry

     total magnetization       =    -0.00 Bohr mag/cell
     absolute magnetization    =     0.00 Bohr mag/cell

     iteration # 50     ecut=    35.00 Ry     beta= 0.40
     Davidson diagonalization with overlap

---- Real-time Memory Report at c_bands before calling an iterative solver
           102 MiB given to the printing process from OS
            50 MiB allocation reported by mallinfo(arena+hblkhd)
        486224 MiB available memory on the node where the printing process lives
------------------
     ethr =  1.29E-10,  avg # of iterations =  2.0

     total cpu time spent up to now is      100.1 secs

     total energy              =    -968.83002649 Ry
     estimated scf accuracy    <       0.00000018 Ry

     total magnetization       =     0.00 Bohr mag/cell
     absolute magnetization    =     0.00 Bohr mag/cell

     iteration # 51     ecut=    35.00 Ry     beta= 0.40
     Davidson diagonalization with overlap

---- Real-time Memory Report at c_bands before calling an iterative solver
           102 MiB given to the printing process from OS
            50 MiB allocation reported by mallinfo(arena+hblkhd)
        486224 MiB available memory on the node where the printing process lives
------------------
     ethr =  1.29E-10,  avg # of iterations =  2.0

     total cpu time spent up to now is      102.1 secs

     total energy              =    -968.83002650 Ry
     estimated scf accuracy    <       0.00000004 Ry

     total magnetization       =     0.00 Bohr mag/cell
     absolute magnetization    =     0.00 Bohr mag/cell

     iteration # 52     ecut=    35.00 Ry     beta= 0.40
     Davidson diagonalization with overlap

---- Real-time Memory Report at c_bands before calling an iterative solver
           102 MiB given to the printing process from OS
            50 MiB allocation reported by mallinfo(arena+hblkhd)
        486224 MiB available memory on the node where the printing process lives
------------------
     ethr =  7.99E-11,  avg # of iterations =  1.5

     total cpu time spent up to now is      103.9 secs

     total energy              =    -968.83002650 Ry
     estimated scf accuracy    <       0.00000001 Ry

     total magnetization       =     0.00 Bohr mag/cell
     absolute magnetization    =     0.00 Bohr mag/cell

     iteration # 53     ecut=    35.00 Ry     beta= 0.40
     Davidson diagonalization with overlap

---- Real-time Memory Report at c_bands before calling an iterative solver
           102 MiB given to the printing process from OS
            50 MiB allocation reported by mallinfo(arena+hblkhd)
        486223 MiB available memory on the node where the printing process lives
------------------
     ethr =  2.57E-11,  avg # of iterations =  1.0

     total cpu time spent up to now is      105.7 secs

     total energy              =    -968.83002650 Ry
     estimated scf accuracy    <          3.2E-09 Ry

     total magnetization       =     0.00 Bohr mag/cell
     absolute magnetization    =     0.00 Bohr mag/cell

     iteration # 54     ecut=    35.00 Ry     beta= 0.40
     Davidson diagonalization with overlap

---- Real-time Memory Report at c_bands before calling an iterative solver
           102 MiB given to the printing process from OS
            50 MiB allocation reported by mallinfo(arena+hblkhd)
        486263 MiB available memory on the node where the printing process lives
------------------
     ethr =  6.33E-12,  avg # of iterations =  1.0

     Magnetic moment per site  (integrated on atomic sphere of radius R)
     atom   1 (R=0.210)  charge=  7.6842  magn=  0.0000
     atom   2 (R=0.210)  charge=  7.6842  magn=  0.0000
     atom   3 (R=0.158)  charge=  2.6651  magn=  0.0000
     atom   4 (R=0.158)  charge=  2.6651  magn=  0.0000
     atom   5 (R=0.158)  charge=  2.6651  magn=  0.0000
     atom   6 (R=0.158)  charge=  2.6651  magn=  0.0000
     atom   7 (R=0.158)  charge=  2.6393  magn=  0.0000
     atom   8 (R=0.158)  charge=  2.6393  magn=  0.0000

     total cpu time spent up to now is      107.5 secs

     End of self-consistent calculation

 ------ SPIN UP ------------


          k = 0.0000 0.0000 0.0000 (  5135 PWs)   bands (ev):

   -20.1314 -20.0812  -6.2595  -5.6263  -5.5766  -5.4657  -5.4102  -5.3381
    -5.2558  -3.9086  -3.6358  -2.8211  -2.2958  -0.0896   2.3102   3.1786
     3.4481   4.0759   4.3162   5.5869   5.5918   6.1494   6.2365   6.8928
     7.8719   8.1235   8.4449   8.7108  10.4404  10.5916

     occupation numbers 
     1.0000   1.0000   1.0000   1.0000   1.0000   1.0000   1.0000   1.0000
     1.0000   1.0000   1.0000   1.0000   1.0000   1.0000   1.0000   1.0000
     1.0000   1.0000   1.0000   1.0000   1.0000   1.0000   1.0000   1.0001
     0.3403   0.0279   0.0001   0.0000   0.0000   0.0000

          k = 0.0000 0.0000 0.1449 (  5131 PWs)   bands (ev):

   -20.1295 -20.0830  -6.2711  -5.6190  -5.5953  -5.4915  -5.3802  -5.3311
    -5.2061  -3.9625  -3.7166  -2.7960  -2.2320  -0.0908   2.4754   3.2075
     3.4742   3.9339   4.3540   5.5289   5.5710   6.1622   6.2006   6.8178
     7.9448   8.0958   8.7877   8.7985   9.9822  10.7238

     occupation numbers 
     1.0000   1.0000   1.0000   1.0000   1.0000   1.0000   1.0000   1.0000
     1.0000   1.0000   1.0000   1.0000   1.0000   1.0000   1.0000   1.0000
     1.0000   1.0000   1.0000   1.0000   1.0000   1.0000   1.0000   1.0000
     0.1937   0.0397   0.0000   0.0000   0.0000   0.0000

          k = 0.0000 0.0000 0.2899 (  5124 PWs)   bands (ev):

   -20.1239 -20.0882  -6.3080  -5.5991  -5.5871  -5.5140  -5.3618  -5.3152
    -5.1084  -4.0826  -3.9128  -2.7341  -2.0859  -0.0975   2.8624   3.3384
     3.5103   3.6277   4.4726   5.3934   5.5915   6.1266   6.1298   6.6785
     8.0701   8.1551   8.9478   9.1288   9.5544  10.0981

     occupation numbers 
     1.0000   1.0000   1.0000   1.0000   1.0000   1.0000   1.0000   1.0000
     1.0000   1.0000   1.0000   1.0000   1.0000   1.0000   1.0000   1.0000
     1.0000   1.0000   1.0000   1.0000   1.0000   1.0000   1.0000   1.0000
     0.0542   0.0182   0.0000   0.0000   0.0000   0.0000

          k = 0.0000 0.0000 0.4348 (  5127 PWs)   bands (ev):

   -20.1158 -20.0959  -6.3522  -5.5827  -5.5758  -5.4755  -5.3405  -5.3009
    -5.0497  -4.1930  -4.1152  -2.6696  -1.9465  -0.1101   3.1329   3.2744
     3.6081   3.6868   4.6755   5.2071   5.7086   6.0278   6.0495   6.5974
     8.0738   8.1117   8.4663   9.0518   9.3844  10.1724

     occupation numbers 
     1.0000   1.0000   1.0000   1.0000   1.0000   1.0000   1.0000   1.0000
     1.0000   1.0000   1.0000   1.0000   1.0000   1.0000   1.0000   1.0000
     1.0000   1.0000   1.0000   1.0000   1.0000   1.0000   1.0000   1.0000
     0.0519   0.0325   0.0001   0.0000   0.0000   0.0000

          k = 0.0000 0.0000-0.5797 (  5144 PWs)   bands (ev):

   -20.1087 -20.1029  -6.3715  -5.5896  -5.5649  -5.4469  -5.3110  -5.2955
    -5.0442  -4.2369  -4.2020  -2.6420  -1.8897  -0.1173   3.1534   3.2052
     3.6266   3.9085   4.9465   4.9620   5.8477   5.9076   6.0385   6.5842
     7.6194   8.0858   8.6955   8.9792   9.1252  10.1243

     occupation numbers 
     1.0000   1.0000   1.0000   1.0000   1.0000   1.0000   1.0000   1.0000
     1.0000   1.0000   1.0000   1.0000   1.0000   1.0000   1.0000   1.0000
     1.0000   1.0000   1.0000   1.0000   1.0000   1.0000   1.0000   1.0000
     0.9650   0.0449   0.0000   0.0000   0.0000   0.0000

          k =-0.0786 0.1030-0.0343 (  5128 PWs)   bands (ev):

   -20.1302 -20.0823  -6.2713  -5.6385  -5.5785  -5.5042  -5.3980  -5.3048
    -5.2238  -4.0258  -3.5750  -2.9171  -2.0821  -0.1029   2.3440   3.1447
     3.4788   4.1119   4.3396   5.3894   5.5770   6.1143   6.1647   6.8468
     7.7201   8.1274   8.5258   8.9811  10.2130  10.4756

     occupation numbers 
     1.0000   1.0000   1.0000   1.0000   1.0000   1.0000   1.0000   1.0000
     1.0000   1.0000   1.0000   1.0000   1.0000   1.0000   1.0000   1.0000
     1.0000   1.0000   1.0000   1.0000   1.0000   1.0000   1.0000   1.0000
     0.7433   0.0265   0.0000   0.0000   0.0000   0.0000

          k =-0.0786 0.1030 0.1107 (  5128 PWs)   bands (ev):

   -20.1295 -20.0829  -6.2748  -5.6285  -5.6019  -5.5284  -5.3588  -5.2726
    -5.2305  -4.0733  -3.6280  -2.8618  -2.0718  -0.1225   2.4348   3.2035
     3.4992   4.1321   4.2326   5.4265   5.5729   6.1296   6.1997   6.8138
     7.7509   8.1984   8.4701   9.0972  10.1025  10.5154

     occupation numbers 
     1.0000   1.0000   1.0000   1.0000   1.0000   1.0000   1.0000   1.0000
     1.0000   1.0000   1.0000   1.0000   1.0000   1.0000   1.0000   1.0000
     1.0000   1.0000   1.0000   1.0000   1.0000   1.0000   1.0000   1.0000
     0.6606   0.0097   0.0001   0.0000   0.0000   0.0000

          k =-0.0786 0.1030 0.2556 (  5137 PWs)   bands (ev):

   -20.1252 -20.0868  -6.2949  -5.6296  -5.6052  -5.5357  -5.3530  -5.2832
    -5.1127  -4.1999  -3.7671  -2.7840  -1.9777  -0.1445   2.7447   3.3178
     3.5271   3.9574   4.2662   5.4538   5.5695   5.9612   6.2117   6.6928
     7.7775   8.4195   8.9287   9.2619   9.4820  10.1463

     occupation numbers 
     1.0000   1.0000   1.0000   1.0000   1.0000   1.0000   1.0000   1.0000
     1.0000   1.0000   1.0000   1.0000   1.0000   1.0000   1.0000   1.0000
     1.0000   1.0000   1.0000   1.0000   1.0000   1.0000   1.0000   1.0000
     0.5870   0.0002   0.0000   0.0000   0.0000   0.0000

          k =-0.0786 0.1030 0.4005 (  5141 PWs)   bands (ev):

   -20.1180 -20.0936  -6.3296  -5.6174  -5.5732  -5.5355  -5.3493  -5.2735
    -5.0368  -4.3337  -3.9113  -2.7231  -1.8535  -0.1623   2.9724   3.4253
     3.5519   3.9116   4.4404   5.3509   5.7042   5.7905   6.1631   6.5872
     7.7460   8.4033   8.7577   9.1919   9.4673   9.7597

     occupation numbers 
     1.0000   1.0000   1.0000   1.0000   1.0000   1.0000   1.0000   1.0000
     1.0000   1.0000   1.0000   1.0000   1.0000   1.0000   1.0000   1.0000
     1.0000   1.0000   1.0000   1.0000   1.0000   1.0000   1.0000   1.0000
[...]
     3.8187   4.3066   4.7094   5.2824   5.4885   5.6759   5.8622   6.6532
     6.7240   7.6505   8.3268   8.6678   8.7980   9.9533

     occupation numbers 
     1.0000   1.0000   1.0000   1.0000   1.0000   1.0000   1.0000   1.0000
     1.0000   1.0000   1.0000   1.0000   1.0000   1.0000   1.0000   1.0000
     1.0000   1.0000   1.0000   1.0000   1.0000   1.0000   1.0000   1.0000
     1.0000   0.9075   0.0011   0.0000   0.0000   0.0000

          k = 0.4718-0.0000 0.4955 (  5125 PWs)   bands (ev):

   -20.1101 -20.1008  -6.1233  -6.0169  -5.8629  -5.4549  -5.2996  -5.2824
    -4.9445  -4.3582  -3.8915  -1.8329  -1.6503  -0.7901   3.0684   3.1918
     3.7362   4.4309   4.7935   5.2556   5.2848   5.4810   6.0021   6.6944
     6.8564   7.6843   8.6160   8.7612   8.9699   9.7972

     occupation numbers 
     1.0000   1.0000   1.0000   1.0000   1.0000   1.0000   1.0000   1.0000
     1.0000   1.0000   1.0000   1.0000   1.0000   1.0000   1.0000   1.0000
     1.0000   1.0000   1.0000   1.0000   1.0000   1.0000   1.0000   1.0000
     1.0001   0.8330   0.0000   0.0000   0.0000   0.0000

          k = 0.4718-0.0000 0.6404 (  5104 PWs)   bands (ev):

   -20.1155 -20.0949  -6.2651  -5.8654  -5.7544  -5.4838  -5.3740  -5.2860
    -4.9844  -4.3028  -3.9447  -1.8254  -1.7591  -0.7617   3.2281   3.4274
     3.5729   4.6335   4.8777   5.1460   5.3365   5.4118   6.0654   6.7222
     6.8180   7.8621   8.8886   8.8902   9.1915   9.6108

     occupation numbers 
     1.0000   1.0000   1.0000   1.0000   1.0000   1.0000   1.0000   1.0000
     1.0000   1.0000   1.0000   1.0000   1.0000   1.0000   1.0000   1.0000
     1.0000   1.0000   1.0000   1.0000   1.0000   1.0000   1.0000   1.0000
     1.0000   0.3637   0.0000   0.0000   0.0000   0.0000

          k = 0.4718-0.0000-0.3741 (  5111 PWs)   bands (ev):

   -20.1203 -20.0901  -6.3511  -5.7240  -5.6347  -5.4992  -5.4750  -5.2760
    -5.0698  -4.2755  -3.9587  -1.8687  -1.8040  -0.7154   3.3712   3.3857
     3.4254   4.7211   4.7422   5.2093   5.6153   5.7207   6.0917   6.3679
     6.9696   8.0332   8.4487   8.9027   9.2152   9.8614

     occupation numbers 
     1.0000   1.0000   1.0000   1.0000   1.0000   1.0000   1.0000   1.0000
     1.0000   1.0000   1.0000   1.0000   1.0000   1.0000   1.0000   1.0000
     1.0000   1.0000   1.0000   1.0000   1.0000   1.0000   1.0000   1.0000
     1.0005   0.0821   0.0001   0.0000   0.0000   0.0000

          k = 0.4718-0.0000-0.2291 (  5122 PWs)   bands (ev):

   -20.1230 -20.0875  -6.3758  -5.6566  -5.6563  -5.4803  -5.4614  -5.2520
    -5.1430  -4.2843  -3.9221  -1.9249  -1.7888  -0.6969   3.2604   3.3651
     3.4525   4.6328   4.6973   4.9845   5.6408   5.9992   6.2254   6.4342
     7.0515   8.0220   8.1361   8.8121   9.3354   9.7264

     occupation numbers 
     1.0000   1.0000   1.0000   1.0000   1.0000   1.0000   1.0000   1.0000
     1.0000   1.0000   1.0000   1.0000   1.0000   1.0000   1.0000   1.0000
     1.0000   1.0000   1.0000   1.0000   1.0000   1.0000   1.0000   1.0000
     1.0021   0.0926   0.0236   0.0000   0.0000   0.0000

          k = 0.4718-0.0000-0.0842 (  5114 PWs)   bands (ev):

   -20.1232 -20.0876  -6.3492  -5.7805  -5.6263  -5.5018  -5.3674  -5.3264
    -5.0444  -4.3324  -3.8556  -1.9003  -1.7756  -0.7318   3.0629   3.4453
     3.5395   4.2405   4.5924   5.1797   5.5729   5.8734   5.9037   6.8303
     6.9781   8.1192   8.4220   8.5727   9.4967   9.7589

     occupation numbers 
     1.0000   1.0000   1.0000   1.0000   1.0000   1.0000   1.0000   1.0000
     1.0000   1.0000   1.0000   1.0000   1.0000   1.0000   1.0000   1.0000
     1.0000   1.0000   1.0000   1.0000   1.0000   1.0000   1.0000   1.0000
     1.0006   0.0295   0.0002   0.0000   0.0000   0.0000

          k = 0.4718-0.0000 0.0607 (  5128 PWs)   bands (ev):

   -20.1209 -20.0904  -6.2926  -5.8816  -5.6439  -5.5398  -5.3510  -5.3001
    -4.9480  -4.4001  -3.8016  -1.8001  -1.7655  -0.7776   2.8184   3.3133
     3.8829   4.0431   4.4342   5.4810   5.4892   5.6312   5.7523   6.8304
     6.9094   8.0144   8.3306   8.8492   9.1818   9.9145

     occupation numbers 
     1.0000   1.0000   1.0000   1.0000   1.0000   1.0000   1.0000   1.0000
     1.0000   1.0000   1.0000   1.0000   1.0000   1.0000   1.0000   1.0000
     1.0000   1.0000   1.0000   1.0000   1.0000   1.0000   1.0000   1.0000
     1.0002   0.1002   0.0011   0.0000   0.0000   0.0000

          k = 0.0000-0.8238 0.0000 (  5114 PWs)   bands (ev):

   -20.1105 -20.1007  -6.1675  -5.9747  -5.8436  -5.5474  -5.2836  -5.2602
    -4.9017  -4.4845  -3.7733  -1.5648  -1.4454  -1.1004   2.6655   2.9941
     4.1053   4.4054   4.6513   5.0121   5.5564   5.7492   5.7679   6.4731
     6.7719   7.6828   7.9646   8.5447   8.9888   9.9327

     occupation numbers 
     1.0000   1.0000   1.0000   1.0000   1.0000   1.0000   1.0000   1.0000
     1.0000   1.0000   1.0000   1.0000   1.0000   1.0000   1.0000   1.0000
     1.0000   1.0000   1.0000   1.0000   1.0000   1.0000   1.0000   1.0000
     1.0000   0.8366   0.1626   0.0000   0.0000   0.0000

          k = 0.0000-0.8238 0.1449 (  5127 PWs)   bands (ev):

   -20.1132 -20.0978  -6.1907  -5.9436  -5.8557  -5.5092  -5.3088  -5.2788
    -4.9045  -4.4547  -3.7936  -1.6132  -1.4972  -1.0539   2.8031   3.0781
     4.0492   4.3692   4.7019   5.0647   5.3859   5.7216   5.7352   6.5287
     6.8424   7.7654   8.1985   8.6431   9.0845   9.9088

     occupation numbers 
     1.0000   1.0000   1.0000   1.0000   1.0000   1.0000   1.0000   1.0000
     1.0000   1.0000   1.0000   1.0000   1.0000   1.0000   1.0000   1.0000
     1.0000   1.0000   1.0000   1.0000   1.0000   1.0000   1.0000   1.0000
     1.0000   0.6205   0.0097   0.0000   0.0000   0.0000

          k = 0.0000-0.8238 0.2899 (  5119 PWs)   bands (ev):

   -20.1173 -20.0933  -6.2673  -5.8559  -5.8086  -5.4987  -5.3360  -5.3186
    -4.9356  -4.3891  -3.8437  -1.7211  -1.5958  -0.9415   3.0805   3.2460
     3.8130   4.4656   4.8024   5.1862   5.2827   5.5786   5.7314   6.6733
     6.8239   7.9364   8.6422   8.7715   9.2678   9.7971

     occupation numbers 
     1.0000   1.0000   1.0000   1.0000   1.0000   1.0000   1.0000   1.0000
     1.0000   1.0000   1.0000   1.0000   1.0000   1.0000   1.0000   1.0000
     1.0000   1.0000   1.0000   1.0000   1.0000   1.0000   1.0000   1.0000
     1.0000   0.2082   0.0000   0.0000   0.0000   0.0000

          k = 0.0000-0.8238 0.4348 (  5112 PWs)   bands (ev):

   -20.1203 -20.0900  -6.3458  -5.7297  -5.7186  -5.5286  -5.4313  -5.2833
    -5.0138  -4.3323  -3.8958  -1.8179  -1.6593  -0.8290   3.2464   3.3670
     3.5324   4.8397   4.8519   5.0975   5.4882   5.6403   5.8695   6.4844
     6.8365   8.0504   8.3928   8.8697   9.3297   9.9364

     occupation numbers 
     1.0000   1.0000   1.0000   1.0000   1.0000   1.0000   1.0000   1.0000
     1.0000   1.0000   1.0000   1.0000   1.0000   1.0000   1.0000   1.0000
     1.0000   1.0000   1.0000   1.0000   1.0000   1.0000   1.0000   1.0000
     1.0000   0.0680   0.0003   0.0000   0.0000   0.0000

          k = 0.0000-0.8238-0.5797 (  5118 PWs)   bands (ev):

   -20.1213 -20.0888  -6.3765  -5.6840  -5.6263  -5.5254  -5.5219  -5.2546
    -5.0756  -4.3112  -3.9178  -1.8551  -1.6755  -0.7826   3.2923   3.4033
     3.4054   4.8401   4.9604   5.3146   5.5362   5.7120   6.0674   6.1551
     6.9183   7.9873   8.0938   8.8902   9.4027   9.7609

     occupation numbers 
     1.0000   1.0000   1.0000   1.0000   1.0000   1.0000   1.0000   1.0000
     1.0000   1.0000   1.0000   1.0000   1.0000   1.0000   1.0000   1.0000
     1.0000   1.0000   1.0000   1.0000   1.0000   1.0000   1.0000   1.0000
     1.0002   0.1314   0.0407   0.0000   0.0000   0.0000

     the Fermi energy is     7.8471 ev

!    total energy              =    -968.83002650 Ry
     estimated scf accuracy    <          5.0E-10 Ry
     smearing contrib. (-TS)   =      -0.00034669 Ry
     internal energy E=F+TS    =    -968.82967981 Ry

     The total energy is F=E-TS. E is the sum of the following terms:
     one-electron contribution =      11.61672341 Ry
     hartree contribution      =      17.85823925 Ry
     xc contribution           =     -95.35010053 Ry
     ewald contribution        =    -165.75253752 Ry
     one-center paw contrib.   =    -737.20200442 Ry
      -> PAW hartree energy AE =      28.77574181 Ry
      -> PAW hartree energy PS =     -28.66338521 Ry
      -> PAW xc energy AE      =    -387.80071152 Ry
      -> PAW xc energy PS      =      19.08735272 Ry
      -> total E_H with PAW    =      17.97059584 Ry
      -> total E_XC with PAW   =    -464.06345933 Ry

     total magnetization       =     0.00 Bohr mag/cell
     absolute magnetization    =     0.00 Bohr mag/cell

     convergence has been achieved in  54 iterations

     Forces acting on atoms (cartesian axes, Ry/au):

     atom    1 type  2   force =    -0.00201153    0.00000000   -0.00003842
     atom    2 type  2   force =     0.00201153   -0.00000000    0.00003842
     atom    3 type  1   force =     0.00053197   -0.00542020   -0.00316448
     atom    4 type  1   force =     0.00053197    0.00542020   -0.00316448
     atom    5 type  1   force =    -0.00053197   -0.00542020    0.00316448
     atom    6 type  1   force =    -0.00053197    0.00542020    0.00316448
     atom    7 type  1   force =    -0.00307234    0.00000000   -0.01083410
     atom    8 type  1   force =     0.00307234   -0.00000000    0.01083410
     The non-local contrib.  to forces
     atom    1 type  2   force =    -0.00087436    0.00000000    0.00095038
     atom    2 type  2   force =     0.00087436   -0.00000000   -0.00095038
     atom    3 type  1   force =     0.01750551    0.17240112    0.15368386
     atom    4 type  1   force =     0.01750551   -0.17240112    0.15368386
     atom    5 type  1   force =    -0.01750551    0.17240112   -0.15368386
     atom    6 type  1   force =    -0.01750551   -0.17240112   -0.15368386
     atom    7 type  1   force =     0.17452990    0.00000000    0.19536501
     atom    8 type  1   force =    -0.17452990   -0.00000000   -0.19536501
     The ionic contribution  to forces
     atom    1 type  2   force =     0.37748462    0.00000000   -0.80076517
     atom    2 type  2   force =    -0.37748462   -0.00000000    0.80076517
     atom    3 type  1   force =    -0.08944633   -0.76604497   -0.64275804
     atom    4 type  1   force =    -0.08944633    0.76604497   -0.64275804
     atom    5 type  1   force =     0.08944633   -0.76604497    0.64275804
     atom    6 type  1   force =     0.08944633    0.76604497    0.64275804
     atom    7 type  1   force =    -0.74922280    0.00000000   -0.65447801
     atom    8 type  1   force =     0.74922280    0.00000000    0.65447801
     The local contribution  to forces
     atom    1 type  2   force =    -0.38031488    0.00000000    0.80141275
     atom    2 type  2   force =     0.38031488   -0.00000000   -0.80141275
     atom    3 type  1   force =     0.07400350    0.59724932    0.49769862
     atom    4 type  1   force =     0.07400350   -0.59724932    0.49769862
     atom    5 type  1   force =    -0.07400350    0.59724932   -0.49769862
     atom    6 type  1   force =    -0.07400350   -0.59724932   -0.49769862
     atom    7 type  1   force =     0.58608115    0.00000000    0.46184739
     atom    8 type  1   force =    -0.58608115    0.00000000   -0.46184739
     The core correction contribution to forces
     atom    1 type  2   force =     0.00169125    0.00000000   -0.00163413
     atom    2 type  2   force =    -0.00169125   -0.00000000    0.00163413
     atom    3 type  1   force =    -0.00153088   -0.00902544   -0.01178916
     atom    4 type  1   force =    -0.00153088    0.00902544   -0.01178916
     atom    5 type  1   force =     0.00153088   -0.00902544    0.01178916
     atom    6 type  1   force =     0.00153088    0.00902544    0.01178916
     atom    7 type  1   force =    -0.01446094    0.00000000   -0.01356827
     atom    8 type  1   force =     0.01446094   -0.00000000    0.01356827
     The Hubbard contrib.    to forces
     atom    1 type  2   force =     0.00000000    0.00000000    0.00000000
     atom    2 type  2   force =     0.00000000    0.00000000    0.00000000
     atom    3 type  1   force =     0.00000000    0.00000000    0.00000000
     atom    4 type  1   force =     0.00000000    0.00000000    0.00000000
     atom    5 type  1   force =     0.00000000    0.00000000    0.00000000
     atom    6 type  1   force =     0.00000000    0.00000000    0.00000000
     atom    7 type  1   force =     0.00000000    0.00000000    0.00000000
     atom    8 type  1   force =     0.00000000    0.00000000    0.00000000
     The SCF correction term to forces
     atom    1 type  2   force =     0.00000184   -0.00000000   -0.00000225
     atom    2 type  2   force =    -0.00000184    0.00000000    0.00000225
     atom    3 type  1   force =     0.00000016   -0.00000022    0.00000025
     atom    4 type  1   force =     0.00000016    0.00000022    0.00000025
     atom    5 type  1   force =    -0.00000016   -0.00000022   -0.00000025
     atom    6 type  1   force =    -0.00000016    0.00000022   -0.00000025
     atom    7 type  1   force =     0.00000034    0.00000000   -0.00000022
     atom    8 type  1   force =    -0.00000034   -0.00000000    0.00000022

     Total force =     0.020504     Total SCF correction =     0.000004


     Computing stress (Cartesian axis) and pressure

          total   stress  (Ry/bohr**3)                   (kbar)     P=       -2.06
  -0.00002415   0.00000000   0.00000672           -3.55        0.00        0.99
   0.00000000  -0.00000853  -0.00000000            0.00       -1.25       -0.00
   0.00000672   0.00000000  -0.00000927            0.99        0.00       -1.36

     kinetic stress (kbar)   4303.26     -0.00    -53.58
                               -0.00   4215.42      0.00
                              -53.58     -0.00   4290.34

     local   stress (kbar)   -222.57      0.00     41.12
                                0.00    207.06      0.00
                               41.12      0.00    539.08

     nonloc. stress (kbar)   2176.71      0.00     -0.19
                               -0.00   2178.86      0.00
                               -0.19     -0.00   2183.00

     hartree stress (kbar)    728.58     -0.00    -27.90
                               -0.00    570.58     -0.00
                              -27.90     -0.00    491.40

     exc-cor stress (kbar)   4554.33     -0.00     -0.31
                               -0.00   4553.31     -0.00
                               -0.31     -0.00   4553.43

     corecor stress (kbar)  -6238.54     -0.00      2.27
                               -0.00  -6234.81      0.00
                                2.27      0.00  -6236.35

     ewald   stress (kbar)  -5305.32      0.00     39.57
                                0.00  -5491.68     -0.00
                               39.57     -0.00  -5822.26

     hubbard stress (kbar)      0.00      0.00      0.00
                                0.00      0.00      0.00
                                0.00      0.00      0.00

     DFT-D   stress (kbar)      0.00      0.00      0.00
                                0.00      0.00      0.00
                                0.00      0.00      0.00

     XDM     stress (kbar)      0.00      0.00      0.00
                                0.00      0.00      0.00
                                0.00      0.00      0.00

     dft-nl  stress (kbar)      0.00      0.00      0.00
                                0.00      0.00      0.00
                                0.00      0.00      0.00

     TS-vdW  stress (kbar)      0.00      0.00      0.00
                                0.00      0.00      0.00
                                0.00      0.00      0.00

     MDB     stress (kbar)      0.00      0.00      0.00
                                0.00      0.00      0.00
                                0.00      0.00      0.00

     3D-RISM stress (kbar)      0.00      0.00      0.00
                                0.00      0.00      0.00
                                0.00      0.00      0.00


     Writing all to output data dir ./out/aiida.save/ :
     XML data file, charge density, pseudopotentials, collected wavefunctions

     init_run     :      1.75s CPU      2.00s WALL (       1 calls)
     electrons    :     99.90s CPU    104.80s WALL (       1 calls)
     forces       :      0.24s CPU      0.24s WALL (       1 calls)
     stress       :      1.87s CPU      1.88s WALL (       1 calls)

     Called by init_run:
     wfcinit      :      0.69s CPU      0.91s WALL (       1 calls)
     wfcinit:atom :      0.01s CPU      0.01s WALL (      43 calls)
     wfcinit:wfcr :      0.62s CPU      0.83s WALL (      43 calls)
     potinit      :      0.29s CPU      0.32s WALL (       1 calls)
     hinit0       :      0.59s CPU      0.60s WALL (       1 calls)

     Called by electrons:
     c_bands      :     75.11s CPU     78.19s WALL (      54 calls)
     sum_band     :     15.10s CPU     15.63s WALL (      54 calls)
     v_of_rho     :      2.62s CPU      2.72s WALL (      55 calls)
     v_h          :      0.08s CPU      0.08s WALL (      55 calls)
     v_xc         :      2.63s CPU      2.73s WALL (      57 calls)
     newd         :      0.64s CPU      0.74s WALL (      55 calls)
     PAW_pot      :      5.77s CPU      6.76s WALL (      55 calls)
     mix_rho      :      0.34s CPU      0.36s WALL (      54 calls)

     Called by c_bands:
     init_us_2    :      1.39s CPU      1.45s WALL (    4773 calls)
     init_us_2:cp :      1.38s CPU      1.43s WALL (    4773 calls)
     cegterg      :     69.23s CPU     71.21s WALL (    2322 calls)

     Called by sum_band:
     sum_band:wei :      0.11s CPU      0.12s WALL (      54 calls)
     sum_band:loo :     12.93s CPU     13.38s WALL (      54 calls)
     sum_band:buf :      0.15s CPU      0.15s WALL (    2322 calls)
     sum_band:ini :      0.64s CPU      0.65s WALL (    2322 calls)
     sum_band:cal :      1.28s CPU      1.32s WALL (    2322 calls)
     sum_band:bec :      0.04s CPU      0.04s WALL (    2322 calls)
     addusdens    :      0.96s CPU      0.96s WALL (      54 calls)
                                        0.00s GPU  (      54 calls)
     addusd:skk   :      0.01s CPU      0.01s WALL (     108 calls)
                                        0.00s GPU  (     108 calls)

     Called by *egterg:
     cdiaghg      :      6.53s CPU      6.77s WALL (    6805 calls)
     cegterg:over :      2.28s CPU      2.34s WALL (    4483 calls)
     cegterg:upda :      1.21s CPU      1.23s WALL (    4483 calls)
     cegterg:last :      2.13s CPU      2.15s WALL (    3523 calls)
     h_psi        :     53.31s CPU     55.06s WALL (    6848 calls)
     s_psi        :      2.54s CPU      2.59s WALL (    6848 calls)
     g_psi        :      0.16s CPU      0.16s WALL (    4483 calls)

     Called by h_psi:
     h_psi:calbec :      3.26s CPU      3.39s WALL (    6848 calls)
     vloc_psi     :     47.10s CPU     48.62s WALL (    6848 calls)
     add_vuspsi   :      2.60s CPU      2.67s WALL (    6848 calls)

     General routines
     calbec       :      4.66s CPU      4.84s WALL (    9385 calls)
     fft          :      1.35s CPU      1.47s WALL (    1413 calls)
     ffts         :      0.22s CPU      0.23s WALL (     218 calls)
     fftw         :     48.52s CPU     49.96s WALL (  373912 calls)
     interpolate  :      0.24s CPU      0.24s WALL (     110 calls)

     Parallel routines

     PAW routines
     PAW_pot      :      5.77s CPU      6.76s WALL (      55 calls)
     PAW_symme    :      0.02s CPU      0.02s WALL (     109 calls)

     PWSCF        :   1m44.15s CPU   1m50.09s WALL


   This run was terminated on:  22:44:25  19Dec2023            

=------------------------------------------------------------------------------=
   JOB DONE.
=------------------------------------------------------------------------------=
