
     Program PWSCF v.7.2 starts on 22Oct2023 at 17:17: 2 

     This program is part of the open-source Quantum ESPRESSO suite
     for quantum simulation of materials; please cite
         "P. Giannozzi et al., J. Phys.:Condens. Matter 21 395502 (2009);
         "P. Giannozzi et al., J. Phys.:Condens. Matter 29 465901 (2017);
         "P. Giannozzi et al., J. Chem. Phys. 152 154105 (2020);
          URL http://www.quantum-espresso.org", 
     in publications or presentations arising from this work. More details at
     http://www.quantum-espresso.org/quote

     Parallel version (MPI & OpenMP), running on      12 processor cores
     Number of MPI processes:                 1
     Threads/MPI process:                    12

     MPI processes distributed on     1 nodes
     60345 MiB available memory on the printing compute node when the environment starts
 
     Reading input from aiida.in

     Current dimensions of program PWSCF are:
     Max number of different atomic species (ntypx) = 10
     Max number of k-points (npk) =  40000
     Max angular momentum in pseudopotentials (lmaxx) =  4
     file Fe.pbesol-spn-kjpaw_psl.0.2.1.UPF: wavefunction(s)  3D renormalized
     Message from routine setup:
     using ibrav=0 with symmetry is DISCOURAGED, use correct ibrav instead
 
     Subspace diagonalization in iterative solution of the eigenvalue problem:
     a serial algorithm will be used

 
     G-vector sticks info
     --------------------
     sticks:   dense  smooth     PW     G-vecs:    dense   smooth      PW
     Sum        7163    2385    691               390693    75123   11649
 
     Using Slab Decomposition
 


     bravais-lattice index     =            0
     lattice parameter (alat)  =       9.9588  a.u.
     unit-cell volume          =     651.7263 (a.u.)^3
     number of atoms/cell      =            8
     number of atomic types    =            3
     number of electrons       =        76.00
     number of Kohn-Sham states=           46
     kinetic-energy cutoff     =      90.0000  Ry
     charge density cutoff     =    1080.0000  Ry
     scf convergence threshold =      1.6E-09
     mixing beta               =       0.4000
     number of iterations used =            8  plain     mixing
     Exchange-correlation= SLA  PW   PSX  PSC
                           (   1   4  10   8   0   0   0)

     GPU acceleration is ACTIVE.


     GPU used by master process:

        Device Number: 0
        Device name: Tesla P100-PCIE-16GB
        Compute capability : 60
        Ratio of single to double precision performance  : 2
        Memory Clock Rate (KHz): 715000
        Memory Bus Width (bits): 4096
        Peak Memory Bandwidth (GB/s): 732.16

     celldm(1)=   9.958819  celldm(2)=   0.000000  celldm(3)=   0.000000
     celldm(4)=   0.000000  celldm(5)=   0.000000  celldm(6)=   0.000000

     crystal axes: (cart. coord. in units of alat)
               a(1) = (   0.477924   0.275930   0.833937 )  
               a(2) = (  -0.477924   0.275930   0.833937 )  
               a(3) = (  -0.000000  -0.551859   0.833937 )  

     reciprocal axes: (cart. coord. in units 2 pi/alat)
               b(1) = (  1.046191  0.604019  0.399710 )  
               b(2) = ( -1.046191  0.604019  0.399710 )  
               b(3) = ( -0.000000 -1.208038  0.399710 )  


     PseudoPot. # 1 for F  read from file:
     ./pseudo/f_pbesol_v1.4.uspp.F.UPF
     MD5 check sum: d2815ecb49b17b99c5724ffd2f9bbd8d
     Pseudo is Ultrasoft, Zval =  7.0
     Generated by new atomic code, or converted to UPF format
     Using radial grid of  799 points,  4 beta functions with: 
                l(1) =   0
                l(2) =   0
                l(3) =   1
                l(4) =   1
     Q(r) pseudized with  8 coefficients,  rinner =    0.950   0.950   0.950


     PseudoPot. # 2 for Fe read from file:
     ./pseudo/Fe.pbesol-spn-kjpaw_psl.0.2.1.UPF
     MD5 check sum: 4d7ec5aa2156491519a4322664fbbf52
     Pseudo is Projector augmented-wave + core cor, Zval = 16.0
     Generated using "atomic" code by A. Dal Corso  v.6.0 svn rev. 13079
     Shape of augmentation charge: PSQ
     Using radial grid of 1191 points,  6 beta functions with: 
                l(1) =   0
                l(2) =   0
                l(3) =   1
                l(4) =   1
                l(5) =   2
                l(6) =   2
     Q(r) pseudized with 0 coefficients 


     PseudoPot. # 3 for Ni read from file:
     ./pseudo/ni_pbesol_v1.4.uspp.F.UPF
     MD5 check sum: de937c0c8ae4b350e69c02b76d8a83cb
     Pseudo is Ultrasoft + core correction, Zval = 18.0
     Generated by new atomic code, or converted to UPF format
     Using radial grid of  865 points,  6 beta functions with: 
                l(1) =   0
                l(2) =   0
                l(3) =   1
                l(4) =   1
                l(5) =   2
                l(6) =   2
     Q(r) pseudized with 10 coefficients,  rinner =    0.980   0.980   0.980
                                                       0.980   0.980

     atomic species   valence    mass     pseudopotential
        F              7.00    18.99840     F ( 1.00)
        Fe            16.00    55.84500     Fe( 1.00)
        Ni            18.00    58.69340     Ni( 1.00)

     Starting magnetic structure 
     atomic species   magnetization
        F            0.100
        Fe           0.313
        Ni           0.278

      6 Sym. Ops., with inversion, found


                                    s                        frac. trans.

      isym =  1     identity                                     

 cryst.   s( 1) = (     1          0          0      )
                  (     0          1          0      )
                  (     0          0          1      )

 cart.    s( 1) = (  1.0000000  0.0000000 -0.0000000 )
                  (  0.0000000  1.0000000  0.0000000 )
                  ( -0.0000000  0.0000000  1.0000000 )


      isym =  2     120 deg rotation - cryst. axis [0,0,1]       

 cryst.   s( 2) = (     0          1          0      )
                  (     0          0          1      )
                  (     1          0          0      )

 cart.    s( 2) = ( -0.5000000 -0.8660254 -0.0000000 )
                  (  0.8660254 -0.5000000  0.0000000 )
                  ( -0.0000000 -0.0000000  1.0000000 )


      isym =  3     120 deg rotation - cryst. axis [0,0,-1]      

 cryst.   s( 3) = (     0          0          1      )
                  (     1          0          0      )
                  (     0          1          0      )

 cart.    s( 3) = ( -0.5000000  0.8660254 -0.0000000 )
                  ( -0.8660254 -0.5000000  0.0000000 )
                  (  0.0000000  0.0000000  1.0000000 )


      isym =  4     inversion                                    

 cryst.   s( 4) = (    -1          0          0      )
                  (     0         -1          0      )
                  (     0          0         -1      )

 cart.    s( 4) = ( -1.0000000 -0.0000000  0.0000000 )
                  ( -0.0000000 -1.0000000 -0.0000000 )
                  (  0.0000000 -0.0000000 -1.0000000 )


      isym =  5     inv. 120 deg rotation - cryst. axis [0,0,1]  

 cryst.   s( 5) = (     0         -1          0      )
                  (     0          0         -1      )
                  (    -1          0          0      )

 cart.    s( 5) = (  0.5000000  0.8660254  0.0000000 )
                  ( -0.8660254  0.5000000 -0.0000000 )
                  (  0.0000000  0.0000000 -1.0000000 )


      isym =  6     inv. 120 deg rotation - cryst. axis [0,0,-1] 

 cryst.   s( 6) = (     0          0         -1      )
                  (    -1          0          0      )
                  (     0         -1          0      )

 cart.    s( 6) = (  0.5000000 -0.8660254  0.0000000 )
                  (  0.8660254  0.5000000 -0.0000000 )
                  ( -0.0000000 -0.0000000 -1.0000000 )


   Cartesian axes

     site n.     atom                  positions (alat units)
         1           Fe  tau(   1) = (  -0.0000000   0.5518591   0.4169687  )
         2           Ni  tau(   2) = (   0.0000000   0.0000000   0.0000000  )
         3           F   tau(   3) = (  -0.2998495   0.6087558   0.1998948  )
         4           F   tau(   4) = (   0.3772732   0.0121961   0.6340426  )
         5           F   tau(   5) = (   0.7566493   0.3206301   0.6340426  )
         6           F   tau(   6) = (   0.2998495   0.4949624   0.6340426  )
         7           F   tau(   7) = (   0.1006508   0.2637335   0.1998948  )
         8           F   tau(   8) = (   0.1991987   0.7830881   0.1998948  )

   Crystallographic axes

     site n.     atom                  positions (cryst. coord.)
         1           Fe  tau(   1) = (  0.5000000  0.5000000 -0.5000000  )
         2           Ni  tau(   2) = (  0.0000000  0.0000000  0.0000000  )
         3           F   tau(   3) = (  0.1339000  0.7613000 -0.6555000  )
         4           F   tau(   4) = (  0.6555000 -0.1339000  0.2387000  )
         5           F   tau(   5) = (  1.2387000 -0.3445000 -0.1339000  )
         6           F   tau(   6) = (  0.8661000  0.2387000 -0.3445000  )
         7           F   tau(   7) = (  0.3445000  0.1339000 -0.2387000  )
         8           F   tau(   8) = (  0.7613000  0.3445000 -0.8661000  )

     number of k points=   226  Marzari-Vanderbilt smearing, width (Ry)=  0.0100
                       cart. coord. in units 2pi/alat
        k(    1) = (   0.0000000   0.0000000   0.0000000), wk =   0.0007513
        k(    2) = (  -0.0000000  -0.1098216   0.0363373), wk =   0.0045079
        k(    3) = (  -0.0000000  -0.2196432   0.0726746), wk =   0.0045079
        k(    4) = (  -0.0000000  -0.3294649   0.1090119), wk =   0.0045079
        k(    5) = (  -0.0000000  -0.4392865   0.1453492), wk =   0.0045079
        k(    6) = (  -0.0000000  -0.5491081   0.1816865), wk =   0.0045079
        k(    7) = (  -0.0951083  -0.0549108   0.0726746), wk =   0.0045079
        k(    8) = (  -0.0951083  -0.1647324   0.1090119), wk =   0.0045079
        k(    9) = (  -0.0951083  -0.2745540   0.1453492), wk =   0.0045079
        k(   10) = (  -0.0951083  -0.3843757   0.1816865), wk =   0.0045079
        k(   11) = (  -0.0951083  -0.4941973   0.2180238), wk =   0.0045079
        k(   12) = (  -0.0951083   0.6040189  -0.1453492), wk =   0.0045079
        k(   13) = (  -0.0951083   0.4941973  -0.1090119), wk =   0.0045079
        k(   14) = (  -0.0951083   0.3843757  -0.0726746), wk =   0.0045079
        k(   15) = (  -0.0951083   0.2745540  -0.0363373), wk =   0.0045079
        k(   16) = (  -0.0951083   0.1647324  -0.0000000), wk =   0.0045079
        k(   17) = (  -0.1902166  -0.1098216   0.1453492), wk =   0.0045079
        k(   18) = (  -0.1902166  -0.2196432   0.1816865), wk =   0.0045079
        k(   19) = (  -0.1902166  -0.3294649   0.2180238), wk =   0.0045079
        k(   20) = (  -0.1902166  -0.4392865   0.2543611), wk =   0.0045079
        k(   21) = (  -0.1902166   0.6589297  -0.1090119), wk =   0.0045079
        k(   22) = (  -0.1902166   0.5491081  -0.0726746), wk =   0.0045079
        k(   23) = (  -0.1902166   0.4392865  -0.0363373), wk =   0.0045079
        k(   24) = (  -0.1902166   0.3294649   0.0000000), wk =   0.0045079
        k(   25) = (  -0.2853249  -0.1647324   0.2180238), wk =   0.0045079
        k(   26) = (  -0.2853249  -0.2745540   0.2543611), wk =   0.0045079
        k(   27) = (  -0.2853249  -0.3843757   0.2906984), wk =   0.0045079
        k(   28) = (  -0.2853249   0.7138405  -0.0726746), wk =   0.0045079
        k(   29) = (  -0.2853249   0.6040189  -0.0363373), wk =   0.0045079
        k(   30) = (  -0.2853249   0.4941973   0.0000000), wk =   0.0045079
        k(   31) = (  -0.3804332  -0.2196432   0.2906984), wk =   0.0045079
        k(   32) = (  -0.3804332  -0.3294649   0.3270357), wk =   0.0045079
        k(   33) = (  -0.3804332   0.7687513  -0.0363373), wk =   0.0045079
        k(   34) = (  -0.3804332   0.6589297  -0.0000000), wk =   0.0045079
        k(   35) = (  -0.4755416  -0.2745540   0.3633730), wk =   0.0045079
        k(   36) = (  -0.4755416   0.8236621  -0.0000000), wk =   0.0045079
        k(   37) = (   0.0000000  -0.0000000   0.1090119), wk =   0.0015026
        k(   38) = (   0.0000000  -0.1098216   0.1453492), wk =   0.0045079
        k(   39) = (   0.0000000  -0.2196432   0.1816865), wk =   0.0045079
        k(   40) = (   0.0000000  -0.3294649   0.2180238), wk =   0.0045079
        k(   41) = (   0.0000000  -0.4392865   0.2543611), wk =   0.0045079
        k(   42) = (   0.0000000   0.6589297  -0.1090119), wk =   0.0045079
        k(   43) = (   0.0000000   0.5491081  -0.0726746), wk =   0.0045079
        k(   44) = (   0.0000000   0.4392865  -0.0363373), wk =   0.0045079
        k(   45) = (   0.0000000   0.3294649   0.0000000), wk =   0.0045079
        k(   46) = (   0.0000000   0.2196432   0.0363373), wk =   0.0045079
        k(   47) = (  -0.0951083  -0.0549108   0.1816865), wk =   0.0045079
        k(   48) = (  -0.0951083  -0.1647324   0.2180238), wk =   0.0045079
        k(   49) = (  -0.0951083  -0.2745540   0.2543611), wk =   0.0045079
        k(   50) = (  -0.0951083  -0.3843757   0.2906984), wk =   0.0045079
        k(   51) = (  -0.0951083   0.7138405  -0.0726746), wk =   0.0045079
        k(   52) = (  -0.0951083   0.6040189  -0.0363373), wk =   0.0045079
        k(   53) = (  -0.0951083   0.4941973   0.0000000), wk =   0.0045079
        k(   54) = (  -0.0951083   0.3843757   0.0363373), wk =   0.0045079
        k(   55) = (  -0.0951083   0.2745540   0.0726746), wk =   0.0045079
        k(   56) = (  -0.1902166  -0.1098216   0.2543611), wk =   0.0045079
        k(   57) = (  -0.1902166  -0.2196432   0.2906984), wk =   0.0045079
        k(   58) = (  -0.1902166  -0.3294649   0.3270357), wk =   0.0045079
        k(   59) = (  -0.1902166   0.7687513  -0.0363373), wk =   0.0045079
        k(   60) = (  -0.1902166   0.6589297  -0.0000000), wk =   0.0045079
        k(   61) = (  -0.1902166   0.5491081   0.0363373), wk =   0.0045079
        k(   62) = (  -0.1902166   0.4392865   0.0726746), wk =   0.0045079
        k(   63) = (  -0.1902166   0.3294649   0.1090119), wk =   0.0045079
        k(   64) = (  -0.2853249  -0.1647324   0.3270357), wk =   0.0045079
        k(   65) = (  -0.2853249  -0.2745540   0.3633730), wk =   0.0045079
        k(   66) = (  -0.2853249   0.8236621  -0.0000000), wk =   0.0045079
        k(   67) = (  -0.2853249   0.7138405   0.0363373), wk =   0.0045079
        k(   68) = (  -0.2853249   0.6040189   0.0726746), wk =   0.0045079
        k(   69) = (  -0.2853249   0.4941973   0.1090119), wk =   0.0045079
        k(   70) = (  -0.2853249   0.3843757   0.1453492), wk =   0.0045079
        k(   71) = (  -0.3804332  -0.2196432   0.3997103), wk =   0.0045079
        k(   72) = (  -0.3804332   0.8785730   0.0363373), wk =   0.0045079
        k(   73) = (  -0.3804332   0.7687513   0.0726746), wk =   0.0045079
        k(   74) = (  -0.3804332   0.6589297   0.1090119), wk =   0.0045079
        k(   75) = (  -0.3804332   0.5491081   0.1453492), wk =   0.0045079
        k(   76) = (  -0.3804332   0.4392865   0.1816865), wk =   0.0045079
        k(   77) = (   0.5706499   0.3294649  -0.3270357), wk =   0.0045079
        k(   78) = (   0.5706499   0.2196432  -0.2906984), wk =   0.0045079
        k(   79) = (   0.5706499   0.1098216  -0.2543611), wk =   0.0045079
        k(   80) = (   0.5706499  -0.0000000  -0.2180238), wk =   0.0045079
        k(   81) = (   0.4755416   0.2745540  -0.2543611), wk =   0.0045079
        k(   82) = (   0.4755416   0.1647324  -0.2180238), wk =   0.0045079
        k(   83) = (   0.4755416   0.0549108  -0.1816865), wk =   0.0045079
        k(   84) = (   0.3804332   0.2196432  -0.1816865), wk =   0.0045079
        k(   85) = (   0.3804332   0.1098216  -0.1453492), wk =   0.0045079
        k(   86) = (   0.2853249   0.1647324  -0.1090119), wk =   0.0045079
        k(   87) = (   0.0000000  -0.0000000   0.2180238), wk =   0.0015026
        k(   88) = (   0.0000000  -0.1098216   0.2543611), wk =   0.0045079
        k(   89) = (   0.0000000  -0.2196432   0.2906984), wk =   0.0045079
        k(   90) = (   0.0000000  -0.3294649   0.3270357), wk =   0.0045079
        k(   91) = (   0.0000000   0.7687513  -0.0363373), wk =   0.0045079
        k(   92) = (   0.0000000   0.6589297  -0.0000000), wk =   0.0045079
        k(   93) = (   0.0000000   0.5491081   0.0363373), wk =   0.0045079
        k(   94) = (   0.0000000   0.4392865   0.0726746), wk =   0.0045079
        k(   95) = (  -0.0951083  -0.0549108   0.2906984), wk =   0.0045079
        k(   96) = (  -0.0951083  -0.1647324   0.3270357), wk =   0.0045079
        k(   97) = (  -0.0951083  -0.2745540   0.3633730), wk =   0.0045079
        k(   98) = (  -0.0951083   0.8236621  -0.0000000), wk =   0.0045079
        k(   99) = (  -0.0951083   0.7138405   0.0363373), wk =   0.0045079
        k(  100) = (  -0.0951083   0.6040189   0.0726746), wk =   0.0045079
        k(  101) = (  -0.0951083   0.4941973   0.1090119), wk =   0.0045079
        k(  102) = (  -0.1902166  -0.1098216   0.3633730), wk =   0.0045079
        k(  103) = (  -0.1902166  -0.2196432   0.3997103), wk =   0.0045079
        k(  104) = (  -0.1902166   0.8785730   0.0363373), wk =   0.0045079
        k(  105) = (  -0.1902166   0.7687513   0.0726746), wk =   0.0045079
        k(  106) = (  -0.1902166   0.6589297   0.1090119), wk =   0.0045079
        k(  107) = (  -0.1902166   0.5491081   0.1453492), wk =   0.0045079
        k(  108) = (  -0.2853249  -0.1647324   0.4360476), wk =   0.0045079
        k(  109) = (  -0.2853249   0.9334838   0.0726746), wk =   0.0045079
        k(  110) = (  -0.2853249   0.8236621   0.1090119), wk =   0.0045079
        k(  111) = (  -0.2853249   0.7138405   0.1453492), wk =   0.0045079
        k(  112) = (  -0.2853249   0.6040189   0.1816865), wk =   0.0045079
        k(  113) = (   0.6657582   0.3843757  -0.2906984), wk =   0.0045079
        k(  114) = (   0.6657582   0.2745540  -0.2543611), wk =   0.0045079
        k(  115) = (   0.6657582   0.1647324  -0.2180238), wk =   0.0045079
        k(  116) = (   0.5706499   0.3294649  -0.2180238), wk =   0.0045079
        k(  117) = (   0.5706499   0.2196432  -0.1816865), wk =   0.0045079
        k(  118) = (   0.4755416   0.2745540  -0.1453492), wk =   0.0045079
        k(  119) = (   0.0000000   0.0000000   0.3270357), wk =   0.0015026
        k(  120) = (   0.0000000  -0.1098216   0.3633730), wk =   0.0045079
        k(  121) = (   0.0000000  -0.2196432   0.3997103), wk =   0.0045079
        k(  122) = (   0.0000000   0.8785730   0.0363373), wk =   0.0045079
        k(  123) = (   0.0000000   0.7687513   0.0726746), wk =   0.0045079
        k(  124) = (   0.0000000   0.6589297   0.1090119), wk =   0.0045079
        k(  125) = (  -0.0951083  -0.0549108   0.3997103), wk =   0.0045079
        k(  126) = (  -0.0951083  -0.1647324   0.4360476), wk =   0.0045079
        k(  127) = (  -0.0951083   0.9334838   0.0726746), wk =   0.0045079
        k(  128) = (  -0.0951083   0.8236621   0.1090119), wk =   0.0045079
        k(  129) = (  -0.0951083   0.7138405   0.1453492), wk =   0.0045079
        k(  130) = (  -0.1902166  -0.1098216   0.4723849), wk =   0.0045079
        k(  131) = (  -0.1902166   0.9883946   0.1090119), wk =   0.0045079
        k(  132) = (  -0.1902166   0.8785730   0.1453492), wk =   0.0045079
        k(  133) = (  -0.1902166   0.7687513   0.1816865), wk =   0.0045079
        k(  134) = (   0.7608665   0.4392865  -0.2543611), wk =   0.0045079
        k(  135) = (   0.7608665   0.3294649  -0.2180238), wk =   0.0045079
        k(  136) = (   0.6657582   0.3843757  -0.1816865), wk =   0.0045079
        k(  137) = (   0.0000000  -0.0000000   0.4360476), wk =   0.0015026
        k(  138) = (   0.0000000  -0.1098216   0.4723849), wk =   0.0045079
        k(  139) = (   0.0000000   0.9883946   0.1090119), wk =   0.0045079
        k(  140) = (   0.0000000   0.8785730   0.1453492), wk =   0.0045079
        k(  141) = (  -0.0951083  -0.0549108   0.5087222), wk =   0.0045079
        k(  142) = (  -0.0951083   1.0433054   0.1453492), wk =   0.0045079
        k(  143) = (  -0.0951083   0.9334838   0.1816865), wk =   0.0045079
        k(  144) = (   0.8559748   0.4941973  -0.2180238), wk =   0.0045079
        k(  145) = (  -0.0000000   0.0000000   0.5450595), wk =   0.0015026
        k(  146) = (  -0.0000000   1.0982162   0.1816865), wk =   0.0045079
        k(  147) = (  -0.0951083   0.1647324  -0.1090119), wk =   0.0045079
        k(  148) = (  -0.0951083   0.2745540  -0.1453492), wk =   0.0045079
        k(  149) = (  -0.0951083   0.3843757  -0.1816865), wk =   0.0045079
        k(  150) = (  -0.0951083   0.4941973  -0.2180238), wk =   0.0045079
        k(  151) = (  -0.0951083  -0.6040189   0.1453492), wk =   0.0045079
        k(  152) = (  -0.0951083  -0.4941973   0.1090119), wk =   0.0045079
        k(  153) = (  -0.0951083  -0.3843757   0.0726746), wk =   0.0045079
        k(  154) = (  -0.0951083  -0.2745540   0.0363373), wk =   0.0045079
        k(  155) = (  -0.1902166   0.2196432  -0.1816865), wk =   0.0045079
        k(  156) = (  -0.1902166   0.3294649  -0.2180238), wk =   0.0045079
        k(  157) = (  -0.1902166   0.4392865  -0.2543611), wk =   0.0045079
        k(  158) = (  -0.1902166  -0.6589297   0.1090119), wk =   0.0045079
        k(  159) = (  -0.1902166  -0.5491081   0.0726746), wk =   0.0045079
        k(  160) = (  -0.1902166  -0.4392865   0.0363373), wk =   0.0045079
        k(  161) = (  -0.2853249   0.2745540  -0.2543611), wk =   0.0045079
        k(  162) = (  -0.2853249   0.3843757  -0.2906984), wk =   0.0045079
        k(  163) = (  -0.2853249  -0.7138405   0.0726746), wk =   0.0045079
        k(  164) = (  -0.2853249  -0.6040189   0.0363373), wk =   0.0045079
        k(  165) = (  -0.3804332   0.3294649  -0.3270357), wk =   0.0045079
        k(  166) = (  -0.3804332  -0.7687513   0.0363373), wk =   0.0045079
        k(  167) = (  -0.0951083   0.1647324  -0.2180238), wk =   0.0045079
        k(  168) = (  -0.0951083   0.2745540  -0.2543611), wk =   0.0045079
        k(  169) = (  -0.0951083   0.3843757  -0.2906984), wk =   0.0045079
        k(  170) = (  -0.0951083  -0.7138405   0.0726746), wk =   0.0045079
        k(  171) = (  -0.0951083  -0.6040189   0.0363373), wk =   0.0045079
        k(  172) = (  -0.0951083  -0.4941973  -0.0000000), wk =   0.0045079
        k(  173) = (  -0.0951083  -0.3843757  -0.0363373), wk =   0.0045079
        k(  174) = (  -0.0951083  -0.2745540  -0.0726746), wk =   0.0045079
        k(  175) = (  -0.1902166   0.2196432  -0.2906984), wk =   0.0045079
        k(  176) = (  -0.1902166   0.3294649  -0.3270357), wk =   0.0045079
        k(  177) = (  -0.1902166  -0.7687513   0.0363373), wk =   0.0045079
        k(  178) = (  -0.1902166  -0.6589297   0.0000000), wk =   0.0045079
        k(  179) = (  -0.1902166  -0.5491081  -0.0363373), wk =   0.0045079
        k(  180) = (  -0.1902166  -0.4392865  -0.0726746), wk =   0.0045079
        k(  181) = (  -0.1902166  -0.3294649  -0.1090119), wk =   0.0045079
        k(  182) = (  -0.2853249   0.2745540  -0.3633730), wk =   0.0045079
        k(  183) = (  -0.2853249  -0.8236621  -0.0000000), wk =   0.0045079
        k(  184) = (  -0.2853249  -0.7138405  -0.0363373), wk =   0.0045079
        k(  185) = (  -0.2853249  -0.6040189  -0.0726746), wk =   0.0045079
        k(  186) = (  -0.2853249  -0.4941973  -0.1090119), wk =   0.0045079
        k(  187) = (  -0.2853249  -0.3843757  -0.1453492), wk =   0.0045079
        k(  188) = (  -0.3804332  -0.8785730  -0.0363373), wk =   0.0045079
        k(  189) = (  -0.3804332  -0.7687513  -0.0726746), wk =   0.0045079
        k(  190) = (  -0.3804332  -0.6589297  -0.1090119), wk =   0.0045079
        k(  191) = (  -0.3804332  -0.5491081  -0.1453492), wk =   0.0045079
        k(  192) = (  -0.3804332  -0.4392865  -0.1816865), wk =   0.0045079
        k(  193) = (   0.5706499  -0.2196432   0.2906984), wk =   0.0045079
        k(  194) = (   0.5706499  -0.1098216   0.2543611), wk =   0.0045079
        k(  195) = (   0.5706499   0.0000000   0.2180238), wk =   0.0045079
        k(  196) = (   0.4755416  -0.1647324   0.2180238), wk =   0.0045079
        k(  197) = (   0.4755416  -0.0549108   0.1816865), wk =   0.0045079
        k(  198) = (   0.3804332  -0.1098216   0.1453492), wk =   0.0045079
        k(  199) = (  -0.0951083   0.1647324  -0.3270357), wk =   0.0045079
        k(  200) = (  -0.0951083   0.2745540  -0.3633730), wk =   0.0045079
        k(  201) = (  -0.0951083  -0.8236621   0.0000000), wk =   0.0045079
        k(  202) = (  -0.0951083  -0.7138405  -0.0363373), wk =   0.0045079
        k(  203) = (  -0.0951083  -0.6040189  -0.0726746), wk =   0.0045079
        k(  204) = (  -0.0951083  -0.4941973  -0.1090119), wk =   0.0045079
        k(  205) = (  -0.1902166   0.2196432  -0.3997103), wk =   0.0045079
        k(  206) = (  -0.1902166  -0.8785730  -0.0363373), wk =   0.0045079
        k(  207) = (  -0.1902166  -0.7687513  -0.0726746), wk =   0.0045079
        k(  208) = (  -0.1902166  -0.6589297  -0.1090119), wk =   0.0045079
        k(  209) = (  -0.1902166  -0.5491081  -0.1453492), wk =   0.0045079
        k(  210) = (  -0.2853249  -0.9334838  -0.0726746), wk =   0.0045079
        k(  211) = (  -0.2853249  -0.8236621  -0.1090119), wk =   0.0045079
        k(  212) = (  -0.2853249  -0.7138405  -0.1453492), wk =   0.0045079
        k(  213) = (  -0.2853249  -0.6040189  -0.1816865), wk =   0.0045079
        k(  214) = (   0.6657582  -0.2745540   0.2543611), wk =   0.0045079
        k(  215) = (   0.6657582  -0.1647324   0.2180238), wk =   0.0045079
        k(  216) = (   0.5706499  -0.2196432   0.1816865), wk =   0.0045079
        k(  217) = (  -0.0951083   0.1647324  -0.4360476), wk =   0.0045079
        k(  218) = (  -0.0951083  -0.9334838  -0.0726746), wk =   0.0045079
        k(  219) = (  -0.0951083  -0.8236621  -0.1090119), wk =   0.0045079
        k(  220) = (  -0.0951083  -0.7138405  -0.1453492), wk =   0.0045079
        k(  221) = (  -0.1902166  -0.9883946  -0.1090119), wk =   0.0045079
        k(  222) = (  -0.1902166  -0.8785730  -0.1453492), wk =   0.0045079
        k(  223) = (  -0.1902166  -0.7687513  -0.1816865), wk =   0.0045079
        k(  224) = (   0.7608665  -0.3294649   0.2180238), wk =   0.0045079
        k(  225) = (  -0.0951083  -1.0433054  -0.1453492), wk =   0.0045079
        k(  226) = (  -0.0951083  -0.9334838  -0.1816865), wk =   0.0045079

                       cryst. coord.
        k(    1) = (   0.0000000   0.0000000   0.0000000), wk =   0.0007513
        k(    2) = (   0.0000000   0.0000000   0.0909091), wk =   0.0045079
        k(    3) = (   0.0000000   0.0000000   0.1818182), wk =   0.0045079
        k(    4) = (   0.0000000   0.0000000   0.2727273), wk =   0.0045079
        k(    5) = (   0.0000000   0.0000000   0.3636364), wk =   0.0045079
        k(    6) = (   0.0000000   0.0000000   0.4545455), wk =   0.0045079
        k(    7) = (  -0.0000000   0.0909091   0.0909091), wk =   0.0045079
        k(    8) = (   0.0000000   0.0909091   0.1818182), wk =   0.0045079
        k(    9) = (   0.0000000   0.0909091   0.2727273), wk =   0.0045079
        k(   10) = (   0.0000000   0.0909091   0.3636364), wk =   0.0045079
        k(   11) = (   0.0000000   0.0909091   0.4545455), wk =   0.0045079
        k(   12) = (  -0.0000000   0.0909091  -0.4545455), wk =   0.0045079
        k(   13) = (  -0.0000000   0.0909091  -0.3636364), wk =   0.0045079
        k(   14) = (  -0.0000000   0.0909091  -0.2727273), wk =   0.0045079
        k(   15) = (  -0.0000000   0.0909091  -0.1818182), wk =   0.0045079
        k(   16) = (  -0.0000000   0.0909091  -0.0909091), wk =   0.0045079
        k(   17) = (  -0.0000000   0.1818182   0.1818182), wk =   0.0045079
        k(   18) = (   0.0000000   0.1818182   0.2727273), wk =   0.0045079
        k(   19) = (   0.0000000   0.1818182   0.3636364), wk =   0.0045079
        k(   20) = (   0.0000000   0.1818182   0.4545455), wk =   0.0045079
        k(   21) = (  -0.0000000   0.1818182  -0.4545455), wk =   0.0045079
        k(   22) = (  -0.0000000   0.1818182  -0.3636364), wk =   0.0045079
        k(   23) = (  -0.0000000   0.1818182  -0.2727273), wk =   0.0045079
        k(   24) = (  -0.0000000   0.1818182  -0.1818182), wk =   0.0045079
        k(   25) = (   0.0000000   0.2727273   0.2727273), wk =   0.0045079
        k(   26) = (   0.0000000   0.2727273   0.3636364), wk =   0.0045079
        k(   27) = (   0.0000000   0.2727273   0.4545455), wk =   0.0045079
        k(   28) = (  -0.0000000   0.2727273  -0.4545455), wk =   0.0045079
        k(   29) = (  -0.0000000   0.2727273  -0.3636364), wk =   0.0045079
        k(   30) = (  -0.0000000   0.2727273  -0.2727273), wk =   0.0045079
        k(   31) = (  -0.0000000   0.3636364   0.3636364), wk =   0.0045079
        k(   32) = (  -0.0000000   0.3636364   0.4545455), wk =   0.0045079
        k(   33) = (  -0.0000000   0.3636364  -0.4545455), wk =   0.0045079
        k(   34) = (  -0.0000000   0.3636364  -0.3636364), wk =   0.0045079
        k(   35) = (   0.0000000   0.4545455   0.4545455), wk =   0.0045079
        k(   36) = (  -0.0000000   0.4545455  -0.4545455), wk =   0.0045079
        k(   37) = (   0.0909091   0.0909091   0.0909091), wk =   0.0015026
        k(   38) = (   0.0909091   0.0909091   0.1818182), wk =   0.0045079
        k(   39) = (   0.0909091   0.0909091   0.2727273), wk =   0.0045079
        k(   40) = (   0.0909091   0.0909091   0.3636364), wk =   0.0045079
        k(   41) = (   0.0909091   0.0909091   0.4545455), wk =   0.0045079
        k(   42) = (   0.0909091   0.0909091  -0.4545455), wk =   0.0045079
        k(   43) = (   0.0909091   0.0909091  -0.3636364), wk =   0.0045079
        k(   44) = (   0.0909091   0.0909091  -0.2727273), wk =   0.0045079
        k(   45) = (   0.0909091   0.0909091  -0.1818182), wk =   0.0045079
        k(   46) = (   0.0909091   0.0909091  -0.0909091), wk =   0.0045079
        k(   47) = (   0.0909091   0.1818182   0.1818182), wk =   0.0045079
        k(   48) = (   0.0909091   0.1818182   0.2727273), wk =   0.0045079
        k(   49) = (   0.0909091   0.1818182   0.3636364), wk =   0.0045079
        k(   50) = (   0.0909091   0.1818182   0.4545455), wk =   0.0045079
        k(   51) = (   0.0909091   0.1818182  -0.4545455), wk =   0.0045079
        k(   52) = (   0.0909091   0.1818182  -0.3636364), wk =   0.0045079
        k(   53) = (   0.0909091   0.1818182  -0.2727273), wk =   0.0045079
        k(   54) = (   0.0909091   0.1818182  -0.1818182), wk =   0.0045079
        k(   55) = (   0.0909091   0.1818182  -0.0909091), wk =   0.0045079
        k(   56) = (   0.0909091   0.2727273   0.2727273), wk =   0.0045079
        k(   57) = (   0.0909091   0.2727273   0.3636364), wk =   0.0045079
        k(   58) = (   0.0909091   0.2727273   0.4545455), wk =   0.0045079
        k(   59) = (   0.0909091   0.2727273  -0.4545455), wk =   0.0045079
        k(   60) = (   0.0909091   0.2727273  -0.3636364), wk =   0.0045079
        k(   61) = (   0.0909091   0.2727273  -0.2727273), wk =   0.0045079
        k(   62) = (   0.0909091   0.2727273  -0.1818182), wk =   0.0045079
        k(   63) = (   0.0909091   0.2727273  -0.0909091), wk =   0.0045079
        k(   64) = (   0.0909091   0.3636364   0.3636364), wk =   0.0045079
        k(   65) = (   0.0909091   0.3636364   0.4545455), wk =   0.0045079
        k(   66) = (   0.0909091   0.3636364  -0.4545455), wk =   0.0045079
        k(   67) = (   0.0909091   0.3636364  -0.3636364), wk =   0.0045079
        k(   68) = (   0.0909091   0.3636364  -0.2727273), wk =   0.0045079
        k(   69) = (   0.0909091   0.3636364  -0.1818182), wk =   0.0045079
        k(   70) = (   0.0909091   0.3636364  -0.0909091), wk =   0.0045079
        k(   71) = (   0.0909091   0.4545455   0.4545455), wk =   0.0045079
        k(   72) = (   0.0909091   0.4545455  -0.4545455), wk =   0.0045079
        k(   73) = (   0.0909091   0.4545455  -0.3636364), wk =   0.0045079
        k(   74) = (   0.0909091   0.4545455  -0.2727273), wk =   0.0045079
        k(   75) = (   0.0909091   0.4545455  -0.1818182), wk =   0.0045079
        k(   76) = (   0.0909091   0.4545455  -0.0909091), wk =   0.0045079
        k(   77) = (   0.0909091  -0.4545455  -0.4545455), wk =   0.0045079
        k(   78) = (   0.0909091  -0.4545455  -0.3636364), wk =   0.0045079
        k(   79) = (   0.0909091  -0.4545455  -0.2727273), wk =   0.0045079
        k(   80) = (   0.0909091  -0.4545455  -0.1818182), wk =   0.0045079
        k(   81) = (   0.0909091  -0.3636364  -0.3636364), wk =   0.0045079
        k(   82) = (   0.0909091  -0.3636364  -0.2727273), wk =   0.0045079
        k(   83) = (   0.0909091  -0.3636364  -0.1818182), wk =   0.0045079
        k(   84) = (   0.0909091  -0.2727273  -0.2727273), wk =   0.0045079
        k(   85) = (   0.0909091  -0.2727273  -0.1818182), wk =   0.0045079
        k(   86) = (   0.0909091  -0.1818182  -0.1818182), wk =   0.0045079
        k(   87) = (   0.1818182   0.1818182   0.1818182), wk =   0.0015026
        k(   88) = (   0.1818182   0.1818182   0.2727273), wk =   0.0045079
        k(   89) = (   0.1818182   0.1818182   0.3636364), wk =   0.0045079
        k(   90) = (   0.1818182   0.1818182   0.4545455), wk =   0.0045079
        k(   91) = (   0.1818182   0.1818182  -0.4545455), wk =   0.0045079
        k(   92) = (   0.1818182   0.1818182  -0.3636364), wk =   0.0045079
        k(   93) = (   0.1818182   0.1818182  -0.2727273), wk =   0.0045079
        k(   94) = (   0.1818182   0.1818182  -0.1818182), wk =   0.0045079
        k(   95) = (   0.1818182   0.2727273   0.2727273), wk =   0.0045079
        k(   96) = (   0.1818182   0.2727273   0.3636364), wk =   0.0045079
        k(   97) = (   0.1818182   0.2727273   0.4545455), wk =   0.0045079
        k(   98) = (   0.1818182   0.2727273  -0.4545455), wk =   0.0045079
        k(   99) = (   0.1818182   0.2727273  -0.3636364), wk =   0.0045079
        k(  100) = (   0.1818182   0.2727273  -0.2727273), wk =   0.0045079
        k(  101) = (   0.1818182   0.2727273  -0.1818182), wk =   0.0045079
        k(  102) = (   0.1818182   0.3636364   0.3636364), wk =   0.0045079
        k(  103) = (   0.1818182   0.3636364   0.4545455), wk =   0.0045079
        k(  104) = (   0.1818182   0.3636364  -0.4545455), wk =   0.0045079
        k(  105) = (   0.1818182   0.3636364  -0.3636364), wk =   0.0045079
        k(  106) = (   0.1818182   0.3636364  -0.2727273), wk =   0.0045079
        k(  107) = (   0.1818182   0.3636364  -0.1818182), wk =   0.0045079
        k(  108) = (   0.1818182   0.4545455   0.4545455), wk =   0.0045079
        k(  109) = (   0.1818182   0.4545455  -0.4545455), wk =   0.0045079
        k(  110) = (   0.1818182   0.4545455  -0.3636364), wk =   0.0045079
        k(  111) = (   0.1818182   0.4545455  -0.2727273), wk =   0.0045079
        k(  112) = (   0.1818182   0.4545455  -0.1818182), wk =   0.0045079
        k(  113) = (   0.1818182  -0.4545455  -0.4545455), wk =   0.0045079
        k(  114) = (   0.1818182  -0.4545455  -0.3636364), wk =   0.0045079
        k(  115) = (   0.1818182  -0.4545455  -0.2727273), wk =   0.0045079
        k(  116) = (   0.1818182  -0.3636364  -0.3636364), wk =   0.0045079
        k(  117) = (   0.1818182  -0.3636364  -0.2727273), wk =   0.0045079
        k(  118) = (   0.1818182  -0.2727273  -0.2727273), wk =   0.0045079
        k(  119) = (   0.2727273   0.2727273   0.2727273), wk =   0.0015026
        k(  120) = (   0.2727273   0.2727273   0.3636364), wk =   0.0045079
        k(  121) = (   0.2727273   0.2727273   0.4545455), wk =   0.0045079
        k(  122) = (   0.2727273   0.2727273  -0.4545455), wk =   0.0045079
        k(  123) = (   0.2727273   0.2727273  -0.3636364), wk =   0.0045079
        k(  124) = (   0.2727273   0.2727273  -0.2727273), wk =   0.0045079
        k(  125) = (   0.2727273   0.3636364   0.3636364), wk =   0.0045079
        k(  126) = (   0.2727273   0.3636364   0.4545455), wk =   0.0045079
        k(  127) = (   0.2727273   0.3636364  -0.4545455), wk =   0.0045079
        k(  128) = (   0.2727273   0.3636364  -0.3636364), wk =   0.0045079
        k(  129) = (   0.2727273   0.3636364  -0.2727273), wk =   0.0045079
        k(  130) = (   0.2727273   0.4545455   0.4545455), wk =   0.0045079
        k(  131) = (   0.2727273   0.4545455  -0.4545455), wk =   0.0045079
        k(  132) = (   0.2727273   0.4545455  -0.3636364), wk =   0.0045079
        k(  133) = (   0.2727273   0.4545455  -0.2727273), wk =   0.0045079
        k(  134) = (   0.2727273  -0.4545455  -0.4545455), wk =   0.0045079
        k(  135) = (   0.2727273  -0.4545455  -0.3636364), wk =   0.0045079
        k(  136) = (   0.2727273  -0.3636364  -0.3636364), wk =   0.0045079
        k(  137) = (   0.3636364   0.3636364   0.3636364), wk =   0.0015026
        k(  138) = (   0.3636364   0.3636364   0.4545455), wk =   0.0045079
        k(  139) = (   0.3636364   0.3636364  -0.4545455), wk =   0.0045079
        k(  140) = (   0.3636364   0.3636364  -0.3636364), wk =   0.0045079
        k(  141) = (   0.3636364   0.4545455   0.4545455), wk =   0.0045079
        k(  142) = (   0.3636364   0.4545455  -0.4545455), wk =   0.0045079
        k(  143) = (   0.3636364   0.4545455  -0.3636364), wk =   0.0045079
        k(  144) = (   0.3636364  -0.4545455  -0.4545455), wk =   0.0045079
        k(  145) = (   0.4545455   0.4545455   0.4545455), wk =   0.0015026
        k(  146) = (   0.4545455   0.4545455  -0.4545455), wk =   0.0045079
        k(  147) = (  -0.0909091  -0.0000000  -0.1818182), wk =   0.0045079
        k(  148) = (  -0.0909091  -0.0000000  -0.2727273), wk =   0.0045079
        k(  149) = (  -0.0909091  -0.0000000  -0.3636364), wk =   0.0045079
        k(  150) = (  -0.0909091  -0.0000000  -0.4545455), wk =   0.0045079
        k(  151) = (  -0.0909091   0.0000000   0.4545455), wk =   0.0045079
        k(  152) = (  -0.0909091   0.0000000   0.3636364), wk =   0.0045079
        k(  153) = (  -0.0909091   0.0000000   0.2727273), wk =   0.0045079
        k(  154) = (  -0.0909091   0.0000000   0.1818182), wk =   0.0045079
        k(  155) = (  -0.1818182  -0.0000000  -0.2727273), wk =   0.0045079
        k(  156) = (  -0.1818182  -0.0000000  -0.3636364), wk =   0.0045079
        k(  157) = (  -0.1818182  -0.0000000  -0.4545455), wk =   0.0045079
        k(  158) = (  -0.1818182   0.0000000   0.4545455), wk =   0.0045079
        k(  159) = (  -0.1818182   0.0000000   0.3636364), wk =   0.0045079
        k(  160) = (  -0.1818182   0.0000000   0.2727273), wk =   0.0045079
        k(  161) = (  -0.2727273  -0.0000000  -0.3636364), wk =   0.0045079
        k(  162) = (  -0.2727273  -0.0000000  -0.4545455), wk =   0.0045079
        k(  163) = (  -0.2727273   0.0000000   0.4545455), wk =   0.0045079
        k(  164) = (  -0.2727273   0.0000000   0.3636364), wk =   0.0045079
        k(  165) = (  -0.3636364   0.0000000  -0.4545455), wk =   0.0045079
        k(  166) = (  -0.3636364   0.0000000   0.4545455), wk =   0.0045079
        k(  167) = (  -0.1818182  -0.0909091  -0.2727273), wk =   0.0045079
        k(  168) = (  -0.1818182  -0.0909091  -0.3636364), wk =   0.0045079
        k(  169) = (  -0.1818182  -0.0909091  -0.4545455), wk =   0.0045079
        k(  170) = (  -0.1818182  -0.0909091   0.4545455), wk =   0.0045079
        k(  171) = (  -0.1818182  -0.0909091   0.3636364), wk =   0.0045079
        k(  172) = (  -0.1818182  -0.0909091   0.2727273), wk =   0.0045079
        k(  173) = (  -0.1818182  -0.0909091   0.1818182), wk =   0.0045079
        k(  174) = (  -0.1818182  -0.0909091   0.0909091), wk =   0.0045079
        k(  175) = (  -0.2727273  -0.0909091  -0.3636364), wk =   0.0045079
        k(  176) = (  -0.2727273  -0.0909091  -0.4545455), wk =   0.0045079
        k(  177) = (  -0.2727273  -0.0909091   0.4545455), wk =   0.0045079
        k(  178) = (  -0.2727273  -0.0909091   0.3636364), wk =   0.0045079
        k(  179) = (  -0.2727273  -0.0909091   0.2727273), wk =   0.0045079
        k(  180) = (  -0.2727273  -0.0909091   0.1818182), wk =   0.0045079
        k(  181) = (  -0.2727273  -0.0909091   0.0909091), wk =   0.0045079
        k(  182) = (  -0.3636364  -0.0909091  -0.4545455), wk =   0.0045079
        k(  183) = (  -0.3636364  -0.0909091   0.4545455), wk =   0.0045079
        k(  184) = (  -0.3636364  -0.0909091   0.3636364), wk =   0.0045079
        k(  185) = (  -0.3636364  -0.0909091   0.2727273), wk =   0.0045079
        k(  186) = (  -0.3636364  -0.0909091   0.1818182), wk =   0.0045079
        k(  187) = (  -0.3636364  -0.0909091   0.0909091), wk =   0.0045079
        k(  188) = (  -0.4545455  -0.0909091   0.4545455), wk =   0.0045079
        k(  189) = (  -0.4545455  -0.0909091   0.3636364), wk =   0.0045079
        k(  190) = (  -0.4545455  -0.0909091   0.2727273), wk =   0.0045079
        k(  191) = (  -0.4545455  -0.0909091   0.1818182), wk =   0.0045079
        k(  192) = (  -0.4545455  -0.0909091   0.0909091), wk =   0.0045079
        k(  193) = (   0.4545455  -0.0909091   0.3636364), wk =   0.0045079
        k(  194) = (   0.4545455  -0.0909091   0.2727273), wk =   0.0045079
        k(  195) = (   0.4545455  -0.0909091   0.1818182), wk =   0.0045079
        k(  196) = (   0.3636364  -0.0909091   0.2727273), wk =   0.0045079
        k(  197) = (   0.3636364  -0.0909091   0.1818182), wk =   0.0045079
        k(  198) = (   0.2727273  -0.0909091   0.1818182), wk =   0.0045079
        k(  199) = (  -0.2727273  -0.1818182  -0.3636364), wk =   0.0045079
        k(  200) = (  -0.2727273  -0.1818182  -0.4545455), wk =   0.0045079
        k(  201) = (  -0.2727273  -0.1818182   0.4545455), wk =   0.0045079
        k(  202) = (  -0.2727273  -0.1818182   0.3636364), wk =   0.0045079
        k(  203) = (  -0.2727273  -0.1818182   0.2727273), wk =   0.0045079
        k(  204) = (  -0.2727273  -0.1818182   0.1818182), wk =   0.0045079
        k(  205) = (  -0.3636364  -0.1818182  -0.4545455), wk =   0.0045079
        k(  206) = (  -0.3636364  -0.1818182   0.4545455), wk =   0.0045079
        k(  207) = (  -0.3636364  -0.1818182   0.3636364), wk =   0.0045079
        k(  208) = (  -0.3636364  -0.1818182   0.2727273), wk =   0.0045079
        k(  209) = (  -0.3636364  -0.1818182   0.1818182), wk =   0.0045079
        k(  210) = (  -0.4545455  -0.1818182   0.4545455), wk =   0.0045079
        k(  211) = (  -0.4545455  -0.1818182   0.3636364), wk =   0.0045079
        k(  212) = (  -0.4545455  -0.1818182   0.2727273), wk =   0.0045079
        k(  213) = (  -0.4545455  -0.1818182   0.1818182), wk =   0.0045079
        k(  214) = (   0.4545455  -0.1818182   0.3636364), wk =   0.0045079
        k(  215) = (   0.4545455  -0.1818182   0.2727273), wk =   0.0045079
        k(  216) = (   0.3636364  -0.1818182   0.2727273), wk =   0.0045079
        k(  217) = (  -0.3636364  -0.2727273  -0.4545455), wk =   0.0045079
        k(  218) = (  -0.3636364  -0.2727273   0.4545455), wk =   0.0045079
        k(  219) = (  -0.3636364  -0.2727273   0.3636364), wk =   0.0045079
        k(  220) = (  -0.3636364  -0.2727273   0.2727273), wk =   0.0045079
        k(  221) = (  -0.4545455  -0.2727273   0.4545455), wk =   0.0045079
        k(  222) = (  -0.4545455  -0.2727273   0.3636364), wk =   0.0045079
        k(  223) = (  -0.4545455  -0.2727273   0.2727273), wk =   0.0045079
        k(  224) = (   0.4545455  -0.2727273   0.3636364), wk =   0.0045079
        k(  225) = (  -0.4545455  -0.3636364   0.4545455), wk =   0.0045079
        k(  226) = (  -0.4545455  -0.3636364   0.3636364), wk =   0.0045079

     Dense  grid:   390693 G-vectors     FFT dimensions: ( 108, 108, 108)

     Smooth grid:    75123 G-vectors     FFT dimensions: (  64,  64,  64)

     Dynamical RAM for                 wfc:       6.60 MB

     Dynamical RAM for     wfc (w. buffer):    2987.89 MB

     Dynamical RAM for           str. fact:      17.88 MB

     Dynamical RAM for           local pot:       0.00 MB

     Dynamical RAM for          nlocal pot:      12.04 MB

     Dynamical RAM for                qrad:       7.91 MB

     Dynamical RAM for          rho,v,vnew:      93.43 MB

     Dynamical RAM for               rhoin:      31.14 MB

     Dynamical RAM for            rho*nmix:     190.77 MB

     Dynamical RAM for           G-vectors:      22.93 MB

     Dynamical RAM for          h,s,v(r/c):       0.39 MB

     Dynamical RAM for          <psi|beta>:       0.06 MB

     Dynamical RAM for                 psi:      13.19 MB

     Dynamical RAM for                hpsi:      13.19 MB

     Dynamical RAM for                spsi:      13.19 MB

     Dynamical RAM for      wfcinit/wfcrot:      14.40 MB

     Dynamical RAM for           addusdens:    1150.57 MB

     Dynamical RAM for          addusforce:    1210.23 MB

     Dynamical RAM for         addusstress:    1207.20 MB

     Estimated static dynamical RAM per process >       3.18 GB

     Estimated max dynamical RAM per process >       4.55 GB

     Check: negative core charge=   -0.000005
     Generating pointlists ...
     new r_m :   0.1427 (alat units)  1.4209 (a.u.) for type    1
     new r_m :   0.1545 (alat units)  1.5385 (a.u.) for type    2
     new r_m :   0.1427 (alat units)  1.4209 (a.u.) for type    3

     Initial potential from superposition of free atoms

     starting charge      73.9996, renormalised to      76.0000
     Starting wfcs are   50 randomized atomic wfcs
     Checking if some PAW data can be deallocated... 

     total cpu time spent up to now is       18.0 secs

     Self-consistent Calculation
[tb_dev] Currently allocated     1.30E+01 Mbytes, locked:    0 /  17
[tb_pin] Currently allocated     0.00E+00 Mbytes, locked:    0 /   0

     iteration #  1     ecut=    90.00 Ry     beta= 0.40
     Davidson diagonalization with overlap

---- Real-time Memory Report at c_bands before calling an iterative solver
          4186 MiB given to the printing process from OS
          -165 MiB allocation reported by mallinfo(arena+hblkhd)
         55035 MiB available memory on the node where the printing process lives
     GPU memory used/free/total (MiB): 1740 / 14540 / 16280
------------------
     ethr =  1.00E-02,  avg # of iterations =  4.3

     negative rho (up, down):  0.000E+00 3.385E-05

     total cpu time spent up to now is       44.6 secs

     total energy              =    -958.94219292 Ry
     estimated scf accuracy    <       6.46165194 Ry

     total magnetization       =     5.99 Bohr mag/cell
     absolute magnetization    =     6.21 Bohr mag/cell
[tb_dev] Currently allocated     1.30E+01 Mbytes, locked:    0 /  15
[tb_pin] Currently allocated     0.00E+00 Mbytes, locked:    0 /   0

     iteration #  2     ecut=    90.00 Ry     beta= 0.40
     Davidson diagonalization with overlap

---- Real-time Memory Report at c_bands before calling an iterative solver
          4297 MiB given to the printing process from OS
           -97 MiB allocation reported by mallinfo(arena+hblkhd)
         54984 MiB available memory on the node where the printing process lives
     GPU memory used/free/total (MiB): 3212 / 13068 / 16280
------------------
     ethr =  8.50E-03,  avg # of iterations =  2.0

     negative rho (up, down):  0.000E+00 1.452E-05

     total cpu time spent up to now is       67.5 secs

     total energy              =    -958.00158807 Ry
     estimated scf accuracy    <      33.54053351 Ry

     total magnetization       =     1.93 Bohr mag/cell
     absolute magnetization    =     2.91 Bohr mag/cell
[tb_dev] Currently allocated     1.30E+01 Mbytes, locked:    0 /  15
[tb_pin] Currently allocated     0.00E+00 Mbytes, locked:    0 /   0

     iteration #  3     ecut=    90.00 Ry     beta= 0.40
     Davidson diagonalization with overlap

---- Real-time Memory Report at c_bands before calling an iterative solver
          4366 MiB given to the printing process from OS
           -91 MiB allocation reported by mallinfo(arena+hblkhd)
         54976 MiB available memory on the node where the printing process lives
     GPU memory used/free/total (MiB): 3280 / 13000 / 16280
------------------
     ethr =  8.50E-03,  avg # of iterations =  2.0

     negative rho (up, down):  0.000E+00 1.902E-05

     total cpu time spent up to now is       88.2 secs

     total energy              =    -960.83613908 Ry
     estimated scf accuracy    <       7.60532397 Ry

     total magnetization       =     4.06 Bohr mag/cell
     absolute magnetization    =     4.40 Bohr mag/cell
[tb_dev] Currently allocated     1.30E+01 Mbytes, locked:    0 /  15
[tb_pin] Currently allocated     0.00E+00 Mbytes, locked:    0 /   0

     iteration #  4     ecut=    90.00 Ry     beta= 0.40
     Davidson diagonalization with overlap

---- Real-time Memory Report at c_bands before calling an iterative solver
          4437 MiB given to the printing process from OS
           -84 MiB allocation reported by mallinfo(arena+hblkhd)
         54971 MiB available memory on the node where the printing process lives
     GPU memory used/free/total (MiB): 3282 / 12998 / 16280
------------------
     ethr =  8.50E-03,  avg # of iterations =  1.0

     negative rho (up, down):  0.000E+00 4.409E-05

     total cpu time spent up to now is      106.6 secs

     total energy              =    -961.11217466 Ry
     estimated scf accuracy    <       0.76048940 Ry

     total magnetization       =     6.00 Bohr mag/cell
     absolute magnetization    =     6.11 Bohr mag/cell
[tb_dev] Currently allocated     1.30E+01 Mbytes, locked:    0 /  15
[tb_pin] Currently allocated     0.00E+00 Mbytes, locked:    0 /   0

     iteration #  5     ecut=    90.00 Ry     beta= 0.40
     Davidson diagonalization with overlap

---- Real-time Memory Report at c_bands before calling an iterative solver
          4516 MiB given to the printing process from OS
           -76 MiB allocation reported by mallinfo(arena+hblkhd)
         54959 MiB available memory on the node where the printing process lives
     GPU memory used/free/total (MiB): 3282 / 12998 / 16280
------------------
     ethr =  1.00E-03,  avg # of iterations =  1.0

     negative rho (up, down):  0.000E+00 1.623E-04

     total cpu time spent up to now is      125.0 secs

     total energy              =    -961.17216278 Ry
     estimated scf accuracy    <       0.06522921 Ry

     total magnetization       =     5.83 Bohr mag/cell
     absolute magnetization    =     5.88 Bohr mag/cell
[tb_dev] Currently allocated     1.30E+01 Mbytes, locked:    0 /  15
[tb_pin] Currently allocated     0.00E+00 Mbytes, locked:    0 /   0

     iteration #  6     ecut=    90.00 Ry     beta= 0.40
     Davidson diagonalization with overlap

---- Real-time Memory Report at c_bands before calling an iterative solver
          4593 MiB given to the printing process from OS
           -64 MiB allocation reported by mallinfo(arena+hblkhd)
         54949 MiB available memory on the node where the printing process lives
     GPU memory used/free/total (MiB): 3282 / 12998 / 16280
------------------
     ethr =  8.58E-05,  avg # of iterations =  4.3

     negative rho (up, down):  0.000E+00 2.777E-04

     total cpu time spent up to now is      151.4 secs

     total energy              =    -961.17751630 Ry
     estimated scf accuracy    <       0.07071778 Ry

     total magnetization       =     6.00 Bohr mag/cell
     absolute magnetization    =     6.05 Bohr mag/cell
[tb_dev] Currently allocated     1.30E+01 Mbytes, locked:    0 /  15
[tb_pin] Currently allocated     0.00E+00 Mbytes, locked:    0 /   0

     iteration #  7     ecut=    90.00 Ry     beta= 0.40
     Davidson diagonalization with overlap

---- Real-time Memory Report at c_bands before calling an iterative solver
          4662 MiB given to the printing process from OS
           -58 MiB allocation reported by mallinfo(arena+hblkhd)
         54943 MiB available memory on the node where the printing process lives
     GPU memory used/free/total (MiB): 3342 / 12938 / 16280
------------------
     ethr =  8.58E-05,  avg # of iterations =  2.0

     negative rho (up, down):  0.000E+00 3.270E-04

     total cpu time spent up to now is      172.1 secs

     total energy              =    -961.18799087 Ry
     estimated scf accuracy    <       0.01295549 Ry

     total magnetization       =     5.87 Bohr mag/cell
     absolute magnetization    =     5.90 Bohr mag/cell
[tb_dev] Currently allocated     1.30E+01 Mbytes, locked:    0 /  15
[tb_pin] Currently allocated     0.00E+00 Mbytes, locked:    0 /   0

     iteration #  8     ecut=    90.00 Ry     beta= 0.40
     Davidson diagonalization with overlap

---- Real-time Memory Report at c_bands before calling an iterative solver
          4734 MiB given to the printing process from OS
           -49 MiB allocation reported by mallinfo(arena+hblkhd)
         54935 MiB available memory on the node where the printing process lives
     GPU memory used/free/total (MiB): 3342 / 12938 / 16280
------------------
     ethr =  1.70E-05,  avg # of iterations =  2.9

     negative rho (up, down):  0.000E+00 3.593E-04

     total cpu time spent up to now is      194.3 secs

     total energy              =    -961.18937236 Ry
     estimated scf accuracy    <       0.00128831 Ry

     total magnetization       =     5.80 Bohr mag/cell
     absolute magnetization    =     5.83 Bohr mag/cell
[tb_dev] Currently allocated     1.30E+01 Mbytes, locked:    0 /  15
[tb_pin] Currently allocated     0.00E+00 Mbytes, locked:    0 /   0

     iteration #  9     ecut=    90.00 Ry     beta= 0.40
     Davidson diagonalization with overlap

---- Real-time Memory Report at c_bands before calling an iterative solver
          4783 MiB given to the printing process from OS
           -40 MiB allocation reported by mallinfo(arena+hblkhd)
         54925 MiB available memory on the node where the printing process lives
     GPU memory used/free/total (MiB): 3342 / 12938 / 16280
------------------
     ethr =  1.70E-06,  avg # of iterations =  5.6

     negative rho (up, down):  0.000E+00 3.513E-04

     total cpu time spent up to now is      226.1 secs

     total energy              =    -961.18999536 Ry
     estimated scf accuracy    <       0.00618827 Ry

     total magnetization       =     5.60 Bohr mag/cell
     absolute magnetization    =     5.63 Bohr mag/cell
[tb_dev] Currently allocated     1.30E+01 Mbytes, locked:    0 /  15
[tb_pin] Currently allocated     0.00E+00 Mbytes, locked:    0 /   0

     iteration # 10     ecut=    90.00 Ry     beta= 0.40
     Davidson diagonalization with overlap

---- Real-time Memory Report at c_bands before calling an iterative solver
          4814 MiB given to the printing process from OS
           -32 MiB allocation reported by mallinfo(arena+hblkhd)
         54918 MiB available memory on the node where the printing process lives
     GPU memory used/free/total (MiB): 3342 / 12938 / 16280
------------------
     ethr =  1.70E-06,  avg # of iterations =  1.0

     negative rho (up, down):  0.000E+00 3.185E-04

     total cpu time spent up to now is      244.6 secs

     total energy              =    -961.18995363 Ry
     estimated scf accuracy    <       0.00296962 Ry

     total magnetization       =     5.58 Bohr mag/cell
     absolute magnetization    =     5.61 Bohr mag/cell
[tb_dev] Currently allocated     1.30E+01 Mbytes, locked:    0 /  15
[tb_pin] Currently allocated     0.00E+00 Mbytes, locked:    0 /   0

     iteration # 11     ecut=    90.00 Ry     beta= 0.40
     Davidson diagonalization with overlap

---- Real-time Memory Report at c_bands before calling an iterative solver
          4842 MiB given to the printing process from OS
           -30 MiB allocation reported by mallinfo(arena+hblkhd)
         54918 MiB available memory on the node where the printing process lives
     GPU memory used/free/total (MiB): 3342 / 12938 / 16280
------------------
     ethr =  1.70E-06,  avg # of iterations =  2.0

     negative rho (up, down):  0.000E+00 3.183E-04

     total cpu time spent up to now is      265.1 secs

     total energy              =    -961.19040111 Ry
     estimated scf accuracy    <       0.00084178 Ry

     total magnetization       =     5.45 Bohr mag/cell
     absolute magnetization    =     5.48 Bohr mag/cell
[tb_dev] Currently allocated     1.30E+01 Mbytes, locked:    0 /  15
[tb_pin] Currently allocated     0.00E+00 Mbytes, locked:    0 /   0

     iteration # 12     ecut=    90.00 Ry     beta= 0.40
     Davidson diagonalization with overlap

---- Real-time Memory Report at c_bands before calling an iterative solver
          4865 MiB given to the printing process from OS
           -28 MiB allocation reported by mallinfo(arena+hblkhd)
         54916 MiB available memory on the node where the printing process lives
     GPU memory used/free/total (MiB): 3342 / 12938 / 16280
------------------
     ethr =  1.11E-06,  avg # of iterations =  1.0

     negative rho (up, down):  0.000E+00 3.113E-04

     total cpu time spent up to now is      283.7 secs

     total energy              =    -961.19046233 Ry
     estimated scf accuracy    <       0.00084414 Ry

     total magnetization       =     5.44 Bohr mag/cell
     absolute magnetization    =     5.47 Bohr mag/cell
[tb_dev] Currently allocated     1.30E+01 Mbytes, locked:    0 /  15
[tb_pin] Currently allocated     0.00E+00 Mbytes, locked:    0 /   0

     iteration # 13     ecut=    90.00 Ry     beta= 0.40
     Davidson diagonalization with overlap

---- Real-time Memory Report at c_bands before calling an iterative solver
          4886 MiB given to the printing process from OS
           -26 MiB allocation reported by mallinfo(arena+hblkhd)
         54912 MiB available memory on the node where the printing process lives
     GPU memory used/free/total (MiB): 3342 / 12938 / 16280
------------------
     ethr =  1.11E-06,  avg # of iterations =  1.0

     negative rho (up, down):  0.000E+00 3.280E-04

     total cpu time spent up to now is      302.1 secs

     total energy              =    -961.18907520 Ry
     estimated scf accuracy    <       0.00074367 Ry

     total magnetization       =     5.37 Bohr mag/cell
     absolute magnetization    =     5.40 Bohr mag/cell
[tb_dev] Currently allocated     1.30E+01 Mbytes, locked:    0 /  15
[tb_pin] Currently allocated     0.00E+00 Mbytes, locked:    0 /   0

     iteration # 14     ecut=    90.00 Ry     beta= 0.40
     Davidson diagonalization with overlap

---- Real-time Memory Report at c_bands before calling an iterative solver
          4907 MiB given to the printing process from OS
           -24 MiB allocation reported by mallinfo(arena+hblkhd)
         54910 MiB available memory on the node where the printing process lives
     GPU memory used/free/total (MiB): 3342 / 12938 / 16280
------------------
     ethr =  9.79E-07,  avg # of iterations =  2.0

     negative rho (up, down):  0.000E+00 3.163E-04

     total cpu time spent up to now is      323.4 secs

     total energy              =    -961.19009530 Ry
     estimated scf accuracy    <       0.00029878 Ry

     total magnetization       =     5.64 Bohr mag/cell
     absolute magnetization    =     5.67 Bohr mag/cell
[tb_dev] Currently allocated     1.30E+01 Mbytes, locked:    0 /  15
[tb_pin] Currently allocated     0.00E+00 Mbytes, locked:    0 /   0

     iteration # 15     ecut=    90.00 Ry     beta= 0.40
     Davidson diagonalization with overlap

---- Real-time Memory Report at c_bands before calling an iterative solver
          4930 MiB given to the printing process from OS
           -23 MiB allocation reported by mallinfo(arena+hblkhd)
         54908 MiB available memory on the node where the printing process lives
     GPU memory used/free/total (MiB): 3342 / 12938 / 16280
------------------
     ethr =  3.93E-07,  avg # of iterations =  1.7

     negative rho (up, down):  0.000E+00 3.223E-04

     total cpu time spent up to now is      343.6 secs

     total energy              =    -961.18859771 Ry
     estimated scf accuracy    <       0.00027628 Ry

     total magnetization       =     5.53 Bohr mag/cell
     absolute magnetization    =     5.56 Bohr mag/cell
[tb_dev] Currently allocated     1.30E+01 Mbytes, locked:    0 /  15
[tb_pin] Currently allocated     0.00E+00 Mbytes, locked:    0 /   0

     iteration # 16     ecut=    90.00 Ry     beta= 0.40
     Davidson diagonalization with overlap

---- Real-time Memory Report at c_bands before calling an iterative solver
          4952 MiB given to the printing process from OS
           -21 MiB allocation reported by mallinfo(arena+hblkhd)
         54907 MiB available memory on the node where the printing process lives
     GPU memory used/free/total (MiB): 3342 / 12938 / 16280
------------------
     ethr =  3.64E-07,  avg # of iterations =  2.0

     negative rho (up, down):  0.000E+00 3.194E-04

     total cpu time spent up to now is      367.0 secs

     total energy              =    -961.18917007 Ry
     estimated scf accuracy    <       0.00050638 Ry

     total magnetization       =     5.77 Bohr mag/cell
     absolute magnetization    =     5.80 Bohr mag/cell
[tb_dev] Currently allocated     1.30E+01 Mbytes, locked:    0 /  15
[tb_pin] Currently allocated     0.00E+00 Mbytes, locked:    0 /   0

     iteration # 17     ecut=    90.00 Ry     beta= 0.40
     Davidson diagonalization with overlap

---- Real-time Memory Report at c_bands before calling an iterative solver
          4973 MiB given to the printing process from OS
           -19 MiB allocation reported by mallinfo(arena+hblkhd)
         54905 MiB available memory on the node where the printing process lives
     GPU memory used/free/total (MiB): 3342 / 12938 / 16280
------------------
     ethr =  3.64E-07,  avg # of iterations =  2.0

     negative rho (up, down):  0.000E+00 3.044E-04

     total cpu time spent up to now is      390.7 secs

     total energy              =    -961.18892833 Ry
     estimated scf accuracy    <       0.00023885 Ry

     total magnetization       =     5.51 Bohr mag/cell
     absolute magnetization    =     5.55 Bohr mag/cell
[tb_dev] Currently allocated     1.30E+01 Mbytes, locked:    0 /  15
[tb_pin] Currently allocated     0.00E+00 Mbytes, locked:    0 /   0

     iteration # 18     ecut=    90.00 Ry     beta= 0.40
     Davidson diagonalization with overlap

---- Real-time Memory Report at c_bands before calling an iterative solver
          4995 MiB given to the printing process from OS
           -17 MiB allocation reported by mallinfo(arena+hblkhd)
         54908 MiB available memory on the node where the printing process lives
     GPU memory used/free/total (MiB): 3342 / 12938 / 16280
------------------
     ethr =  3.14E-07,  avg # of iterations =  2.9

     negative rho (up, down):  0.000E+00 3.221E-04

     total cpu time spent up to now is      417.6 secs

     total energy              =    -961.18683982 Ry
     estimated scf accuracy    <       0.00092343 Ry

     total magnetization       =     5.08 Bohr mag/cell
     absolute magnetization    =     5.11 Bohr mag/cell
[tb_dev] Currently allocated     1.30E+01 Mbytes, locked:    0 /  15
[tb_pin] Currently allocated     0.00E+00 Mbytes, locked:    0 /   0

     iteration # 19     ecut=    90.00 Ry     beta= 0.40
     Davidson diagonalization with overlap

---- Real-time Memory Report at c_bands before calling an iterative solver
          5008 MiB given to the printing process from OS
           -15 MiB allocation reported by mallinfo(arena+hblkhd)
         54904 MiB available memory on the node where the printing process lives
     GPU memory used/free/total (MiB): 3342 / 12938 / 16280
------------------
     ethr =  3.14E-07,  avg # of iterations =  2.9

     negative rho (up, down):  0.000E+00 3.284E-04

     total cpu time spent up to now is      444.4 secs

     total energy              =    -961.18895543 Ry
     estimated scf accuracy    <       0.00023179 Ry

     total magnetization       =     5.58 Bohr mag/cell
     absolute magnetization    =     5.61 Bohr mag/cell
[tb_dev] Currently allocated     1.30E+01 Mbytes, locked:    0 /  15
[tb_pin] Currently allocated     0.00E+00 Mbytes, locked:    0 /   0

     iteration # 20     ecut=    90.00 Ry     beta= 0.40
     Davidson diagonalization with overlap

---- Real-time Memory Report at c_bands before calling an iterative solver
          5011 MiB given to the printing process from OS
           -13 MiB allocation reported by mallinfo(arena+hblkhd)
         54902 MiB available memory on the node where the printing process lives
     GPU memory used/free/total (MiB): 3342 / 12938 / 16280
------------------
     ethr =  3.05E-07,  avg # of iterations =  2.0

     negative rho (up, down):  0.000E+00 3.426E-04

     total cpu time spent up to now is      467.9 secs

     total energy              =    -961.18775511 Ry
     estimated scf accuracy    <       0.00044556 Ry

     total magnetization       =     5.77 Bohr mag/cell
     absolute magnetization    =     5.80 Bohr mag/cell
[tb_dev] Currently allocated     1.30E+01 Mbytes, locked:    0 /  15
[tb_pin] Currently allocated     0.00E+00 Mbytes, locked:    0 /   0

     iteration # 21     ecut=    90.00 Ry     beta= 0.40
     Davidson diagonalization with overlap

---- Real-time Memory Report at c_bands before calling an iterative solver
          5013 MiB given to the printing process from OS
           -12 MiB allocation reported by mallinfo(arena+hblkhd)
         54898 MiB available memory on the node where the printing process lives
     GPU memory used/free/total (MiB): 3342 / 12938 / 16280
------------------
     ethr =  3.05E-07,  avg # of iterations =  2.5

     negative rho (up, down):  0.000E+00 3.332E-04

     total cpu time spent up to now is      493.1 secs

     total energy              =    -961.18907559 Ry
     estimated scf accuracy    <       0.00226027 Ry

     total magnetization       =     5.92 Bohr mag/cell
     absolute magnetization    =     5.96 Bohr mag/cell
[tb_dev] Currently allocated     1.30E+01 Mbytes, locked:    0 /  15
[tb_pin] Currently allocated     0.00E+00 Mbytes, locked:    0 /   0

     iteration # 22     ecut=    90.00 Ry     beta= 0.40
     Davidson diagonalization with overlap

---- Real-time Memory Report at c_bands before calling an iterative solver
          5014 MiB given to the printing process from OS
           -10 MiB allocation reported by mallinfo(arena+hblkhd)
         54901 MiB available memory on the node where the printing process lives
     GPU memory used/free/total (MiB): 3342 / 12938 / 16280
------------------
     ethr =  3.05E-07,  avg # of iterations =  2.0

     negative rho (up, down):  0.000E+00 3.269E-04

     total cpu time spent up to now is      515.7 secs

     total energy              =    -961.18968764 Ry
     estimated scf accuracy    <       0.00079144 Ry

     total magnetization       =     5.80 Bohr mag/cell
     absolute magnetization    =     5.83 Bohr mag/cell
[tb_dev] Currently allocated     1.30E+01 Mbytes, locked:    0 /  15
[tb_pin] Currently allocated     0.00E+00 Mbytes, locked:    0 /   0

     iteration # 23     ecut=    90.00 Ry     beta= 0.40
     Davidson diagonalization with overlap

---- Real-time Memory Report at c_bands before calling an iterative solver
          5016 MiB given to the printing process from OS
            -8 MiB allocation reported by mallinfo(arena+hblkhd)
         54898 MiB available memory on the node where the printing process lives
     GPU memory used/free/total (MiB): 3342 / 12938 / 16280
------------------
     ethr =  3.05E-07,  avg # of iterations =  2.0

     negative rho (up, down):  0.000E+00 3.182E-04

     total cpu time spent up to now is      537.0 secs

     total energy              =    -961.18984335 Ry
     estimated scf accuracy    <       0.00053925 Ry

     total magnetization       =     5.71 Bohr mag/cell
     absolute magnetization    =     5.74 Bohr mag/cell
[tb_dev] Currently allocated     1.30E+01 Mbytes, locked:    0 /  15
[tb_pin] Currently allocated     0.00E+00 Mbytes, locked:    0 /   0

     iteration # 24     ecut=    90.00 Ry     beta= 0.40
     Davidson diagonalization with overlap

---- Real-time Memory Report at c_bands before calling an iterative solver
          5018 MiB given to the printing process from OS
            -6 MiB allocation reported by mallinfo(arena+hblkhd)
         54897 MiB available memory on the node where the printing process lives
     GPU memory used/free/total (MiB): 3342 / 12938 / 16280
------------------
     ethr =  3.05E-07,  avg # of iterations =  2.0

     negative rho (up, down):  0.000E+00 3.153E-04

     total cpu time spent up to now is      559.2 secs

     total energy              =    -961.19025007 Ry
     estimated scf accuracy    <       0.00047210 Ry

     total magnetization       =     5.56 Bohr mag/cell
     absolute magnetization    =     5.59 Bohr mag/cell
[tb_dev] Currently allocated     1.30E+01 Mbytes, locked:    0 /  15
[tb_pin] Currently allocated     0.00E+00 Mbytes, locked:    0 /   0

     iteration # 25     ecut=    90.00 Ry     beta= 0.40
     Davidson diagonalization with overlap

---- Real-time Memory Report at c_bands before calling an iterative solver
          5020 MiB given to the printing process from OS
            -4 MiB allocation reported by mallinfo(arena+hblkhd)
         54896 MiB available memory on the node where the printing process lives
     GPU memory used/free/total (MiB): 3342 / 12938 / 16280
------------------
     ethr =  3.05E-07,  avg # of iterations =  1.0

     negative rho (up, down):  0.000E+00 3.123E-04

     total cpu time spent up to now is      577.8 secs

     total energy              =    -961.19035059 Ry
     estimated scf accuracy    <       0.00049161 Ry

     total magnetization       =     5.51 Bohr mag/cell
     absolute magnetization    =     5.54 Bohr mag/cell
[tb_dev] Currently allocated     1.30E+01 Mbytes, locked:    0 /  15
[tb_pin] Currently allocated     0.00E+00 Mbytes, locked:    0 /   0

     iteration # 26     ecut=    90.00 Ry     beta= 0.40
     Davidson diagonalization with overlap

---- Real-time Memory Report at c_bands before calling an iterative solver
          5021 MiB given to the printing process from OS
            -3 MiB allocation reported by mallinfo(arena+hblkhd)
         54894 MiB available memory on the node where the printing process lives
     GPU memory used/free/total (MiB): 3342 / 12938 / 16280
------------------
     ethr =  3.05E-07,  avg # of iterations =  1.0

     negative rho (up, down):  0.000E+00 3.132E-04

     total cpu time spent up to now is      596.3 secs

     total energy              =    -961.19036363 Ry
     estimated scf accuracy    <       0.00053708 Ry

     total magnetization       =     5.45 Bohr mag/cell
     absolute magnetization    =     5.48 Bohr mag/cell
[tb_dev] Currently allocated     1.30E+01 Mbytes, locked:    0 /  15
[tb_pin] Currently allocated     0.00E+00 Mbytes, locked:    0 /   0

     iteration # 27     ecut=    90.00 Ry     beta= 0.40
     Davidson diagonalization with overlap

---- Real-time Memory Report at c_bands before calling an iterative solver
          5024 MiB given to the printing process from OS
            -1 MiB allocation reported by mallinfo(arena+hblkhd)
         54889 MiB available memory on the node where the printing process lives
     GPU memory used/free/total (MiB): 3342 / 12938 / 16280
------------------
     ethr =  3.05E-07,  avg # of iterations =  1.0

     negative rho (up, down):  0.000E+00 3.128E-04

     total cpu time spent up to now is      614.9 secs

     total energy              =    -961.19037932 Ry
     estimated scf accuracy    <       0.00051826 Ry

     total magnetization       =     5.47 Bohr mag/cell
     absolute magnetization    =     5.50 Bohr mag/cell
[tb_dev] Currently allocated     1.30E+01 Mbytes, locked:    0 /  15
[tb_pin] Currently allocated     0.00E+00 Mbytes, locked:    0 /   0

     iteration # 28     ecut=    90.00 Ry     beta= 0.40
     Davidson diagonalization with overlap

---- Real-time Memory Report at c_bands before calling an iterative solver
          5025 MiB given to the printing process from OS
             0 MiB allocation reported by mallinfo(arena+hblkhd)
         54890 MiB available memory on the node where the printing process lives
     GPU memory used/free/total (MiB): 3342 / 12938 / 16280
------------------
     ethr =  3.05E-07,  avg # of iterations =  1.0

     negative rho (up, down):  0.000E+00 3.141E-04

     total cpu time spent up to now is      633.5 secs

     total energy              =    -961.19030695 Ry
     estimated scf accuracy    <       0.00051159 Ry

     total magnetization       =     5.46 Bohr mag/cell
     absolute magnetization    =     5.49 Bohr mag/cell
[tb_dev] Currently allocated     1.30E+01 Mbytes, locked:    0 /  15
[tb_pin] Currently allocated     0.00E+00 Mbytes, locked:    0 /   0

     iteration # 29     ecut=    90.00 Ry     beta= 0.40
     Davidson diagonalization with overlap

---- Real-time Memory Report at c_bands before calling an iterative solver
          5026 MiB given to the printing process from OS
             2 MiB allocation reported by mallinfo(arena+hblkhd)
         54886 MiB available memory on the node where the printing process lives
     GPU memory used/free/total (MiB): 3342 / 12938 / 16280
------------------
     ethr =  3.05E-07,  avg # of iterations =  1.0

     negative rho (up, down):  0.000E+00 3.193E-04

     total cpu time spent up to now is      651.8 secs

     total energy              =    -961.19001959 Ry
     estimated scf accuracy    <       0.00041709 Ry

     total magnetization       =     5.50 Bohr mag/cell
     absolute magnetization    =     5.53 Bohr mag/cell
[tb_dev] Currently allocated     1.30E+01 Mbytes, locked:    0 /  15
[tb_pin] Currently allocated     0.00E+00 Mbytes, locked:    0 /   0

     iteration # 30     ecut=    90.00 Ry     beta= 0.40
     Davidson diagonalization with overlap

---- Real-time Memory Report at c_bands before calling an iterative solver
          5029 MiB given to the printing process from OS
             4 MiB allocation reported by mallinfo(arena+hblkhd)
         54886 MiB available memory on the node where the printing process lives
     GPU memory used/free/total (MiB): 3342 / 12938 / 16280
------------------
     ethr =  3.05E-07,  avg # of iterations =  1.6

     negative rho (up, down):  0.000E+00 3.323E-04

     total cpu time spent up to now is      671.5 secs

     total energy              =    -961.18866441 Ry
     estimated scf accuracy    <       0.00041093 Ry

     total magnetization       =     5.59 Bohr mag/cell
     absolute magnetization    =     5.62 Bohr mag/cell
[tb_dev] Currently allocated     1.30E+01 Mbytes, locked:    0 /  15
[tb_pin] Currently allocated     0.00E+00 Mbytes, locked:    0 /   0

     iteration # 31     ecut=    90.00 Ry     beta= 0.40
     Davidson diagonalization with overlap

---- Real-time Memory Report at c_bands before calling an iterative solver
          5031 MiB given to the printing process from OS
             6 MiB allocation reported by mallinfo(arena+hblkhd)
         54882 MiB available memory on the node where the printing process lives
     GPU memory used/free/total (MiB): 3342 / 12938 / 16280
------------------
     ethr =  3.05E-07,  avg # of iterations =  2.5

     negative rho (up, down):  0.000E+00 3.274E-04

     total cpu time spent up to now is      696.6 secs

     total energy              =    -961.18969669 Ry
     estimated scf accuracy    <       0.00081851 Ry

     total magnetization       =     5.80 Bohr mag/cell
     absolute magnetization    =     5.83 Bohr mag/cell
[tb_dev] Currently allocated     1.30E+01 Mbytes, locked:    0 /  15
[tb_pin] Currently allocated     0.00E+00 Mbytes, locked:    0 /   0

     iteration # 32     ecut=    90.00 Ry     beta= 0.40
     Davidson diagonalization with overlap

---- Real-time Memory Report at c_bands before calling an iterative solver
          5032 MiB given to the printing process from OS
             7 MiB allocation reported by mallinfo(arena+hblkhd)
         54878 MiB available memory on the node where the printing process lives
     GPU memory used/free/total (MiB): 3342 / 12938 / 16280
------------------
     ethr =  3.05E-07,  avg # of iterations =  1.6

     negative rho (up, down):  0.000E+00 3.400E-04

     total cpu time spent up to now is      716.5 secs

     total energy              =    -961.18842069 Ry
     estimated scf accuracy    <       0.00048874 Ry

     total magnetization       =     5.72 Bohr mag/cell
     absolute magnetization    =     5.75 Bohr mag/cell
[tb_dev] Currently allocated     1.30E+01 Mbytes, locked:    0 /  15
[tb_pin] Currently allocated     0.00E+00 Mbytes, locked:    0 /   0

     iteration # 33     ecut=    90.00 Ry     beta= 0.40
     Davidson diagonalization with overlap

---- Real-time Memory Report at c_bands before calling an iterative solver
          5034 MiB given to the printing process from OS
             9 MiB allocation reported by mallinfo(arena+hblkhd)
         54878 MiB available memory on the node where the printing process lives
     GPU memory used/free/total (MiB): 3342 / 12938 / 16280
------------------
     ethr =  3.05E-07,  avg # of iterations =  2.0

     negative rho (up, down):  0.000E+00 3.231E-04

     total cpu time spent up to now is      740.1 secs

     total energy              =    -961.18896712 Ry
     estimated scf accuracy    <       0.00172902 Ry

     total magnetization       =     5.87 Bohr mag/cell
     absolute magnetization    =     5.91 Bohr mag/cell
[tb_dev] Currently allocated     1.30E+01 Mbytes, locked:    0 /  15
[tb_pin] Currently allocated     0.00E+00 Mbytes, locked:    0 /   0

     iteration # 34     ecut=    90.00 Ry     beta= 0.40
     Davidson diagonalization with overlap

---- Real-time Memory Report at c_bands before calling an iterative solver
          5037 MiB given to the printing process from OS
            21 MiB allocation reported by mallinfo(arena+hblkhd)
         54875 MiB available memory on the node where the printing process lives
     GPU memory used/free/total (MiB): 3342 / 12938 / 16280
------------------
     ethr =  3.05E-07,  avg # of iterations =  2.5

     negative rho (up, down):  0.000E+00 3.164E-04

     total cpu time spent up to now is      765.6 secs

     total energy              =    -961.19000066 Ry
     estimated scf accuracy    <       0.00045462 Ry

     total magnetization       =     5.66 Bohr mag/cell
     absolute magnetization    =     5.69 Bohr mag/cell
[tb_dev] Currently allocated     1.30E+01 Mbytes, locked:    0 /  15
[tb_pin] Currently allocated     0.00E+00 Mbytes, locked:    0 /   0

     iteration # 35     ecut=    90.00 Ry     beta= 0.40
     Davidson diagonalization with overlap

---- Real-time Memory Report at c_bands before calling an iterative solver
          5041 MiB given to the printing process from OS
            23 MiB allocation reported by mallinfo(arena+hblkhd)
         54870 MiB available memory on the node where the printing process lives
     GPU memory used/free/total (MiB): 3342 / 12938 / 16280
------------------
     ethr =  3.05E-07,  avg # of iterations =  2.0

     negative rho (up, down):  0.000E+00 3.162E-04

     total cpu time spent up to now is      787.5 secs

     total energy              =    -961.19023924 Ry
     estimated scf accuracy    <       0.00038449 Ry

     total magnetization       =     5.53 Bohr mag/cell
     absolute magnetization    =     5.56 Bohr mag/cell
[...]
     estimated scf accuracy    <       0.00067684 Ry

     total magnetization       =     5.70 Bohr mag/cell
     absolute magnetization    =     5.73 Bohr mag/cell
[tb_dev] Currently allocated     1.30E+01 Mbytes, locked:    0 /  15
[tb_pin] Currently allocated     0.00E+00 Mbytes, locked:    0 /   0

     iteration # 66     ecut=    90.00 Ry     beta= 0.40
     Davidson diagonalization with overlap

---- Real-time Memory Report at c_bands before calling an iterative solver
          5099 MiB given to the printing process from OS
            80 MiB allocation reported by mallinfo(arena+hblkhd)
         54815 MiB available memory on the node where the printing process lives
     GPU memory used/free/total (MiB): 3342 / 12938 / 16280
------------------
     ethr =  2.74E-07,  avg # of iterations =  1.0

     negative rho (up, down):  0.000E+00 3.217E-04

     total cpu time spent up to now is     1440.4 secs

     total energy              =    -961.18999811 Ry
     estimated scf accuracy    <       0.00062371 Ry

     total magnetization       =     5.68 Bohr mag/cell
     absolute magnetization    =     5.72 Bohr mag/cell
[tb_dev] Currently allocated     1.30E+01 Mbytes, locked:    0 /  15
[tb_pin] Currently allocated     0.00E+00 Mbytes, locked:    0 /   0

     iteration # 67     ecut=    90.00 Ry     beta= 0.40
     Davidson diagonalization with overlap

---- Real-time Memory Report at c_bands before calling an iterative solver
          5101 MiB given to the printing process from OS
            82 MiB allocation reported by mallinfo(arena+hblkhd)
         54811 MiB available memory on the node where the printing process lives
     GPU memory used/free/total (MiB): 3342 / 12938 / 16280
------------------
     ethr =  2.74E-07,  avg # of iterations =  1.5

     negative rho (up, down):  0.000E+00 3.087E-04

     total cpu time spent up to now is     1459.9 secs

     total energy              =    -961.18974530 Ry
     estimated scf accuracy    <       0.00052030 Ry

     total magnetization       =     5.62 Bohr mag/cell
     absolute magnetization    =     5.65 Bohr mag/cell
[tb_dev] Currently allocated     1.30E+01 Mbytes, locked:    0 /  15
[tb_pin] Currently allocated     0.00E+00 Mbytes, locked:    0 /   0

     iteration # 68     ecut=    90.00 Ry     beta= 0.40
     Davidson diagonalization with overlap

---- Real-time Memory Report at c_bands before calling an iterative solver
          5104 MiB given to the printing process from OS
            84 MiB allocation reported by mallinfo(arena+hblkhd)
         54811 MiB available memory on the node where the printing process lives
     GPU memory used/free/total (MiB): 3342 / 12938 / 16280
------------------
     ethr =  2.74E-07,  avg # of iterations =  2.4

     negative rho (up, down):  0.000E+00 3.006E-04

     total cpu time spent up to now is     1484.3 secs

     total energy              =    -961.19048690 Ry
     estimated scf accuracy    <       0.00059390 Ry

     total magnetization       =     5.39 Bohr mag/cell
     absolute magnetization    =     5.42 Bohr mag/cell
[tb_dev] Currently allocated     1.30E+01 Mbytes, locked:    0 /  15
[tb_pin] Currently allocated     0.00E+00 Mbytes, locked:    0 /   0

     iteration # 69     ecut=    90.00 Ry     beta= 0.40
     Davidson diagonalization with overlap

---- Real-time Memory Report at c_bands before calling an iterative solver
          5105 MiB given to the printing process from OS
            86 MiB allocation reported by mallinfo(arena+hblkhd)
         54807 MiB available memory on the node where the printing process lives
     GPU memory used/free/total (MiB): 3342 / 12938 / 16280
------------------
     ethr =  2.74E-07,  avg # of iterations =  2.0

     negative rho (up, down):  0.000E+00 2.997E-04

     total cpu time spent up to now is     1506.9 secs

     total energy              =    -961.19088926 Ry
     estimated scf accuracy    <       0.00086673 Ry

     total magnetization       =     5.23 Bohr mag/cell
     absolute magnetization    =     5.26 Bohr mag/cell
[tb_dev] Currently allocated     1.30E+01 Mbytes, locked:    0 /  15
[tb_pin] Currently allocated     0.00E+00 Mbytes, locked:    0 /   0

     iteration # 70     ecut=    90.00 Ry     beta= 0.40
     Davidson diagonalization with overlap

---- Real-time Memory Report at c_bands before calling an iterative solver
          5107 MiB given to the printing process from OS
            88 MiB allocation reported by mallinfo(arena+hblkhd)
         54785 MiB available memory on the node where the printing process lives
     GPU memory used/free/total (MiB): 3342 / 12938 / 16280
------------------
     ethr =  2.74E-07,  avg # of iterations =  1.0

     negative rho (up, down):  0.000E+00 2.995E-04

     total cpu time spent up to now is     1525.2 secs

     total energy              =    -961.19089562 Ry
     estimated scf accuracy    <       0.00098939 Ry

     total magnetization       =     5.20 Bohr mag/cell
     absolute magnetization    =     5.23 Bohr mag/cell
[tb_dev] Currently allocated     1.30E+01 Mbytes, locked:    0 /  15
[tb_pin] Currently allocated     0.00E+00 Mbytes, locked:    0 /   0

     iteration # 71     ecut=    90.00 Ry     beta= 0.40
     Davidson diagonalization with overlap

---- Real-time Memory Report at c_bands before calling an iterative solver
          5109 MiB given to the printing process from OS
            90 MiB allocation reported by mallinfo(arena+hblkhd)
         54793 MiB available memory on the node where the printing process lives
     GPU memory used/free/total (MiB): 3342 / 12938 / 16280
------------------
     ethr =  2.74E-07,  avg # of iterations =  1.0

     negative rho (up, down):  0.000E+00 3.448E-04

     total cpu time spent up to now is     1543.5 secs

     total energy              =    -961.17766107 Ry
     estimated scf accuracy    <       0.00093608 Ry

     total magnetization       =     5.20 Bohr mag/cell
     absolute magnetization    =     5.23 Bohr mag/cell
[tb_dev] Currently allocated     1.30E+01 Mbytes, locked:    0 /  15
[tb_pin] Currently allocated     0.00E+00 Mbytes, locked:    0 /   0

     iteration # 72     ecut=    90.00 Ry     beta= 0.40
     Davidson diagonalization with overlap

---- Real-time Memory Report at c_bands before calling an iterative solver
          5112 MiB given to the printing process from OS
            92 MiB allocation reported by mallinfo(arena+hblkhd)
         54794 MiB available memory on the node where the printing process lives
     GPU memory used/free/total (MiB): 3342 / 12938 / 16280
------------------
     ethr =  2.74E-07,  avg # of iterations =  4.0

     negative rho (up, down):  0.000E+00 3.315E-04

     total cpu time spent up to now is     1575.9 secs

     total energy              =    -961.18895832 Ry
     estimated scf accuracy    <       0.00274984 Ry

     total magnetization       =     5.93 Bohr mag/cell
     absolute magnetization    =     5.97 Bohr mag/cell
[tb_dev] Currently allocated     1.30E+01 Mbytes, locked:    0 /  15
[tb_pin] Currently allocated     0.00E+00 Mbytes, locked:    0 /   0

     iteration # 73     ecut=    90.00 Ry     beta= 0.40
     Davidson diagonalization with overlap

---- Real-time Memory Report at c_bands before calling an iterative solver
          5113 MiB given to the printing process from OS
            94 MiB allocation reported by mallinfo(arena+hblkhd)
         54795 MiB available memory on the node where the printing process lives
     GPU memory used/free/total (MiB): 3342 / 12938 / 16280
------------------
     ethr =  2.74E-07,  avg # of iterations =  2.0

     negative rho (up, down):  0.000E+00 3.766E-04

     total cpu time spent up to now is     1599.4 secs

     total energy              =    -961.17616302 Ry
     estimated scf accuracy    <       0.00069505 Ry

     total magnetization       =     5.83 Bohr mag/cell
     absolute magnetization    =     5.87 Bohr mag/cell
[tb_dev] Currently allocated     1.30E+01 Mbytes, locked:    0 /  15
[tb_pin] Currently allocated     0.00E+00 Mbytes, locked:    0 /   0

     iteration # 74     ecut=    90.00 Ry     beta= 0.40
     Davidson diagonalization with overlap

---- Real-time Memory Report at c_bands before calling an iterative solver
          5115 MiB given to the printing process from OS
            96 MiB allocation reported by mallinfo(arena+hblkhd)
         54793 MiB available memory on the node where the printing process lives
     GPU memory used/free/total (MiB): 3342 / 12938 / 16280
------------------
     ethr =  2.74E-07,  avg # of iterations =  4.1

     negative rho (up, down):  0.000E+00 3.770E-04

     total cpu time spent up to now is     1632.2 secs

     total energy              =    -961.18205176 Ry
     estimated scf accuracy    <       0.04130738 Ry

     total magnetization       =     5.93 Bohr mag/cell
     absolute magnetization    =     5.98 Bohr mag/cell
[tb_dev] Currently allocated     1.30E+01 Mbytes, locked:    0 /  15
[tb_pin] Currently allocated     0.00E+00 Mbytes, locked:    0 /   0

     iteration # 75     ecut=    90.00 Ry     beta= 0.40
     Davidson diagonalization with overlap

---- Real-time Memory Report at c_bands before calling an iterative solver
          5118 MiB given to the printing process from OS
            98 MiB allocation reported by mallinfo(arena+hblkhd)
         54794 MiB available memory on the node where the printing process lives
     GPU memory used/free/total (MiB): 3342 / 12938 / 16280
------------------
     ethr =  2.74E-07,  avg # of iterations =  1.0

     negative rho (up, down):  0.000E+00 3.767E-04

     total cpu time spent up to now is     1650.5 secs

     total energy              =    -961.18215831 Ry
     estimated scf accuracy    <       0.04030754 Ry

     total magnetization       =     5.94 Bohr mag/cell
     absolute magnetization    =     5.99 Bohr mag/cell
[tb_dev] Currently allocated     1.30E+01 Mbytes, locked:    0 /  15
[tb_pin] Currently allocated     0.00E+00 Mbytes, locked:    0 /   0

     iteration # 76     ecut=    90.00 Ry     beta= 0.40
     Davidson diagonalization with overlap

---- Real-time Memory Report at c_bands before calling an iterative solver
          5119 MiB given to the printing process from OS
           100 MiB allocation reported by mallinfo(arena+hblkhd)
         54788 MiB available memory on the node where the printing process lives
     GPU memory used/free/total (MiB): 3342 / 12938 / 16280
------------------
     ethr =  2.74E-07,  avg # of iterations =  1.0

     negative rho (up, down):  0.000E+00 3.359E-04

     total cpu time spent up to now is     1668.8 secs

     total energy              =    -961.18566087 Ry
     estimated scf accuracy    <       0.03930075 Ry

     total magnetization       =     5.94 Bohr mag/cell
     absolute magnetization    =     6.00 Bohr mag/cell
[tb_dev] Currently allocated     1.30E+01 Mbytes, locked:    0 /  15
[tb_pin] Currently allocated     0.00E+00 Mbytes, locked:    0 /   0

     iteration # 77     ecut=    90.00 Ry     beta= 0.40
     Davidson diagonalization with overlap

---- Real-time Memory Report at c_bands before calling an iterative solver
          5121 MiB given to the printing process from OS
           102 MiB allocation reported by mallinfo(arena+hblkhd)
         54792 MiB available memory on the node where the printing process lives
     GPU memory used/free/total (MiB): 3342 / 12938 / 16280
------------------
     ethr =  2.74E-07,  avg # of iterations =  4.0

     negative rho (up, down):  0.000E+00 2.598E-04

     total cpu time spent up to now is     1700.2 secs

     total energy              =    -961.16539130 Ry
     estimated scf accuracy    <       0.00099434 Ry

     total magnetization       =     5.87 Bohr mag/cell
     absolute magnetization    =     5.90 Bohr mag/cell
[tb_dev] Currently allocated     1.30E+01 Mbytes, locked:    0 /  15
[tb_pin] Currently allocated     0.00E+00 Mbytes, locked:    0 /   0

     iteration # 78     ecut=    90.00 Ry     beta= 0.40
     Davidson diagonalization with overlap

---- Real-time Memory Report at c_bands before calling an iterative solver
          5124 MiB given to the printing process from OS
           104 MiB allocation reported by mallinfo(arena+hblkhd)
         54787 MiB available memory on the node where the printing process lives
     GPU memory used/free/total (MiB): 3342 / 12938 / 16280
------------------
     ethr =  2.74E-07,  avg # of iterations =  6.0

     negative rho (up, down):  0.000E+00 2.608E-04

     total cpu time spent up to now is     1739.5 secs

     total energy              =    -961.19530565 Ry
     estimated scf accuracy    <       0.00578732 Ry

     total magnetization       =     4.25 Bohr mag/cell
     absolute magnetization    =     4.48 Bohr mag/cell
[tb_dev] Currently allocated     1.30E+01 Mbytes, locked:    0 /  15
[tb_pin] Currently allocated     0.00E+00 Mbytes, locked:    0 /   0

     iteration # 79     ecut=    90.00 Ry     beta= 0.40
     Davidson diagonalization with overlap

---- Real-time Memory Report at c_bands before calling an iterative solver
          5126 MiB given to the printing process from OS
           106 MiB allocation reported by mallinfo(arena+hblkhd)
         54786 MiB available memory on the node where the printing process lives
     GPU memory used/free/total (MiB): 3342 / 12938 / 16280
------------------
     ethr =  2.74E-07,  avg # of iterations =  1.0

     negative rho (up, down):  0.000E+00 2.599E-04

     total cpu time spent up to now is     1757.8 secs

     total energy              =    -961.19555019 Ry
     estimated scf accuracy    <       0.00550647 Ry

     total magnetization       =     4.28 Bohr mag/cell
     absolute magnetization    =     4.48 Bohr mag/cell
[tb_dev] Currently allocated     1.30E+01 Mbytes, locked:    0 /  15
[tb_pin] Currently allocated     0.00E+00 Mbytes, locked:    0 /   0

     iteration # 80     ecut=    90.00 Ry     beta= 0.40
     Davidson diagonalization with overlap

---- Real-time Memory Report at c_bands before calling an iterative solver
          5127 MiB given to the printing process from OS
           108 MiB allocation reported by mallinfo(arena+hblkhd)
         54787 MiB available memory on the node where the printing process lives
     GPU memory used/free/total (MiB): 3342 / 12938 / 16280
------------------
     ethr =  2.74E-07,  avg # of iterations =  1.0

     negative rho (up, down):  0.000E+00 3.224E-04

     total cpu time spent up to now is     1776.1 secs

     total energy              =    -961.16184495 Ry
     estimated scf accuracy    <       0.00571499 Ry

     total magnetization       =     4.26 Bohr mag/cell
     absolute magnetization    =     4.48 Bohr mag/cell

     End of self-consistent calculation

     convergence NOT achieved after  80 iterations: stopping

     Writing config to output data dir ./out/aiida.save/
 
     init_run     :     36.20s CPU     17.22s WALL (       1 calls)
     electrons    :   2197.39s CPU   1758.24s WALL (       1 calls)

     Called by init_run:
     wfcinit      :     10.75s CPU     13.01s WALL (       1 calls)
                                       13.01s GPU  (       1 calls)
     wfcinit:atom :      0.17s CPU      0.33s WALL (     452 calls)
                                        0.33s GPU  (     452 calls)
     wfcinit:wfcr :      6.20s CPU      7.08s WALL (     452 calls)
                                        7.08s GPU  (     452 calls)
     potinit      :     10.64s CPU      0.98s WALL (       1 calls)
     hinit0       :      7.83s CPU      1.96s WALL (       1 calls)

     Called by electrons:
     c_bands      :   1386.11s CPU   1421.84s WALL (      80 calls)
     sum_band     :    265.91s CPU    286.14s WALL (      80 calls)
     v_of_rho     :     79.34s CPU      7.21s WALL (      81 calls)
     v_h          :     13.74s CPU      1.23s WALL (      81 calls)
     v_xc         :     65.59s CPU      5.98s WALL (      81 calls)
     newd         :     94.80s CPU      9.06s WALL (      81 calls)
                                        9.06s GPU  (      81 calls)
     PAW_pot      :    302.93s CPU     27.56s WALL (      81 calls)
     mix_rho      :     46.21s CPU      4.46s WALL (      80 calls)

     Called by c_bands:
     init_us_2    :     75.14s CPU     81.71s WALL (   72772 calls)
     init_us_2:gp :     73.88s CPU     80.48s WALL (   72772 calls)
     cegterg      :   1188.51s CPU   1228.93s WALL (   36160 calls)

     Called by sum_band:
     sum_band:wei :      1.35s CPU      1.36s WALL (      80 calls)
                                        1.35s GPU  (      80 calls)
     sum_band:loo :    250.94s CPU    270.98s WALL (      80 calls)
                                      270.99s GPU  (      80 calls)
     sum_band:buf :     69.45s CPU     72.08s WALL (   36160 calls)
                                       71.86s GPU  (   36160 calls)
     sum_band:ini :     34.85s CPU     39.68s WALL (   36160 calls)
                                       39.48s GPU  (   36160 calls)
     sum_band:cal :      1.07s CPU     13.40s WALL (   36160 calls)
                                        7.15s GPU  (   36160 calls)
     sum_band:bec :      9.22s CPU      9.98s WALL (   36160 calls)
                                        9.74s GPU  (   36160 calls)
     addusdens    :      9.45s CPU      9.63s WALL (      80 calls)
                                        9.63s GPU  (      80 calls)
     addusd:skk   :      0.04s CPU      0.04s WALL (     240 calls)
                                        0.04s GPU  (     240 calls)

     Called by *egterg:
     cdiaghg      :    329.86s CPU    372.12s WALL (  106091 calls)
                                      371.41s GPU  (  106091 calls)
     cegterg:over :     23.36s CPU     23.72s WALL (   69931 calls)
     cegterg:upda :     37.03s CPU     39.38s WALL (   69931 calls)
     cegterg:last :     17.88s CPU     18.05s WALL (   60630 calls)
     h_psi        :    710.65s CPU    707.73s WALL (  106543 calls)
                                      706.20s GPU  (  106543 calls)
     s_psi        :     13.78s CPU     28.83s WALL (  106543 calls)
                                       26.01s GPU  (  106543 calls)
     g_psi        :      0.49s CPU      3.49s WALL (   69931 calls)
                                        3.04s GPU  (   69931 calls)

     Called by h_psi:
     h_psi:calbec :      3.39s CPU     21.20s WALL (  106543 calls)
                                       20.50s GPU  (  106543 calls)
     vloc_psi     :    643.46s CPU    643.42s WALL (  106543 calls)
                                      642.75s GPU  (  106543 calls)
     add_vuspsi   :     20.75s CPU     33.36s WALL (  106543 calls)
                                       32.66s GPU  (  106543 calls)

     General routines
     calbec       :      3.12s CPU      3.16s WALL (  142703 calls)
     fft          :      3.66s CPU      0.92s WALL (    2023 calls)
                                        0.70s GPU  (    1861 calls)
     ffts         :      0.16s CPU      0.06s WALL (     322 calls)
                                        0.01s GPU  (     160 calls)
     fftw         :     12.81s CPU    530.07s WALL (  657514 calls)
                                      525.87s GPU  (  657514 calls)
     interpolate  :      9.30s CPU      0.82s WALL (     162 calls)
     davcio       :      0.10s CPU      1.85s WALL (     470 calls)
 
     Parallel routines

     PAW routines
     PAW_pot      :    302.93s CPU     27.56s WALL (      81 calls)
     PAW_symme    :      0.10s CPU      0.02s WALL (     161 calls)
 
     PWSCF        :  37m16.71s CPU  29m38.65s WALL

 
   This run was terminated on:  17:46:40  22Oct2023            

=------------------------------------------------------------------------------=
   JOB DONE.
=------------------------------------------------------------------------------=
