
     Program PWSCF v.7.2 starts on 23Oct2023 at 18: 3:46 

     This program is part of the open-source Quantum ESPRESSO suite
     for quantum simulation of materials; please cite
         "P. Giannozzi et al., J. Phys.:Condens. Matter 21 395502 (2009);
         "P. Giannozzi et al., J. Phys.:Condens. Matter 29 465901 (2017);
         "P. Giannozzi et al., J. Chem. Phys. 152 154105 (2020);
          URL http://www.quantum-espresso.org", 
     in publications or presentations arising from this work. More details at
     http://www.quantum-espresso.org/quote

     Parallel version (MPI & OpenMP), running on      12 processor cores
     Number of MPI processes:                 1
     Threads/MPI process:                    12

     MPI processes distributed on     1 nodes
     60499 MiB available memory on the printing compute node when the environment starts
 
     Reading input from aiida.in

     Current dimensions of program PWSCF are:
     Max number of different atomic species (ntypx) = 10
     Max number of k-points (npk) =  40000
     Max angular momentum in pseudopotentials (lmaxx) =  4
     Message from routine setup:
     using ibrav=0 with symmetry is DISCOURAGED, use correct ibrav instead
 
     Subspace diagonalization in iterative solution of the eigenvalue problem:
     a serial algorithm will be used

 
     G-vector sticks info
     --------------------
     sticks:   dense  smooth     PW     G-vecs:    dense   smooth      PW
     Sum        7425    4337   1165               658565   293281   40485
 
     Using Slab Decomposition
 


     bravais-lattice index     =            0
     lattice parameter (alat)  =      19.7305  a.u.
     unit-cell volume          =   10488.4460 (a.u.)^3
     number of atoms/cell      =           14
     number of atomic types    =            2
     number of electrons       =       180.00
     number of Kohn-Sham states=          108
     kinetic-energy cutoff     =      35.0000  Ry
     charge density cutoff     =     240.0000  Ry
     scf convergence threshold =      2.8E-09
     mixing beta               =       0.2000
     number of iterations used =            8  plain     mixing
     Exchange-correlation= SLA  PW   PSX  PSC
                           (   1   4  10   8   0   0   0)

     GPU acceleration is ACTIVE.


     GPU used by master process:

        Device Number: 0
        Device name: Tesla P100-PCIE-16GB
        Compute capability : 60
        Ratio of single to double precision performance  : 2
        Memory Clock Rate (KHz): 715000
        Memory Bus Width (bits): 4096
        Peak Memory Bandwidth (GB/s): 732.16

     celldm(1)=  19.730508  celldm(2)=   0.000000  celldm(3)=   0.000000
     celldm(4)=   0.000000  celldm(5)=   0.000000  celldm(6)=   0.000000

     crystal axes: (cart. coord. in units of alat)
               a(1) = (   0.714017  -0.700129   0.000000 )  
               a(2) = (   0.714017   0.700129   0.000000 )  
               a(3) = (   0.000000   0.000000   1.365778 )  

     reciprocal axes: (cart. coord. in units 2 pi/alat)
               b(1) = (  0.700264 -0.714154  0.000000 )  
               b(2) = (  0.700264  0.714154 -0.000000 )  
               b(3) = ( -0.000000  0.000000  0.732183 )  


     PseudoPot. # 1 for Mo read from file:
     ./pseudo/Mo_ONCV_PBEsol-1.0.upf
     MD5 check sum: 5193ba6a20874d27c2ef80314d1b3445
     Pseudo is Norm-conserving, Zval = 14.0
     Generated using ONCVPSP code by D. R. Hamann
     Using radial grid of 1508 points,  6 beta functions with: 
                l(1) =   0
                l(2) =   0
                l(3) =   1
                l(4) =   1
                l(5) =   2
                l(6) =   2

     PseudoPot. # 2 for Te read from file:
     ./pseudo/te_pbesol_v1.uspp.F.UPF
     MD5 check sum: 44ee7635674656c288d8e9a9a9ffd7e3
     Pseudo is Ultrasoft + core correction, Zval =  6.0
     Generated by new atomic code, or converted to UPF format
     Using radial grid of  891 points,  5 beta functions with: 
                l(1) =   0
                l(2) =   0
                l(3) =   1
                l(4) =   1
                l(5) =   2
     Q(r) pseudized with  6 coefficients,  rinner =    1.800   1.800   1.800
                                                       1.800   1.800

     atomic species   valence    mass     pseudopotential
        Mo            14.00    95.96000     Mo( 1.00)
        Te             6.00   127.60000     Te( 1.00)

     Starting magnetic structure 
     atomic species   magnetization
        Mo           0.357
        Te           0.100

      8 Sym. Ops., with inversion, found ( 4 have fractional translation)


                                    s                        frac. trans.

      isym =  1     identity                                     

 cryst.   s( 1) = (     1          0          0      )
                  (     0          1          0      )
                  (     0          0          1      )

 cart.    s( 1) = (  1.0000000  0.0000000  0.0000000 )
                  (  0.0000000  1.0000000  0.0000000 )
                  (  0.0000000  0.0000000  1.0000000 )


      isym =  2     180 deg rotation - cart. axis [0,0,1]        

 cryst.   s( 2) = (    -1          0          0      )    f =( -0.5000000 )
                  (     0         -1          0      )       (  0.5000000 )
                  (     0          0          1      )       ( -0.5000000 )

 cart.    s( 2) = ( -1.0000000 -0.0000000  0.0000000 )    f =( -0.0000000 )
                  ( -0.0000000 -1.0000000  0.0000000 )       (  0.7001289 )
                  (  0.0000000  0.0000000  1.0000000 )       ( -0.6828890 )


      isym =  3     180 deg rotation - cart. axis [0,1,0]        

 cryst.   s( 3) = (     0         -1          0      )    f =(  0.5000000 )
                  (    -1          0          0      )       ( -0.5000000 )
                  (     0          0         -1      )       (  0.5000000 )

 cart.    s( 3) = ( -1.0000000  0.0000000  0.0000000 )    f =(  0.0000000 )
                  ( -0.0000000  1.0000000  0.0000000 )       ( -0.7001289 )
                  (  0.0000000  0.0000000 -1.0000000 )       (  0.6828890 )


      isym =  4     180 deg rotation - cart. axis [1,0,0]        

 cryst.   s( 4) = (     0          1          0      )
                  (     1          0          0      )
                  (     0          0         -1      )

 cart.    s( 4) = (  1.0000000 -0.0000000  0.0000000 )
                  (  0.0000000 -1.0000000  0.0000000 )
                  (  0.0000000  0.0000000 -1.0000000 )


      isym =  5     inversion                                    

 cryst.   s( 5) = (    -1          0          0      )
                  (     0         -1          0      )
                  (     0          0         -1      )

 cart.    s( 5) = ( -1.0000000 -0.0000000  0.0000000 )
                  ( -0.0000000 -1.0000000  0.0000000 )
                  (  0.0000000  0.0000000 -1.0000000 )


      isym =  6     inv. 180 deg rotation - cart. axis [0,0,1]   

 cryst.   s( 6) = (     1          0          0      )    f =(  0.5000000 )
                  (     0          1          0      )       ( -0.5000000 )
                  (     0          0         -1      )       (  0.5000000 )

 cart.    s( 6) = (  1.0000000  0.0000000  0.0000000 )    f =(  0.0000000 )
                  (  0.0000000  1.0000000  0.0000000 )       ( -0.7001289 )
                  (  0.0000000  0.0000000 -1.0000000 )       (  0.6828890 )


      isym =  7     inv. 180 deg rotation - cart. axis [0,1,0]   

 cryst.   s( 7) = (     0          1          0      )    f =( -0.5000000 )
                  (     1          0          0      )       (  0.5000000 )
                  (     0          0          1      )       ( -0.5000000 )

 cart.    s( 7) = (  1.0000000 -0.0000000  0.0000000 )    f =( -0.0000000 )
                  (  0.0000000 -1.0000000  0.0000000 )       (  0.7001289 )
                  (  0.0000000  0.0000000  1.0000000 )       ( -0.6828890 )


      isym =  8     inv. 180 deg rotation - cart. axis [1,0,0]   

 cryst.   s( 8) = (     0         -1          0      )
                  (    -1          0          0      )
                  (     0          0          1      )

 cart.    s( 8) = ( -1.0000000  0.0000000  0.0000000 )
                  ( -0.0000000  1.0000000  0.0000000 )
                  (  0.0000000  0.0000000  1.0000000 )


   Cartesian axes

     site n.     atom                  positions (alat units)
         1           Te  tau(   1) = (   0.0000000   0.0000000   0.0000000  )
         2           Te  tau(   2) = (   0.0000000   0.7001289   0.6828890  )
         3           Mo  tau(   3) = (   1.0396080   0.7001289   0.0000000  )
         4           Mo  tau(   4) = (   1.1024415   0.7001289   0.6828890  )
         5           Mo  tau(   5) = (   0.3884250   0.7001289   0.0000000  )
         6           Mo  tau(   6) = (   0.3255915   0.7001289   0.6828890  )
         7           Mo  tau(   7) = (   0.8868085   0.5418997   0.2294507  )
         8           Mo  tau(   8) = (   1.2552410   0.5418997   0.4534383  )
         9           Mo  tau(   9) = (   1.2552410   0.8583580   0.9123397  )
        10           Mo  tau(  10) = (   0.8868085   0.8583580   1.1363273  )
        11           Mo  tau(  11) = (   0.5412245   0.8583580   1.1363273  )
        12           Mo  tau(  12) = (   0.1727920   0.8583580   0.9123397  )
        13           Mo  tau(  13) = (   0.1727920   0.5418997   0.4534383  )
        14           Mo  tau(  14) = (   0.5412245   0.5418997   0.2294507  )

   Crystallographic axes

     site n.     atom                  positions (cryst. coord.)
         1           Te  tau(   1) = (  0.0000000  0.0000000  0.0000000  )
         2           Te  tau(   2) = ( -0.5000000  0.5000000  0.5000000  )
         3           Mo  tau(   3) = (  0.2280000  1.2280000  0.0000000  )
         4           Mo  tau(   4) = (  0.2720000  1.2720000  0.5000000  )
         5           Mo  tau(   5) = ( -0.2280000  0.7720000  0.0000000  )
         6           Mo  tau(   6) = ( -0.2720000  0.7280000  0.5000000  )
         7           Mo  tau(   7) = (  0.2340000  1.0080000  0.1680000  )
         8           Mo  tau(   8) = (  0.4920000  1.2660000  0.3320000  )
         9           Mo  tau(   9) = (  0.2660000  1.4920000  0.6680000  )
        10           Mo  tau(  10) = (  0.0080000  1.2340000  0.8320000  )
        11           Mo  tau(  11) = ( -0.2340000  0.9920000  0.8320000  )
        12           Mo  tau(  12) = ( -0.4920000  0.7340000  0.6680000  )
        13           Mo  tau(  13) = ( -0.2660000  0.5080000  0.3320000  )
        14           Mo  tau(  14) = ( -0.0080000  0.7660000  0.1680000  )

     number of k points=    18  Marzari-Vanderbilt smearing, width (Ry)=  0.0100
                       cart. coord. in units 2pi/alat
        k(    1) = (   0.0000000   0.0000000   0.0000000), wk =   0.0133333
        k(    2) = (   0.0000000   0.0000000   0.2440611), wk =   0.0266667
        k(    3) = (   0.1400528   0.1428308   0.0000000), wk =   0.0533333
        k(    4) = (   0.1400528   0.1428308   0.2440611), wk =   0.1066667
        k(    5) = (   0.2801056   0.2856617   0.0000000), wk =   0.0533333
        k(    6) = (   0.2801056   0.2856617   0.2440611), wk =   0.1066667
        k(    7) = (   0.2801056   0.0000000   0.0000000), wk =   0.0266667
        k(    8) = (   0.2801056   0.0000000   0.2440611), wk =   0.0533333
        k(    9) = (   0.4201584   0.1428308   0.0000000), wk =   0.0533333
        k(   10) = (   0.4201584   0.1428308   0.2440611), wk =   0.1066667
        k(   11) = (  -0.1400528  -0.4284925   0.0000000), wk =   0.0533333
        k(   12) = (  -0.1400528  -0.4284925   0.2440611), wk =   0.1066667
        k(   13) = (   0.0000000  -0.2856617   0.0000000), wk =   0.0266667
        k(   14) = (   0.0000000  -0.2856617   0.2440611), wk =   0.0533333
        k(   15) = (   0.5602111   0.0000000   0.0000000), wk =   0.0266667
        k(   16) = (   0.5602111   0.0000000   0.2440611), wk =   0.0533333
        k(   17) = (   0.0000000  -0.5713234   0.0000000), wk =   0.0266667
        k(   18) = (   0.0000000  -0.5713234   0.2440611), wk =   0.0533333

                       cryst. coord.
        k(    1) = (   0.0000000   0.0000000   0.0000000), wk =   0.0133333
        k(    2) = (   0.0000000   0.0000000   0.3333333), wk =   0.0266667
        k(    3) = (   0.0000000   0.2000000   0.0000000), wk =   0.0533333
        k(    4) = (   0.0000000   0.2000000   0.3333333), wk =   0.1066667
        k(    5) = (   0.0000000   0.4000000   0.0000000), wk =   0.0533333
        k(    6) = (   0.0000000   0.4000000   0.3333333), wk =   0.1066667
        k(    7) = (   0.2000000   0.2000000   0.0000000), wk =   0.0266667
        k(    8) = (   0.2000000   0.2000000   0.3333333), wk =   0.0533333
        k(    9) = (   0.2000000   0.4000000   0.0000000), wk =   0.0533333
        k(   10) = (   0.2000000   0.4000000   0.3333333), wk =   0.1066667
        k(   11) = (   0.2000000  -0.4000000   0.0000000), wk =   0.0533333
        k(   12) = (   0.2000000  -0.4000000   0.3333333), wk =   0.1066667
        k(   13) = (   0.2000000  -0.2000000   0.0000000), wk =   0.0266667
        k(   14) = (   0.2000000  -0.2000000   0.3333333), wk =   0.0533333
        k(   15) = (   0.4000000   0.4000000   0.0000000), wk =   0.0266667
        k(   16) = (   0.4000000   0.4000000   0.3333333), wk =   0.0533333
        k(   17) = (   0.4000000  -0.4000000   0.0000000), wk =   0.0266667
        k(   18) = (   0.4000000  -0.4000000   0.3333333), wk =   0.0533333

     Dense  grid:   658565 G-vectors     FFT dimensions: ( 100, 100, 144)

     Smooth grid:   293281 G-vectors     FFT dimensions: (  80,  80, 108)

     Dynamical RAM for                 wfc:      60.44 MB

     Dynamical RAM for     wfc (w. buffer):    2236.16 MB

     Dynamical RAM for           str. fact:      20.10 MB

     Dynamical RAM for           local pot:       0.00 MB

     Dynamical RAM for          nlocal pot:     135.42 MB

     Dynamical RAM for                qrad:       2.49 MB

     Dynamical RAM for          rho,v,vnew:     126.21 MB

     Dynamical RAM for               rhoin:      42.07 MB

     Dynamical RAM for            rho*nmix:     321.56 MB

     Dynamical RAM for           G-vectors:      39.92 MB

     Dynamical RAM for          h,s,v(r/c):       2.14 MB

     Dynamical RAM for          <psi|beta>:       0.40 MB

     Dynamical RAM for                 psi:     120.87 MB

     Dynamical RAM for                hpsi:     120.87 MB

     Dynamical RAM for                spsi:     120.87 MB

     Dynamical RAM for      wfcinit/wfcrot:     121.14 MB

     Dynamical RAM for           addusdens:    1095.33 MB

     Dynamical RAM for          addusforce:    1115.44 MB

     Dynamical RAM for         addusstress:    1230.99 MB

     Estimated static dynamical RAM per process >       2.64 GB

     Estimated max dynamical RAM per process >       4.15 GB

     Atomic positions and unit cell read from directory:
     ./out/aiida.save/
 
     Generating pointlists ...
     new r_m :   0.1311 (alat units)  2.5870 (a.u.) for type    1
     new r_m :   0.1343 (alat units)  2.6499 (a.u.) for type    2

     The initial density is read from file :
     ./out/aiida.save/charge-density

     Starting wfcs from file

     total cpu time spent up to now is        4.6 secs

     per-process dynamical memory:   757.7 Mb

     Self-consistent Calculation
[tb_dev] Currently allocated     1.07E-04 Mbytes, locked:    0 /   2
[tb_pin] Currently allocated     0.00E+00 Mbytes, locked:    0 /   0

     iteration #  1     ecut=    35.00 Ry     beta= 0.20
     Davidson diagonalization with overlap

---- Real-time Memory Report at c_bands before calling an iterative solver
           882 MiB given to the printing process from OS
           780 MiB allocation reported by mallinfo(arena+hblkhd)
         59295 MiB available memory on the node where the printing process lives
     GPU memory used/free/total (MiB): 1662 / 14618 / 16280
------------------
     ethr =  1.00E-05,  avg # of iterations =  1.8

     Threshold (ethr) on eigenvalues was too large:
     Diagonalizing with lowered threshold

     Davidson diagonalization with overlap

---- Real-time Memory Report at c_bands before calling an iterative solver
          3482 MiB given to the printing process from OS
          -830 MiB allocation reported by mallinfo(arena+hblkhd)
         53939 MiB available memory on the node where the printing process lives
     GPU memory used/free/total (MiB): 4002 / 12278 / 16280
------------------
     ethr =  1.82E-07,  avg # of iterations =  1.0

     total cpu time spent up to now is       25.6 secs

     total energy              =   -1692.76469424 Ry
     estimated scf accuracy    <       0.00032671 Ry

     total magnetization       =    36.00 Bohr mag/cell
     absolute magnetization    =    44.41 Bohr mag/cell
[tb_dev] Currently allocated     1.54E+01 Mbytes, locked:    0 /   8
[tb_pin] Currently allocated     0.00E+00 Mbytes, locked:    0 /   0

     iteration #  2     ecut=    35.00 Ry     beta= 0.20
     Davidson diagonalization with overlap

---- Real-time Memory Report at c_bands before calling an iterative solver
          3682 MiB given to the printing process from OS
          -686 MiB allocation reported by mallinfo(arena+hblkhd)
         53797 MiB available memory on the node where the printing process lives
     GPU memory used/free/total (MiB): 4014 / 12266 / 16280
------------------
     ethr =  1.82E-07,  avg # of iterations =  2.9

     total cpu time spent up to now is       35.6 secs

     total energy              =   -1692.76476313 Ry
     estimated scf accuracy    <       0.00014626 Ry

     total magnetization       =    36.00 Bohr mag/cell
     absolute magnetization    =    44.42 Bohr mag/cell
[tb_dev] Currently allocated     1.54E+01 Mbytes, locked:    0 /   8
[tb_pin] Currently allocated     0.00E+00 Mbytes, locked:    0 /   0

     iteration #  3     ecut=    35.00 Ry     beta= 0.20
     Davidson diagonalization with overlap

---- Real-time Memory Report at c_bands before calling an iterative solver
          3709 MiB given to the printing process from OS
          -659 MiB allocation reported by mallinfo(arena+hblkhd)
         53772 MiB available memory on the node where the printing process lives
     GPU memory used/free/total (MiB): 4440 / 11840 / 16280
------------------
     c_bands:  1 eigenvalues not converged
     ethr =  8.13E-08,  avg # of iterations =  7.9

     total cpu time spent up to now is       49.1 secs

     total energy              =   -1692.76480381 Ry
     estimated scf accuracy    <       0.00084028 Ry

     total magnetization       =    36.00 Bohr mag/cell
     absolute magnetization    =    44.50 Bohr mag/cell
[tb_dev] Currently allocated     1.54E+01 Mbytes, locked:    0 /   8
[tb_pin] Currently allocated     0.00E+00 Mbytes, locked:    0 /   0

     iteration #  4     ecut=    35.00 Ry     beta= 0.20
     Davidson diagonalization with overlap

---- Real-time Memory Report at c_bands before calling an iterative solver
          3718 MiB given to the printing process from OS
          -650 MiB allocation reported by mallinfo(arena+hblkhd)
         53765 MiB available memory on the node where the printing process lives
     GPU memory used/free/total (MiB): 5004 / 11276 / 16280
------------------
     ethr =  8.13E-08,  avg # of iterations =  2.0

     total cpu time spent up to now is       58.6 secs

     total energy              =   -1692.76478086 Ry
     estimated scf accuracy    <       0.00056340 Ry

     total magnetization       =    36.00 Bohr mag/cell
     absolute magnetization    =    44.51 Bohr mag/cell
[tb_dev] Currently allocated     1.54E+01 Mbytes, locked:    0 /   8
[tb_pin] Currently allocated     0.00E+00 Mbytes, locked:    0 /   0

     iteration #  5     ecut=    35.00 Ry     beta= 0.20
     Davidson diagonalization with overlap

---- Real-time Memory Report at c_bands before calling an iterative solver
          3754 MiB given to the printing process from OS
          -615 MiB allocation reported by mallinfo(arena+hblkhd)
         53730 MiB available memory on the node where the printing process lives
     GPU memory used/free/total (MiB): 5004 / 11276 / 16280
------------------
     c_bands:  1 eigenvalues not converged
     c_bands:  1 eigenvalues not converged
     ethr =  8.13E-08,  avg # of iterations =  7.5

     total cpu time spent up to now is       71.0 secs

     total energy              =   -1692.76490831 Ry
     estimated scf accuracy    <       0.00008505 Ry

     total magnetization       =    36.00 Bohr mag/cell
     absolute magnetization    =    44.46 Bohr mag/cell
[tb_dev] Currently allocated     1.54E+01 Mbytes, locked:    0 /   8
[tb_pin] Currently allocated     0.00E+00 Mbytes, locked:    0 /   0

     iteration #  6     ecut=    35.00 Ry     beta= 0.20
     Davidson diagonalization with overlap

---- Real-time Memory Report at c_bands before calling an iterative solver
          3763 MiB given to the printing process from OS
          -606 MiB allocation reported by mallinfo(arena+hblkhd)
         53721 MiB available memory on the node where the printing process lives
     GPU memory used/free/total (MiB): 5004 / 11276 / 16280
------------------
     c_bands:  2 eigenvalues not converged
     c_bands:  2 eigenvalues not converged
     ethr =  4.73E-08,  avg # of iterations =  8.5

     total cpu time spent up to now is       85.0 secs

     total energy              =   -1692.76494924 Ry
     estimated scf accuracy    <       0.00010647 Ry

     total magnetization       =    36.00 Bohr mag/cell
     absolute magnetization    =    44.45 Bohr mag/cell
[tb_dev] Currently allocated     1.54E+01 Mbytes, locked:    0 /   8
[tb_pin] Currently allocated     0.00E+00 Mbytes, locked:    0 /   0

     iteration #  7     ecut=    35.00 Ry     beta= 0.20
     Davidson diagonalization with overlap

---- Real-time Memory Report at c_bands before calling an iterative solver
          3799 MiB given to the printing process from OS
          -570 MiB allocation reported by mallinfo(arena+hblkhd)
         53686 MiB available memory on the node where the printing process lives
     GPU memory used/free/total (MiB): 5004 / 11276 / 16280
------------------
     c_bands:  1 eigenvalues not converged
     c_bands:  3 eigenvalues not converged
     c_bands:  4 eigenvalues not converged
     c_bands:  3 eigenvalues not converged
     c_bands:  2 eigenvalues not converged
     c_bands:  2 eigenvalues not converged
     c_bands:  4 eigenvalues not converged
     c_bands:  3 eigenvalues not converged
     c_bands:  1 eigenvalues not converged
     c_bands:  2 eigenvalues not converged
     c_bands:  2 eigenvalues not converged
     ethr =  4.73E-08,  avg # of iterations = 10.1

     total cpu time spent up to now is      100.1 secs

     total energy              =   -1692.76511654 Ry
     estimated scf accuracy    <       0.00061822 Ry

     total magnetization       =    36.00 Bohr mag/cell
     absolute magnetization    =    44.52 Bohr mag/cell
[tb_dev] Currently allocated     1.54E+01 Mbytes, locked:    0 /   8
[tb_pin] Currently allocated     0.00E+00 Mbytes, locked:    0 /   0

     iteration #  8     ecut=    35.00 Ry     beta= 0.20
     Davidson diagonalization with overlap

---- Real-time Memory Report at c_bands before calling an iterative solver
          3817 MiB given to the printing process from OS
          -552 MiB allocation reported by mallinfo(arena+hblkhd)
         53652 MiB available memory on the node where the printing process lives
     GPU memory used/free/total (MiB): 5004 / 11276 / 16280
------------------
     c_bands:  4 eigenvalues not converged
     c_bands:  2 eigenvalues not converged
     c_bands:  4 eigenvalues not converged
     c_bands:  3 eigenvalues not converged
     c_bands:  5 eigenvalues not converged
     c_bands:  5 eigenvalues not converged
     c_bands:  4 eigenvalues not converged
     c_bands:  4 eigenvalues not converged
     c_bands:  1 eigenvalues not converged
     c_bands:  1 eigenvalues not converged
     c_bands:  3 eigenvalues not converged
     c_bands:  4 eigenvalues not converged
     c_bands:  1 eigenvalues not converged
     ethr =  4.73E-08,  avg # of iterations = 11.9

     total cpu time spent up to now is      117.7 secs

     total energy              =   -1692.76530477 Ry
     estimated scf accuracy    <       0.00357261 Ry

     total magnetization       =    36.00 Bohr mag/cell
     absolute magnetization    =    44.62 Bohr mag/cell
[tb_dev] Currently allocated     1.54E+01 Mbytes, locked:    0 /   8
[tb_pin] Currently allocated     0.00E+00 Mbytes, locked:    0 /   0

     iteration #  9     ecut=    35.00 Ry     beta= 0.20
     Davidson diagonalization with overlap

---- Real-time Memory Report at c_bands before calling an iterative solver
          3835 MiB given to the printing process from OS
          -534 MiB allocation reported by mallinfo(arena+hblkhd)
         53644 MiB available memory on the node where the printing process lives
     GPU memory used/free/total (MiB): 5004 / 11276 / 16280
------------------
     c_bands:  1 eigenvalues not converged
     c_bands:  2 eigenvalues not converged
     c_bands:  1 eigenvalues not converged
     ethr =  4.73E-08,  avg # of iterations =  4.4
     Minimization algorithm failed to find Fermi energy: reverting to bisection
     Possible cause: smearing is larger than the electronic band-gap.

     total cpu time spent up to now is      128.2 secs

     total energy              =   -1692.76531576 Ry
     estimated scf accuracy    <       0.00361188 Ry

     total magnetization       =    36.00 Bohr mag/cell
     absolute magnetization    =    44.62 Bohr mag/cell
[tb_dev] Currently allocated     1.54E+01 Mbytes, locked:    0 /   8
[tb_pin] Currently allocated     0.00E+00 Mbytes, locked:    0 /   0

     iteration # 10     ecut=    35.00 Ry     beta= 0.20
     Davidson diagonalization with overlap

---- Real-time Memory Report at c_bands before calling an iterative solver
          3861 MiB given to the printing process from OS
          -507 MiB allocation reported by mallinfo(arena+hblkhd)
         53609 MiB available memory on the node where the printing process lives
     GPU memory used/free/total (MiB): 5004 / 11276 / 16280
------------------
     c_bands:  1 eigenvalues not converged
     ethr =  4.73E-08,  avg # of iterations =  1.7

     total cpu time spent up to now is      137.4 secs

     total energy              =   -1692.76533572 Ry
     estimated scf accuracy    <       0.00400050 Ry

     total magnetization       =    36.00 Bohr mag/cell
     absolute magnetization    =    44.62 Bohr mag/cell
[tb_dev] Currently allocated     1.54E+01 Mbytes, locked:    0 /   8
[tb_pin] Currently allocated     0.00E+00 Mbytes, locked:    0 /   0

     iteration # 11     ecut=    35.00 Ry     beta= 0.20
     Davidson diagonalization with overlap

---- Real-time Memory Report at c_bands before calling an iterative solver
          3861 MiB given to the printing process from OS
          -507 MiB allocation reported by mallinfo(arena+hblkhd)
         53613 MiB available memory on the node where the printing process lives
     GPU memory used/free/total (MiB): 5004 / 11276 / 16280
------------------
     ethr =  4.73E-08,  avg # of iterations =  1.7

     total cpu time spent up to now is      146.7 secs

     total energy              =   -1692.76521401 Ry
     estimated scf accuracy    <       0.00355862 Ry

     total magnetization       =    36.00 Bohr mag/cell
     absolute magnetization    =    44.63 Bohr mag/cell
[tb_dev] Currently allocated     1.54E+01 Mbytes, locked:    0 /   8
[tb_pin] Currently allocated     0.00E+00 Mbytes, locked:    0 /   0

     iteration # 12     ecut=    35.00 Ry     beta= 0.20
     Davidson diagonalization with overlap

---- Real-time Memory Report at c_bands before calling an iterative solver
          3861 MiB given to the printing process from OS
          -507 MiB allocation reported by mallinfo(arena+hblkhd)
         53615 MiB available memory on the node where the printing process lives
     GPU memory used/free/total (MiB): 5004 / 11276 / 16280
------------------
     c_bands:  1 eigenvalues not converged
     c_bands:  1 eigenvalues not converged
     c_bands:  1 eigenvalues not converged
     c_bands:  1 eigenvalues not converged
     c_bands:  1 eigenvalues not converged
     c_bands:  1 eigenvalues not converged
     c_bands:  2 eigenvalues not converged
     c_bands:  2 eigenvalues not converged
     c_bands:  2 eigenvalues not converged
     c_bands:  1 eigenvalues not converged
     ethr =  4.73E-08,  avg # of iterations = 12.7

     total cpu time spent up to now is      164.5 secs

     total energy              =   -1692.76541027 Ry
     estimated scf accuracy    <       0.00157088 Ry

     total magnetization       =    36.00 Bohr mag/cell
     absolute magnetization    =    44.64 Bohr mag/cell
[tb_dev] Currently allocated     1.54E+01 Mbytes, locked:    0 /   8
[tb_pin] Currently allocated     0.00E+00 Mbytes, locked:    0 /   0

     iteration # 13     ecut=    35.00 Ry     beta= 0.20
     Davidson diagonalization with overlap

---- Real-time Memory Report at c_bands before calling an iterative solver
          3862 MiB given to the printing process from OS
          -507 MiB allocation reported by mallinfo(arena+hblkhd)
         53616 MiB available memory on the node where the printing process lives
     GPU memory used/free/total (MiB): 5004 / 11276 / 16280
------------------
     c_bands:  2 eigenvalues not converged
     c_bands:  1 eigenvalues not converged
     c_bands:  2 eigenvalues not converged
     c_bands:  1 eigenvalues not converged
     c_bands:  1 eigenvalues not converged
     c_bands:  1 eigenvalues not converged
     ethr =  4.73E-08,  avg # of iterations =  8.8

     total cpu time spent up to now is      178.2 secs

     total energy              =   -1692.76482851 Ry
     estimated scf accuracy    <       0.00049715 Ry

     total magnetization       =    36.00 Bohr mag/cell
     absolute magnetization    =    44.59 Bohr mag/cell
[tb_dev] Currently allocated     1.54E+01 Mbytes, locked:    0 /   8
[tb_pin] Currently allocated     0.00E+00 Mbytes, locked:    0 /   0

     iteration # 14     ecut=    35.00 Ry     beta= 0.20
     Davidson diagonalization with overlap

---- Real-time Memory Report at c_bands before calling an iterative solver
          3862 MiB given to the printing process from OS
          -507 MiB allocation reported by mallinfo(arena+hblkhd)
         53618 MiB available memory on the node where the printing process lives
     GPU memory used/free/total (MiB): 5004 / 11276 / 16280
------------------
     c_bands:  1 eigenvalues not converged
     c_bands:  3 eigenvalues not converged
     c_bands:  4 eigenvalues not converged
     c_bands:  5 eigenvalues not converged
     c_bands:  5 eigenvalues not converged
     c_bands:  4 eigenvalues not converged
     c_bands:  3 eigenvalues not converged
     c_bands:  5 eigenvalues not converged
     c_bands:  3 eigenvalues not converged
     c_bands:  3 eigenvalues not converged
     c_bands:  3 eigenvalues not converged
     c_bands:  1 eigenvalues not converged
     c_bands:  4 eigenvalues not converged
     c_bands:  3 eigenvalues not converged
     c_bands:  2 eigenvalues not converged
     ethr =  4.73E-08,  avg # of iterations = 12.8
     Minimization algorithm failed to find Fermi energy: reverting to bisection
     Possible cause: smearing is larger than the electronic band-gap.

     total cpu time spent up to now is      196.7 secs

     total energy              =   -1692.76476150 Ry
     estimated scf accuracy    <       0.00028923 Ry

     total magnetization       =    36.00 Bohr mag/cell
     absolute magnetization    =    44.52 Bohr mag/cell
[tb_dev] Currently allocated     1.54E+01 Mbytes, locked:    0 /   8
[tb_pin] Currently allocated     0.00E+00 Mbytes, locked:    0 /   0

     iteration # 15     ecut=    35.00 Ry     beta= 0.20
     Davidson diagonalization with overlap

---- Real-time Memory Report at c_bands before calling an iterative solver
          3862 MiB given to the printing process from OS
          -507 MiB allocation reported by mallinfo(arena+hblkhd)
         53619 MiB available memory on the node where the printing process lives
     GPU memory used/free/total (MiB): 5004 / 11276 / 16280
------------------
     c_bands:  1 eigenvalues not converged
     c_bands:  1 eigenvalues not converged
     c_bands:  2 eigenvalues not converged
     c_bands:  2 eigenvalues not converged
     c_bands:  1 eigenvalues not converged
     c_bands:  1 eigenvalues not converged
     c_bands:  3 eigenvalues not converged
     c_bands:  1 eigenvalues not converged
     c_bands:  1 eigenvalues not converged
     c_bands:  3 eigenvalues not converged
     c_bands:  2 eigenvalues not converged
     c_bands:  1 eigenvalues not converged
     c_bands:  3 eigenvalues not converged
     c_bands:  1 eigenvalues not converged
     ethr =  4.73E-08,  avg # of iterations = 12.4

     total cpu time spent up to now is      213.8 secs

     total energy              =   -1692.76484636 Ry
     estimated scf accuracy    <       0.00010266 Ry

     total magnetization       =    36.00 Bohr mag/cell
     absolute magnetization    =    44.48 Bohr mag/cell
[tb_dev] Currently allocated     1.54E+01 Mbytes, locked:    0 /   8
[tb_pin] Currently allocated     0.00E+00 Mbytes, locked:    0 /   0

     iteration # 16     ecut=    35.00 Ry     beta= 0.20
     Davidson diagonalization with overlap

---- Real-time Memory Report at c_bands before calling an iterative solver
          3862 MiB given to the printing process from OS
          -507 MiB allocation reported by mallinfo(arena+hblkhd)
         53620 MiB available memory on the node where the printing process lives
     GPU memory used/free/total (MiB): 5004 / 11276 / 16280
------------------
     c_bands:  1 eigenvalues not converged
     c_bands:  1 eigenvalues not converged
     c_bands:  1 eigenvalues not converged
     c_bands:  3 eigenvalues not converged
     c_bands:  2 eigenvalues not converged
     c_bands:  1 eigenvalues not converged
     ethr =  4.73E-08,  avg # of iterations =  9.2

     total cpu time spent up to now is      227.2 secs

     total energy              =   -1692.76490072 Ry
     estimated scf accuracy    <       0.00040773 Ry

     total magnetization       =    36.00 Bohr mag/cell
     absolute magnetization    =    44.42 Bohr mag/cell
[tb_dev] Currently allocated     1.54E+01 Mbytes, locked:    0 /   8
[tb_pin] Currently allocated     0.00E+00 Mbytes, locked:    0 /   0

     iteration # 17     ecut=    35.00 Ry     beta= 0.20
     Davidson diagonalization with overlap

---- Real-time Memory Report at c_bands before calling an iterative solver
          3862 MiB given to the printing process from OS
          -507 MiB allocation reported by mallinfo(arena+hblkhd)
         53621 MiB available memory on the node where the printing process lives
     GPU memory used/free/total (MiB): 5004 / 11276 / 16280
------------------
     c_bands:  1 eigenvalues not converged
     c_bands:  1 eigenvalues not converged
     ethr =  4.73E-08,  avg # of iterations =  7.8

     total cpu time spent up to now is      239.9 secs

     total energy              =   -1692.76499626 Ry
     estimated scf accuracy    <       0.00005751 Ry

     total magnetization       =    36.00 Bohr mag/cell
     absolute magnetization    =    44.46 Bohr mag/cell
[tb_dev] Currently allocated     1.54E+01 Mbytes, locked:    0 /   8
[tb_pin] Currently allocated     0.00E+00 Mbytes, locked:    0 /   0

     iteration # 18     ecut=    35.00 Ry     beta= 0.20
     Davidson diagonalization with overlap

---- Real-time Memory Report at c_bands before calling an iterative solver
          3862 MiB given to the printing process from OS
          -507 MiB allocation reported by mallinfo(arena+hblkhd)
         53622 MiB available memory on the node where the printing process lives
     GPU memory used/free/total (MiB): 5004 / 11276 / 16280
------------------
     c_bands:  2 eigenvalues not converged
     c_bands:  3 eigenvalues not converged
     c_bands:  4 eigenvalues not converged
     c_bands:  1 eigenvalues not converged
     c_bands:  3 eigenvalues not converged
     c_bands:  1 eigenvalues not converged
     c_bands:  4 eigenvalues not converged
     c_bands:  2 eigenvalues not converged
     c_bands:  2 eigenvalues not converged
     c_bands:  4 eigenvalues not converged
     c_bands:  1 eigenvalues not converged
     c_bands:  3 eigenvalues not converged
     c_bands:  1 eigenvalues not converged
     ethr =  3.20E-08,  avg # of iterations = 12.0

     total cpu time spent up to now is      257.8 secs

     total energy              =   -1692.76516496 Ry
     estimated scf accuracy    <       0.00063352 Ry

     total magnetization       =    36.00 Bohr mag/cell
     absolute magnetization    =    44.53 Bohr mag/cell
[tb_dev] Currently allocated     1.54E+01 Mbytes, locked:    0 /   8
[tb_pin] Currently allocated     0.00E+00 Mbytes, locked:    0 /   0

     iteration # 19     ecut=    35.00 Ry     beta= 0.20
     Davidson diagonalization with overlap

---- Real-time Memory Report at c_bands before calling an iterative solver
          3862 MiB given to the printing process from OS
          -507 MiB allocation reported by mallinfo(arena+hblkhd)
         53622 MiB available memory on the node where the printing process lives
     GPU memory used/free/total (MiB): 5004 / 11276 / 16280
------------------
     c_bands:  1 eigenvalues not converged
     c_bands:  3 eigenvalues not converged
     c_bands:  2 eigenvalues not converged
     c_bands:  1 eigenvalues not converged
     c_bands:  1 eigenvalues not converged
     c_bands:  2 eigenvalues not converged
     c_bands:  2 eigenvalues not converged
     c_bands:  4 eigenvalues not converged
     c_bands:  1 eigenvalues not converged
     c_bands:  4 eigenvalues not converged
     ethr =  3.20E-08,  avg # of iterations =  8.8

     total cpu time spent up to now is      271.8 secs

     total energy              =   -1692.76478824 Ry
     estimated scf accuracy    <       0.00194969 Ry

     total magnetization       =    36.00 Bohr mag/cell
     absolute magnetization    =    44.57 Bohr mag/cell
[tb_dev] Currently allocated     1.54E+01 Mbytes, locked:    0 /   8
[tb_pin] Currently allocated     0.00E+00 Mbytes, locked:    0 /   0

     iteration # 20     ecut=    35.00 Ry     beta= 0.20
     Davidson diagonalization with overlap

---- Real-time Memory Report at c_bands before calling an iterative solver
          3862 MiB given to the printing process from OS
          -507 MiB allocation reported by mallinfo(arena+hblkhd)
         53623 MiB available memory on the node where the printing process lives
     GPU memory used/free/total (MiB): 5004 / 11276 / 16280
------------------
     c_bands:  2 eigenvalues not converged
     c_bands:  3 eigenvalues not converged
     c_bands:  1 eigenvalues not converged
     c_bands:  3 eigenvalues not converged
     c_bands:  1 eigenvalues not converged
     ethr =  3.20E-08,  avg # of iterations = 11.8

     total cpu time spent up to now is      289.6 secs

     total energy              =   -1692.76499700 Ry
     estimated scf accuracy    <       0.00366451 Ry

     total magnetization       =    36.00 Bohr mag/cell
     absolute magnetization    =    44.53 Bohr mag/cell
[tb_dev] Currently allocated     1.54E+01 Mbytes, locked:    0 /   8
[tb_pin] Currently allocated     0.00E+00 Mbytes, locked:    0 /   0

     iteration # 21     ecut=    35.00 Ry     beta= 0.20
     Davidson diagonalization with overlap

---- Real-time Memory Report at c_bands before calling an iterative solver
          3862 MiB given to the printing process from OS
          -507 MiB allocation reported by mallinfo(arena+hblkhd)
         53622 MiB available memory on the node where the printing process lives
     GPU memory used/free/total (MiB): 5004 / 11276 / 16280
------------------
     c_bands:  1 eigenvalues not converged
     c_bands:  1 eigenvalues not converged
     c_bands:  1 eigenvalues not converged
     c_bands:  1 eigenvalues not converged
     c_bands:  1 eigenvalues not converged
     c_bands:  1 eigenvalues not converged
     c_bands:  1 eigenvalues not converged
     ethr =  3.20E-08,  avg # of iterations = 12.1

     total cpu time spent up to now is      306.9 secs

     total energy              =   -1692.76521208 Ry
     estimated scf accuracy    <       0.00312723 Ry

     total magnetization       =    36.00 Bohr mag/cell
     absolute magnetization    =    44.61 Bohr mag/cell
[tb_dev] Currently allocated     1.54E+01 Mbytes, locked:    0 /   8
[tb_pin] Currently allocated     0.00E+00 Mbytes, locked:    0 /   0

     iteration # 22     ecut=    35.00 Ry     beta= 0.20
     Davidson diagonalization with overlap

---- Real-time Memory Report at c_bands before calling an iterative solver
          3862 MiB given to the printing process from OS
          -507 MiB allocation reported by mallinfo(arena+hblkhd)
         53623 MiB available memory on the node where the printing process lives
     GPU memory used/free/total (MiB): 5004 / 11276 / 16280
------------------
     c_bands:  1 eigenvalues not converged
     c_bands:  1 eigenvalues not converged
     c_bands:  1 eigenvalues not converged
     c_bands:  1 eigenvalues not converged
     c_bands:  2 eigenvalues not converged
     c_bands:  2 eigenvalues not converged
     c_bands:  2 eigenvalues not converged
     c_bands:  2 eigenvalues not converged
     c_bands:  1 eigenvalues not converged
     ethr =  3.20E-08,  avg # of iterations = 12.3
     Minimization algorithm failed to find Fermi energy: reverting to bisection
     Possible cause: smearing is larger than the electronic band-gap.

     total cpu time spent up to now is      324.8 secs

     total energy              =   -1692.76529858 Ry
     estimated scf accuracy    <       0.00222472 Ry

     total magnetization       =    36.00 Bohr mag/cell
     absolute magnetization    =    44.65 Bohr mag/cell
[tb_dev] Currently allocated     1.54E+01 Mbytes, locked:    0 /   8
[tb_pin] Currently allocated     0.00E+00 Mbytes, locked:    0 /   0

     iteration # 23     ecut=    35.00 Ry     beta= 0.20
     Davidson diagonalization with overlap

---- Real-time Memory Report at c_bands before calling an iterative solver
          3862 MiB given to the printing process from OS
          -507 MiB allocation reported by mallinfo(arena+hblkhd)
         53623 MiB available memory on the node where the printing process lives
     GPU memory used/free/total (MiB): 5004 / 11276 / 16280
------------------
     c_bands:  2 eigenvalues not converged
     c_bands:  3 eigenvalues not converged
     c_bands:  4 eigenvalues not converged
     c_bands:  4 eigenvalues not converged
     c_bands:  4 eigenvalues not converged
     c_bands:  3 eigenvalues not converged
     c_bands:  1 eigenvalues not converged
     c_bands:  2 eigenvalues not converged
     c_bands:  1 eigenvalues not converged
     c_bands:  3 eigenvalues not converged
     c_bands:  1 eigenvalues not converged
     c_bands:  2 eigenvalues not converged
     c_bands:  2 eigenvalues not converged
     c_bands:  4 eigenvalues not converged
     c_bands:  4 eigenvalues not converged
     c_bands:  1 eigenvalues not converged
     ethr =  3.20E-08,  avg # of iterations = 14.1

     total cpu time spent up to now is      344.6 secs

     total energy              =   -1692.76513994 Ry
     estimated scf accuracy    <       0.00103276 Ry

     total magnetization       =    36.00 Bohr mag/cell
     absolute magnetization    =    44.71 Bohr mag/cell
[tb_dev] Currently allocated     1.54E+01 Mbytes, locked:    0 /   8
[tb_pin] Currently allocated     0.00E+00 Mbytes, locked:    0 /   0

     iteration # 24     ecut=    35.00 Ry     beta= 0.20
     Davidson diagonalization with overlap

---- Real-time Memory Report at c_bands before calling an iterative solver
          3862 MiB given to the printing process from OS
          -507 MiB allocation reported by mallinfo(arena+hblkhd)
         53623 MiB available memory on the node where the printing process lives
     GPU memory used/free/total (MiB): 5004 / 11276 / 16280
------------------
     c_bands:  5 eigenvalues not converged
     c_bands:  3 eigenvalues not converged
     c_bands:  2 eigenvalues not converged
     c_bands:  5 eigenvalues not converged
     c_bands:  1 eigenvalues not converged
     c_bands:  5 eigenvalues not converged
     c_bands:  3 eigenvalues not converged
     c_bands:  2 eigenvalues not converged
     c_bands:  3 eigenvalues not converged
     c_bands:  1 eigenvalues not converged
     c_bands:  3 eigenvalues not converged
     c_bands:  2 eigenvalues not converged
     ethr =  3.20E-08,  avg # of iterations = 12.3

     total cpu time spent up to now is      362.7 secs

     total energy              =   -1692.76546991 Ry
     estimated scf accuracy    <       0.00155550 Ry

     total magnetization       =    36.00 Bohr mag/cell
     absolute magnetization    =    44.64 Bohr mag/cell
[tb_dev] Currently allocated     1.54E+01 Mbytes, locked:    0 /   8
[tb_pin] Currently allocated     0.00E+00 Mbytes, locked:    0 /   0

     iteration # 25     ecut=    35.00 Ry     beta= 0.20
     Davidson diagonalization with overlap

---- Real-time Memory Report at c_bands before calling an iterative solver
          3862 MiB given to the printing process from OS
          -507 MiB allocation reported by mallinfo(arena+hblkhd)
         53624 MiB available memory on the node where the printing process lives
     GPU memory used/free/total (MiB): 5004 / 11276 / 16280
------------------
     c_bands:  1 eigenvalues not converged
     c_bands:  2 eigenvalues not converged
     c_bands:  2 eigenvalues not converged
     c_bands:  1 eigenvalues not converged
     c_bands:  1 eigenvalues not converged
     c_bands:  2 eigenvalues not converged
     c_bands:  2 eigenvalues not converged
     c_bands:  2 eigenvalues not converged
     c_bands:  3 eigenvalues not converged
     c_bands:  1 eigenvalues not converged
     ethr =  3.20E-08,  avg # of iterations = 12.1

     total cpu time spent up to now is      380.0 secs

     total energy              =   -1692.76453595 Ry
     estimated scf accuracy    <       0.00182752 Ry

     total magnetization       =    36.00 Bohr mag/cell
     absolute magnetization    =    44.67 Bohr mag/cell
[tb_dev] Currently allocated     1.54E+01 Mbytes, locked:    0 /   8
[tb_pin] Currently allocated     0.00E+00 Mbytes, locked:    0 /   0

     iteration # 26     ecut=    35.00 Ry     beta= 0.20
     Davidson diagonalization with overlap

---- Real-time Memory Report at c_bands before calling an iterative solver
          3862 MiB given to the printing process from OS
          -507 MiB allocation reported by mallinfo(arena+hblkhd)
         53624 MiB available memory on the node where the printing process lives
     GPU memory used/free/total (MiB): 5004 / 11276 / 16280
------------------
     c_bands:  3 eigenvalues not converged
     c_bands:  3 eigenvalues not converged
     c_bands:  5 eigenvalues not converged
     c_bands:  3 eigenvalues not converged
     c_bands:  2 eigenvalues not converged
     c_bands:  3 eigenvalues not converged
     c_bands:  4 eigenvalues not converged
     c_bands:  3 eigenvalues not converged
     c_bands:  2 eigenvalues not converged
     c_bands:  5 eigenvalues not converged
     c_bands:  5 eigenvalues not converged
     c_bands:  2 eigenvalues not converged
     c_bands:  2 eigenvalues not converged
     c_bands:  3 eigenvalues not converged
     c_bands:  2 eigenvalues not converged
     ethr =  3.20E-08,  avg # of iterations = 14.9
     Minimization algorithm failed to find Fermi energy: reverting to bisection
     Possible cause: smearing is larger than the electronic band-gap.

     total cpu time spent up to now is      401.1 secs

     total energy              =   -1692.76521801 Ry
     estimated scf accuracy    <       0.00249098 Ry

     total magnetization       =    36.00 Bohr mag/cell
     absolute magnetization    =    44.60 Bohr mag/cell
[tb_dev] Currently allocated     1.54E+01 Mbytes, locked:    0 /   8
[tb_pin] Currently allocated     0.00E+00 Mbytes, locked:    0 /   0

     iteration # 27     ecut=    35.00 Ry     beta= 0.20
     Davidson diagonalization with overlap

---- Real-time Memory Report at c_bands before calling an iterative solver
          3862 MiB given to the printing process from OS
          -507 MiB allocation reported by mallinfo(arena+hblkhd)
         53624 MiB available memory on the node where the printing process lives
     GPU memory used/free/total (MiB): 5004 / 11276 / 16280
------------------
     c_bands:  5 eigenvalues not converged
     c_bands:  4 eigenvalues not converged
     c_bands:  3 eigenvalues not converged
     c_bands:  4 eigenvalues not converged
     c_bands:  3 eigenvalues not converged
     c_bands:  2 eigenvalues not converged
     c_bands:  3 eigenvalues not converged
     c_bands:  4 eigenvalues not converged
     c_bands:  2 eigenvalues not converged
     c_bands:  4 eigenvalues not converged
     c_bands:  1 eigenvalues not converged
     c_bands:  3 eigenvalues not converged
     c_bands:  2 eigenvalues not converged
     c_bands:  4 eigenvalues not converged
     c_bands:  4 eigenvalues not converged
     ethr =  3.20E-08,  avg # of iterations = 13.0

     total cpu time spent up to now is      420.4 secs

     total energy              =   -1692.76561866 Ry
     estimated scf accuracy    <       0.00127225 Ry

     total magnetization       =    36.00 Bohr mag/cell
     absolute magnetization    =    44.68 Bohr mag/cell
[tb_dev] Currently allocated     1.54E+01 Mbytes, locked:    0 /   8
[tb_pin] Currently allocated     0.00E+00 Mbytes, locked:    0 /   0

     iteration # 28     ecut=    35.00 Ry     beta= 0.20
     Davidson diagonalization with overlap

---- Real-time Memory Report at c_bands before calling an iterative solver
          3862 MiB given to the printing process from OS
          -507 MiB allocation reported by mallinfo(arena+hblkhd)
         53624 MiB available memory on the node where the printing process lives
     GPU memory used/free/total (MiB): 5004 / 11276 / 16280
------------------
     c_bands:  2 eigenvalues not converged
     c_bands:  2 eigenvalues not converged
     c_bands:  4 eigenvalues not converged
     c_bands:  3 eigenvalues not converged
     c_bands:  2 eigenvalues not converged
     c_bands:  5 eigenvalues not converged
     c_bands:  2 eigenvalues not converged
     c_bands:  1 eigenvalues not converged
     c_bands:  3 eigenvalues not converged
     c_bands:  1 eigenvalues not converged
     c_bands:  3 eigenvalues not converged
     c_bands:  3 eigenvalues not converged
     c_bands:  2 eigenvalues not converged
     c_bands:  5 eigenvalues not converged
     c_bands:  3 eigenvalues not converged
     c_bands:  3 eigenvalues not converged
     c_bands:  2 eigenvalues not converged
     c_bands:  2 eigenvalues not converged
     c_bands:  3 eigenvalues not converged
     ethr =  3.20E-08,  avg # of iterations = 18.0

     total cpu time spent up to now is      444.3 secs

     total energy              =   -1692.76768211 Ry
     estimated scf accuracy    <       0.00379442 Ry

     total magnetization       =    36.00 Bohr mag/cell
     absolute magnetization    =    44.72 Bohr mag/cell
[tb_dev] Currently allocated     1.54E+01 Mbytes, locked:    0 /   8
[tb_pin] Currently allocated     0.00E+00 Mbytes, locked:    0 /   0

     iteration # 29     ecut=    35.00 Ry     beta= 0.20
     Davidson diagonalization with overlap

---- Real-time Memory Report at c_bands before calling an iterative solver
          3862 MiB given to the printing process from OS
          -507 MiB allocation reported by mallinfo(arena+hblkhd)
         53624 MiB available memory on the node where the printing process lives
     GPU memory used/free/total (MiB): 5004 / 11276 / 16280
------------------
     c_bands:  1 eigenvalues not converged
     c_bands:  2 eigenvalues not converged
     c_bands:  1 eigenvalues not converged
     c_bands:  2 eigenvalues not converged
     c_bands:  3 eigenvalues not converged
     c_bands:  2 eigenvalues not converged
     c_bands:  1 eigenvalues not converged
     c_bands:  2 eigenvalues not converged
     c_bands:  2 eigenvalues not converged
     c_bands:  3 eigenvalues not converged
     c_bands:  2 eigenvalues not converged
     c_bands:  2 eigenvalues not converged
     c_bands:  1 eigenvalues not converged
     c_bands:  3 eigenvalues not converged
     c_bands:  2 eigenvalues not converged
     c_bands:  2 eigenvalues not converged
     ethr =  3.20E-08,  avg # of iterations = 13.2

     total cpu time spent up to now is      462.7 secs

     total energy              =   -1692.76818293 Ry
     estimated scf accuracy    <       0.02086869 Ry

     total magnetization       =    36.00 Bohr mag/cell
     absolute magnetization    =    44.75 Bohr mag/cell
[tb_dev] Currently allocated     1.54E+01 Mbytes, locked:    0 /   8
[tb_pin] Currently allocated     0.00E+00 Mbytes, locked:    0 /   0

     iteration # 30     ecut=    35.00 Ry     beta= 0.20
     Davidson diagonalization with overlap

---- Real-time Memory Report at c_bands before calling an iterative solver
          3862 MiB given to the printing process from OS
          -507 MiB allocation reported by mallinfo(arena+hblkhd)
         53624 MiB available memory on the node where the printing process lives
     GPU memory used/free/total (MiB): 5004 / 11276 / 16280
------------------
     c_bands:  2 eigenvalues not converged
     c_bands:  1 eigenvalues not converged
     c_bands:  4 eigenvalues not converged
     c_bands:  1 eigenvalues not converged
     c_bands:  3 eigenvalues not converged
     c_bands:  1 eigenvalues not converged
     c_bands:  1 eigenvalues not converged
     c_bands:  1 eigenvalues not converged
     c_bands:  2 eigenvalues not converged
     c_bands:  1 eigenvalues not converged
     c_bands:  2 eigenvalues not converged
     c_bands:  1 eigenvalues not converged
     c_bands:  2 eigenvalues not converged
     c_bands:  1 eigenvalues not converged
     c_bands:  3 eigenvalues not converged
     ethr =  3.20E-08,  avg # of iterations = 10.7

     total cpu time spent up to now is      476.7 secs

     total energy              =   -1692.76822329 Ry
     estimated scf accuracy    <       0.02715477 Ry

     total magnetization       =    36.00 Bohr mag/cell
     absolute magnetization    =    44.70 Bohr mag/cell
[tb_dev] Currently allocated     1.54E+01 Mbytes, locked:    0 /   8
[tb_pin] Currently allocated     0.00E+00 Mbytes, locked:    0 /   0

     iteration # 31     ecut=    35.00 Ry     beta= 0.20
     Davidson diagonalization with overlap

---- Real-time Memory Report at c_bands before calling an iterative solver
          3862 MiB given to the printing process from OS
          -507 MiB allocation reported by mallinfo(arena+hblkhd)
         53624 MiB available memory on the node where the printing process lives
     GPU memory used/free/total (MiB): 5004 / 11276 / 16280
------------------
     c_bands:  1 eigenvalues not converged
     c_bands:  1 eigenvalues not converged
     c_bands:  1 eigenvalues not converged
     c_bands:  1 eigenvalues not converged
     c_bands:  1 eigenvalues not converged
     c_bands:  1 eigenvalues not converged
     c_bands:  1 eigenvalues not converged
     c_bands:  1 eigenvalues not converged
     c_bands:  2 eigenvalues not converged
     ethr =  3.20E-08,  avg # of iterations =  8.1

     total cpu time spent up to now is      489.0 secs

     total energy              =   -1692.76877972 Ry
     estimated scf accuracy    <       0.02690525 Ry

     total magnetization       =    36.00 Bohr mag/cell
     absolute magnetization    =    44.70 Bohr mag/cell
[tb_dev] Currently allocated     1.54E+01 Mbytes, locked:    0 /   8
[tb_pin] Currently allocated     0.00E+00 Mbytes, locked:    0 /   0

     iteration # 32     ecut=    35.00 Ry     beta= 0.20
     Davidson diagonalization with overlap

---- Real-time Memory Report at c_bands before calling an iterative solver
          3862 MiB given to the printing process from OS
          -507 MiB allocation reported by mallinfo(arena+hblkhd)
         53624 MiB available memory on the node where the printing process lives
     GPU memory used/free/total (MiB): 5004 / 11276 / 16280
------------------
     c_bands:  2 eigenvalues not converged
     c_bands:  2 eigenvalues not converged
     c_bands:  1 eigenvalues not converged
     c_bands:  1 eigenvalues not converged
     c_bands:  1 eigenvalues not converged
     c_bands:  1 eigenvalues not converged
     c_bands:  1 eigenvalues not converged
     c_bands:  1 eigenvalues not converged
     c_bands:  1 eigenvalues not converged
     c_bands:  3 eigenvalues not converged
     ethr =  3.20E-08,  avg # of iterations =  8.6

     total cpu time spent up to now is      502.2 secs

     total energy              =   -1692.76788950 Ry
     estimated scf accuracy    <       0.02689646 Ry

     total magnetization       =    36.00 Bohr mag/cell
     absolute magnetization    =    44.74 Bohr mag/cell
[tb_dev] Currently allocated     1.54E+01 Mbytes, locked:    0 /   8
[tb_pin] Currently allocated     0.00E+00 Mbytes, locked:    0 /   0

     iteration # 33     ecut=    35.00 Ry     beta= 0.20
     Davidson diagonalization with overlap

---- Real-time Memory Report at c_bands before calling an iterative solver
          3862 MiB given to the printing process from OS
          -507 MiB allocation reported by mallinfo(arena+hblkhd)
         53624 MiB available memory on the node where the printing process lives
     GPU memory used/free/total (MiB): 5004 / 11276 / 16280
------------------
     c_bands:  2 eigenvalues not converged
     c_bands:  2 eigenvalues not converged
     c_bands:  3 eigenvalues not converged
     c_bands:  2 eigenvalues not converged
     c_bands:  2 eigenvalues not converged
     c_bands:  1 eigenvalues not converged
     c_bands:  3 eigenvalues not converged
     c_bands:  2 eigenvalues not converged
     c_bands:  1 eigenvalues not converged
     c_bands:  1 eigenvalues not converged
     c_bands:  1 eigenvalues not converged
     c_bands:  1 eigenvalues not converged
     c_bands:  2 eigenvalues not converged
     c_bands:  1 eigenvalues not converged
     c_bands:  2 eigenvalues not converged
     ethr =  3.20E-08,  avg # of iterations = 12.1

     total cpu time spent up to now is      518.4 secs

     total energy              =   -1692.77009672 Ry
     estimated scf accuracy    <       0.03259930 Ry

     total magnetization       =    36.00 Bohr mag/cell
     absolute magnetization    =    44.68 Bohr mag/cell
[tb_dev] Currently allocated     1.54E+01 Mbytes, locked:    0 /   8
[tb_pin] Currently allocated     0.00E+00 Mbytes, locked:    0 /   0

     iteration # 34     ecut=    35.00 Ry     beta= 0.20
     Davidson diagonalization with overlap

---- Real-time Memory Report at c_bands before calling an iterative solver
          3862 MiB given to the printing process from OS
          -507 MiB allocation reported by mallinfo(arena+hblkhd)
         53623 MiB available memory on the node where the printing process lives
     GPU memory used/free/total (MiB): 5004 / 11276 / 16280
------------------
     c_bands:  1 eigenvalues not converged
     c_bands:  2 eigenvalues not converged
     c_bands:  2 eigenvalues not converged
     c_bands:  2 eigenvalues not converged
     c_bands:  2 eigenvalues not converged
     c_bands:  2 eigenvalues not converged
     c_bands:  1 eigenvalues not converged
     c_bands:  3 eigenvalues not converged
     c_bands:  3 eigenvalues not converged
     c_bands:  5 eigenvalues not converged
     c_bands:  3 eigenvalues not converged
     c_bands:  4 eigenvalues not converged
     c_bands:  2 eigenvalues not converged
     c_bands:  3 eigenvalues not converged
     c_bands:  2 eigenvalues not converged
     c_bands:  2 eigenvalues not converged
     ethr =  3.20E-08,  avg # of iterations = 15.9

     total cpu time spent up to now is      540.0 secs

     total energy              =   -1692.77173576 Ry
     estimated scf accuracy    <       0.03643618 Ry

     total magnetization       =    36.00 Bohr mag/cell
     absolute magnetization    =    44.86 Bohr mag/cell
[tb_dev] Currently allocated     1.54E+01 Mbytes, locked:    0 /   8
[tb_pin] Currently allocated     0.00E+00 Mbytes, locked:    0 /   0

     iteration # 35     ecut=    35.00 Ry     beta= 0.20
     Davidson diagonalization with overlap

---- Real-time Memory Report at c_bands before calling an iterative solver
          3862 MiB given to the printing process from OS
          -507 MiB allocation reported by mallinfo(arena+hblkhd)
         53624 MiB available memory on the node where the printing process lives
     GPU memory used/free/total (MiB): 5004 / 11276 / 16280
------------------
     c_bands:  3 eigenvalues not converged
     c_bands:  1 eigenvalues not converged
     c_bands:  1 eigenvalues not converged
     c_bands:  1 eigenvalues not converged
     c_bands:  1 eigenvalues not converged
     c_bands:  1 eigenvalues not converged
     c_bands:  2 eigenvalues not converged
     c_bands:  2 eigenvalues not converged
     c_bands:  1 eigenvalues not converged
     c_bands:  2 eigenvalues not converged
     c_bands:  2 eigenvalues not converged
     c_bands:  2 eigenvalues not converged
     c_bands:  1 eigenvalues not converged
     ethr =  3.20E-08,  avg # of iterations = 11.4

     total cpu time spent up to now is      555.3 secs

     total energy              =   -1692.75964985 Ry
     estimated scf accuracy    <       0.03720760 Ry

     total magnetization       =    36.00 Bohr mag/cell
     absolute magnetization    =    44.92 Bohr mag/cell
[tb_dev] Currently allocated     1.54E+01 Mbytes, locked:    0 /   8
[tb_pin] Currently allocated     0.00E+00 Mbytes, locked:    0 /   0

     iteration # 36     ecut=    35.00 Ry     beta= 0.20
     Davidson diagonalization with overlap

---- Real-time Memory Report at c_bands before calling an iterative solver
          3862 MiB given to the printing process from OS
          -507 MiB allocation reported by mallinfo(arena+hblkhd)
         53597 MiB available memory on the node where the printing process lives
     GPU memory used/free/total (MiB): 5004 / 11276 / 16280
------------------
     c_bands:  1 eigenvalues not converged
     c_bands:  3 eigenvalues not converged
     c_bands:  3 eigenvalues not converged
     c_bands:  3 eigenvalues not converged
     c_bands:  5 eigenvalues not converged
     c_bands:  2 eigenvalues not converged
     c_bands:  3 eigenvalues not converged
     c_bands:  2 eigenvalues not converged
     c_bands:  2 eigenvalues not converged
     c_bands:  2 eigenvalues not converged
     c_bands:  3 eigenvalues not converged
     c_bands:  3 eigenvalues not converged
     c_bands:  3 eigenvalues not converged
     c_bands:  2 eigenvalues not converged
     c_bands:  3 eigenvalues not converged
     c_bands:  3 eigenvalues not converged
     c_bands:  2 eigenvalues not converged
     c_bands:  3 eigenvalues not converged
     ethr =  3.20E-08,  avg # of iterations = 23.9

     total cpu time spent up to now is      587.5 secs

     total energy              =   -1692.76574599 Ry
     estimated scf accuracy    <       0.00486537 Ry

     total magnetization       =    36.00 Bohr mag/cell
     absolute magnetization    =    44.58 Bohr mag/cell
[tb_dev] Currently allocated     1.54E+01 Mbytes, locked:    0 /   8
[tb_pin] Currently allocated     0.00E+00 Mbytes, locked:    0 /   0

     iteration # 37     ecut=    35.00 Ry     beta= 0.20
     Davidson diagonalization with overlap

---- Real-time Memory Report at c_bands before calling an iterative solver
          3862 MiB given to the printing process from OS
          -507 MiB allocation reported by mallinfo(arena+hblkhd)
         53617 MiB available memory on the node where the printing process lives
     GPU memory used/free/total (MiB): 5004 / 11276 / 16280
------------------
     c_bands:  1 eigenvalues not converged
     c_bands:  1 eigenvalues not converged
     c_bands:  1 eigenvalues not converged
     c_bands:  1 eigenvalues not converged
     c_bands:  1 eigenvalues not converged
     c_bands:  1 eigenvalues not converged
     c_bands:  1 eigenvalues not converged
     c_bands:  1 eigenvalues not converged
     ethr =  3.20E-08,  avg # of iterations =  9.4

     total cpu time spent up to now is      602.0 secs

     total energy              =   -1692.76576859 Ry
     estimated scf accuracy    <       0.00801743 Ry

     total magnetization       =    36.00 Bohr mag/cell
     absolute magnetization    =    44.59 Bohr mag/cell
[tb_dev] Currently allocated     1.54E+01 Mbytes, locked:    0 /   8
[tb_pin] Currently allocated     0.00E+00 Mbytes, locked:    0 /   0

     iteration # 38     ecut=    35.00 Ry     beta= 0.20
     Davidson diagonalization with overlap

---- Real-time Memory Report at c_bands before calling an iterative solver
          3862 MiB given to the printing process from OS
          -507 MiB allocation reported by mallinfo(arena+hblkhd)
         53619 MiB available memory on the node where the printing process lives
     GPU memory used/free/total (MiB): 5004 / 11276 / 16280
------------------
     c_bands:  1 eigenvalues not converged
     c_bands:  2 eigenvalues not converged
     ethr =  3.20E-08,  avg # of iterations = 10.6
     Minimization algorithm failed to find Fermi energy: reverting to bisection
     Possible cause: smearing is larger than the electronic band-gap.

     total cpu time spent up to now is      618.6 secs

     total energy              =   -1692.76578937 Ry
     estimated scf accuracy    <       0.01538307 Ry

     total magnetization       =    36.00 Bohr mag/cell
     absolute magnetization    =    44.58 Bohr mag/cell
[tb_dev] Currently allocated     1.54E+01 Mbytes, locked:    0 /   8
[tb_pin] Currently allocated     0.00E+00 Mbytes, locked:    0 /   0

     iteration # 39     ecut=    35.00 Ry     beta= 0.20
     Davidson diagonalization with overlap

---- Real-time Memory Report at c_bands before calling an iterative solver
          3862 MiB given to the printing process from OS
          -507 MiB allocation reported by mallinfo(arena+hblkhd)
         53620 MiB available memory on the node where the printing process lives
     GPU memory used/free/total (MiB): 5004 / 11276 / 16280
------------------
     c_bands:  1 eigenvalues not converged
     c_bands:  2 eigenvalues not converged
     ethr =  3.20E-08,  avg # of iterations =  6.7

     total cpu time spent up to now is      630.8 secs

     total energy              =   -1692.76555070 Ry
     estimated scf accuracy    <       0.01448621 Ry

     total magnetization       =    36.00 Bohr mag/cell
     absolute magnetization    =    44.59 Bohr mag/cell
[tb_dev] Currently allocated     1.54E+01 Mbytes, locked:    0 /   8
[tb_pin] Currently allocated     0.00E+00 Mbytes, locked:    0 /   0

     iteration # 40     ecut=    35.00 Ry     beta= 0.20
     Davidson diagonalization with overlap

---- Real-time Memory Report at c_bands before calling an iterative solver
          3862 MiB given to the printing process from OS
          -507 MiB allocation reported by mallinfo(arena+hblkhd)
         53620 MiB available memory on the node where the printing process lives
     GPU memory used/free/total (MiB): 5004 / 11276 / 16280
------------------
     c_bands:  2 eigenvalues not converged
     c_bands:  2 eigenvalues not converged
     c_bands:  2 eigenvalues not converged
     c_bands:  2 eigenvalues not converged
     c_bands:  1 eigenvalues not converged
     c_bands:  4 eigenvalues not converged
     c_bands:  1 eigenvalues not converged
     c_bands:  3 eigenvalues not converged
     c_bands:  2 eigenvalues not converged
     c_bands:  1 eigenvalues not converged
     c_bands:  3 eigenvalues not converged
     c_bands:  1 eigenvalues not converged
     ethr =  3.20E-08,  avg # of iterations = 11.9

     total cpu time spent up to now is      647.8 secs

     total energy              =   -1692.76569350 Ry
     estimated scf accuracy    <       0.01042057 Ry

     total magnetization       =    36.00 Bohr mag/cell
     absolute magnetization    =    44.55 Bohr mag/cell
[tb_dev] Currently allocated     1.54E+01 Mbytes, locked:    0 /   8
[tb_pin] Currently allocated     0.00E+00 Mbytes, locked:    0 /   0

     iteration # 41     ecut=    35.00 Ry     beta= 0.20
     Davidson diagonalization with overlap

---- Real-time Memory Report at c_bands before calling an iterative solver
          3862 MiB given to the printing process from OS
          -507 MiB allocation reported by mallinfo(arena+hblkhd)
         53620 MiB available memory on the node where the printing process lives
     GPU memory used/free/total (MiB): 5004 / 11276 / 16280
------------------
     c_bands:  3 eigenvalues not converged
     c_bands:  1 eigenvalues not converged
     c_bands:  1 eigenvalues not converged
     c_bands:  2 eigenvalues not converged
     c_bands:  2 eigenvalues not converged
     c_bands:  2 eigenvalues not converged
     ethr =  3.20E-08,  avg # of iterations =  9.8
     Minimization algorithm failed to find Fermi energy: reverting to bisection
     Possible cause: smearing is larger than the electronic band-gap.

     total cpu time spent up to now is      662.8 secs

     total energy              =   -1692.76544453 Ry
     estimated scf accuracy    <       0.01071080 Ry

     total magnetization       =    36.00 Bohr mag/cell
     absolute magnetization    =    44.58 Bohr mag/cell
[tb_dev] Currently allocated     1.54E+01 Mbytes, locked:    0 /   8
[tb_pin] Currently allocated     0.00E+00 Mbytes, locked:    0 /   0

     iteration # 42     ecut=    35.00 Ry     beta= 0.20
     Davidson diagonalization with overlap

---- Real-time Memory Report at c_bands before calling an iterative solver
          3862 MiB given to the printing process from OS
          -507 MiB allocation reported by mallinfo(arena+hblkhd)
         53622 MiB available memory on the node where the printing process lives
     GPU memory used/free/total (MiB): 5004 / 11276 / 16280
------------------
     c_bands:  1 eigenvalues not converged
     c_bands:  1 eigenvalues not converged
     c_bands:  1 eigenvalues not converged
     c_bands:  1 eigenvalues not converged
     c_bands:  1 eigenvalues not converged
     c_bands:  2 eigenvalues not converged
     c_bands:  1 eigenvalues not converged
     ethr =  3.20E-08,  avg # of iterations = 11.7
     Minimization algorithm failed to find Fermi energy: reverting to bisection
     Possible cause: smearing is larger than the electronic band-gap.

     total cpu time spent up to now is      680.2 secs

     total energy              =   -1692.76491333 Ry
     estimated scf accuracy    <       0.00634402 Ry

     total magnetization       =    36.00 Bohr mag/cell
     absolute magnetization    =    44.62 Bohr mag/cell
[tb_dev] Currently allocated     1.54E+01 Mbytes, locked:    0 /   8
[tb_pin] Currently allocated     0.00E+00 Mbytes, locked:    0 /   0

     iteration # 43     ecut=    35.00 Ry     beta= 0.20
     Davidson diagonalization with overlap

---- Real-time Memory Report at c_bands before calling an iterative solver
          3862 MiB given to the printing process from OS
          -507 MiB allocation reported by mallinfo(arena+hblkhd)
         53622 MiB available memory on the node where the printing process lives
     GPU memory used/free/total (MiB): 5004 / 11276 / 16280
------------------
     c_bands:  1 eigenvalues not converged
     c_bands:  2 eigenvalues not converged
     c_bands:  1 eigenvalues not converged
     c_bands:  2 eigenvalues not converged
     c_bands:  5 eigenvalues not converged
     c_bands:  4 eigenvalues not converged
     c_bands:  4 eigenvalues not converged
     c_bands:  2 eigenvalues not converged
     c_bands:  3 eigenvalues not converged
     c_bands:  3 eigenvalues not converged
     c_bands:  2 eigenvalues not converged
     c_bands:  3 eigenvalues not converged
     c_bands:  1 eigenvalues not converged
     c_bands:  1 eigenvalues not converged
     c_bands:  3 eigenvalues not converged
     c_bands:  1 eigenvalues not converged
     ethr =  3.20E-08,  avg # of iterations = 12.2
     Minimization algorithm failed to find Fermi energy: reverting to bisection
     Possible cause: smearing is larger than the electronic band-gap.

     total cpu time spent up to now is      699.2 secs

     total energy              =   -1692.76513934 Ry
     estimated scf accuracy    <       0.00172066 Ry

     total magnetization       =    36.00 Bohr mag/cell
     absolute magnetization    =    44.60 Bohr mag/cell
[tb_dev] Currently allocated     1.54E+01 Mbytes, locked:    0 /   8
[tb_pin] Currently allocated     0.00E+00 Mbytes, locked:    0 /   0

     iteration # 44     ecut=    35.00 Ry     beta= 0.20
     Davidson diagonalization with overlap

---- Real-time Memory Report at c_bands before calling an iterative solver
          3862 MiB given to the printing process from OS
          -507 MiB allocation reported by mallinfo(arena+hblkhd)
         53623 MiB available memory on the node where the printing process lives
     GPU memory used/free/total (MiB): 5004 / 11276 / 16280
------------------
     c_bands:  1 eigenvalues not converged
     c_bands:  1 eigenvalues not converged
     c_bands:  2 eigenvalues not converged
     c_bands:  1 eigenvalues not converged
     c_bands:  1 eigenvalues not converged
     c_bands:  1 eigenvalues not converged
     c_bands:  3 eigenvalues not converged
     c_bands:  1 eigenvalues not converged
     ethr =  3.20E-08,  avg # of iterations =  8.2

     total cpu time spent up to now is      711.8 secs

     total energy              =   -1692.76506829 Ry
     estimated scf accuracy    <       0.00161969 Ry

     total magnetization       =    36.00 Bohr mag/cell
     absolute magnetization    =    44.60 Bohr mag/cell
[tb_dev] Currently allocated     1.54E+01 Mbytes, locked:    0 /   8
[tb_pin] Currently allocated     0.00E+00 Mbytes, locked:    0 /   0

     iteration # 45     ecut=    35.00 Ry     beta= 0.20
     Davidson diagonalization with overlap

---- Real-time Memory Report at c_bands before calling an iterative solver
          3862 MiB given to the printing process from OS
          -507 MiB allocation reported by mallinfo(arena+hblkhd)
         53623 MiB available memory on the node where the printing process lives
     GPU memory used/free/total (MiB): 5004 / 11276 / 16280
------------------
     c_bands:  1 eigenvalues not converged
     c_bands:  1 eigenvalues not converged
     c_bands:  1 eigenvalues not converged
     ethr =  3.20E-08,  avg # of iterations = 10.4

     total cpu time spent up to now is      726.3 secs

     total energy              =   -1692.76508560 Ry
     estimated scf accuracy    <       0.00134721 Ry

     total magnetization       =    36.00 Bohr mag/cell
     absolute magnetization    =    44.59 Bohr mag/cell
[tb_dev] Currently allocated     1.54E+01 Mbytes, locked:    0 /   8
[tb_pin] Currently allocated     0.00E+00 Mbytes, locked:    0 /   0

     iteration # 46     ecut=    35.00 Ry     beta= 0.20
     Davidson diagonalization with overlap

---- Real-time Memory Report at c_bands before calling an iterative solver
          3862 MiB given to the printing process from OS
          -507 MiB allocation reported by mallinfo(arena+hblkhd)
         53623 MiB available memory on the node where the printing process lives
     GPU memory used/free/total (MiB): 5004 / 11276 / 16280
------------------
     ethr =  3.20E-08,  avg # of iterations =  2.7

     total cpu time spent up to now is      736.0 secs

     total energy              =   -1692.76511005 Ry
     estimated scf accuracy    <       0.00123893 Ry

     total magnetization       =    36.00 Bohr mag/cell
     absolute magnetization    =    44.59 Bohr mag/cell
[tb_dev] Currently allocated     1.54E+01 Mbytes, locked:    0 /   8
[tb_pin] Currently allocated     0.00E+00 Mbytes, locked:    0 /   0

     iteration # 47     ecut=    35.00 Ry     beta= 0.20
     Davidson diagonalization with overlap

---- Real-time Memory Report at c_bands before calling an iterative solver
          3862 MiB given to the printing process from OS
          -507 MiB allocation reported by mallinfo(arena+hblkhd)
         53623 MiB available memory on the node where the printing process lives
     GPU memory used/free/total (MiB): 5004 / 11276 / 16280
------------------
     ethr =  3.20E-08,  avg # of iterations =  1.0

     total cpu time spent up to now is      744.9 secs

     total energy              =   -1692.76509586 Ry
     estimated scf accuracy    <       0.00124056 Ry

     total magnetization       =    36.00 Bohr mag/cell
     absolute magnetization    =    44.59 Bohr mag/cell
[tb_dev] Currently allocated     1.54E+01 Mbytes, locked:    0 /   8
[tb_pin] Currently allocated     0.00E+00 Mbytes, locked:    0 /   0

     iteration # 48     ecut=    35.00 Ry     beta= 0.20
     Davidson diagonalization with overlap

---- Real-time Memory Report at c_bands before calling an iterative solver
          3862 MiB given to the printing process from OS
          -507 MiB allocation reported by mallinfo(arena+hblkhd)
         53623 MiB available memory on the node where the printing process lives
     GPU memory used/free/total (MiB): 5004 / 11276 / 16280
------------------
     ethr =  3.20E-08,  avg # of iterations =  1.0

     total cpu time spent up to now is      753.8 secs

     total energy              =   -1692.76474082 Ry
     estimated scf accuracy    <       0.00127245 Ry

     total magnetization       =    36.00 Bohr mag/cell
     absolute magnetization    =    44.59 Bohr mag/cell
[tb_dev] Currently allocated     1.54E+01 Mbytes, locked:    0 /   8
[tb_pin] Currently allocated     0.00E+00 Mbytes, locked:    0 /   0

     iteration # 49     ecut=    35.00 Ry     beta= 0.20
     Davidson diagonalization with overlap

---- Real-time Memory Report at c_bands before calling an iterative solver
          3862 MiB given to the printing process from OS
          -507 MiB allocation reported by mallinfo(arena+hblkhd)
         53623 MiB available memory on the node where the printing process lives
     GPU memory used/free/total (MiB): 5004 / 11276 / 16280
------------------
     c_bands:  1 eigenvalues not converged
     c_bands:  2 eigenvalues not converged
     c_bands:  1 eigenvalues not converged
     c_bands:  1 eigenvalues not converged
     c_bands:  1 eigenvalues not converged
     c_bands:  1 eigenvalues not converged
     c_bands:  1 eigenvalues not converged
     c_bands:  1 eigenvalues not converged
     c_bands:  3 eigenvalues not converged
     c_bands:  1 eigenvalues not converged
     c_bands:  3 eigenvalues not converged
     c_bands:  1 eigenvalues not converged
     ethr =  3.20E-08,  avg # of iterations = 12.1

     total cpu time spent up to now is      771.7 secs

     total energy              =   -1692.76492462 Ry
     estimated scf accuracy    <       0.00208297 Ry

     total magnetization       =    36.00 Bohr mag/cell
     absolute magnetization    =    44.55 Bohr mag/cell
[...]
     c_bands:  2 eigenvalues not converged
     c_bands:  3 eigenvalues not converged
     c_bands:  3 eigenvalues not converged
     c_bands:  2 eigenvalues not converged
     c_bands:  2 eigenvalues not converged
     c_bands:  4 eigenvalues not converged
     c_bands:  2 eigenvalues not converged
     c_bands:  2 eigenvalues not converged
     c_bands:  2 eigenvalues not converged
     c_bands:  2 eigenvalues not converged
     c_bands:  3 eigenvalues not converged
     c_bands:  1 eigenvalues not converged
     c_bands:  3 eigenvalues not converged
     c_bands:  2 eigenvalues not converged
     c_bands:  3 eigenvalues not converged
     c_bands:  1 eigenvalues not converged
     c_bands:  3 eigenvalues not converged
     ethr =  3.20E-08,  avg # of iterations = 16.4

     total cpu time spent up to now is     1094.3 secs

     total energy              =   -1692.76698501 Ry
     estimated scf accuracy    <       0.00510114 Ry

     total magnetization       =    36.00 Bohr mag/cell
     absolute magnetization    =    44.66 Bohr mag/cell
[tb_dev] Currently allocated     1.54E+01 Mbytes, locked:    0 /   8
[tb_pin] Currently allocated     0.00E+00 Mbytes, locked:    0 /   0

     iteration # 70     ecut=    35.00 Ry     beta= 0.20
     Davidson diagonalization with overlap

---- Real-time Memory Report at c_bands before calling an iterative solver
          3862 MiB given to the printing process from OS
          -507 MiB allocation reported by mallinfo(arena+hblkhd)
         53625 MiB available memory on the node where the printing process lives
     GPU memory used/free/total (MiB): 5004 / 11276 / 16280
------------------
     c_bands:  1 eigenvalues not converged
     c_bands:  3 eigenvalues not converged
     c_bands:  3 eigenvalues not converged
     c_bands:  4 eigenvalues not converged
     c_bands:  3 eigenvalues not converged
     c_bands:  5 eigenvalues not converged
     c_bands:  2 eigenvalues not converged
     c_bands:  5 eigenvalues not converged
     c_bands:  3 eigenvalues not converged
     c_bands:  1 eigenvalues not converged
     c_bands:  3 eigenvalues not converged
     c_bands:  2 eigenvalues not converged
     c_bands:  3 eigenvalues not converged
     c_bands:  2 eigenvalues not converged
     c_bands:  3 eigenvalues not converged
     c_bands:  2 eigenvalues not converged
     c_bands:  4 eigenvalues not converged
     ethr =  3.20E-08,  avg # of iterations = 12.9

     total cpu time spent up to now is     1111.2 secs

     total energy              =   -1692.76349970 Ry
     estimated scf accuracy    <       0.01379190 Ry

     total magnetization       =    36.00 Bohr mag/cell
     absolute magnetization    =    44.67 Bohr mag/cell
[tb_dev] Currently allocated     1.54E+01 Mbytes, locked:    0 /   8
[tb_pin] Currently allocated     0.00E+00 Mbytes, locked:    0 /   0

     iteration # 71     ecut=    35.00 Ry     beta= 0.20
     Davidson diagonalization with overlap

---- Real-time Memory Report at c_bands before calling an iterative solver
          3862 MiB given to the printing process from OS
          -507 MiB allocation reported by mallinfo(arena+hblkhd)
         53625 MiB available memory on the node where the printing process lives
     GPU memory used/free/total (MiB): 5004 / 11276 / 16280
------------------
     c_bands:  3 eigenvalues not converged
     c_bands:  4 eigenvalues not converged
     c_bands:  3 eigenvalues not converged
     c_bands:  2 eigenvalues not converged
     c_bands:  2 eigenvalues not converged
     c_bands:  1 eigenvalues not converged
     c_bands:  3 eigenvalues not converged
     c_bands:  5 eigenvalues not converged
     c_bands:  3 eigenvalues not converged
     c_bands:  4 eigenvalues not converged
     c_bands:  4 eigenvalues not converged
     c_bands:  2 eigenvalues not converged
     c_bands:  5 eigenvalues not converged
     c_bands:  3 eigenvalues not converged
     c_bands:  4 eigenvalues not converged
     ethr =  3.20E-08,  avg # of iterations = 19.4

     total cpu time spent up to now is     1137.2 secs

     total energy              =   -1692.76477991 Ry
     estimated scf accuracy    <       0.00344957 Ry

     total magnetization       =    36.00 Bohr mag/cell
     absolute magnetization    =    44.60 Bohr mag/cell
[tb_dev] Currently allocated     1.54E+01 Mbytes, locked:    0 /   8
[tb_pin] Currently allocated     0.00E+00 Mbytes, locked:    0 /   0

     iteration # 72     ecut=    35.00 Ry     beta= 0.20
     Davidson diagonalization with overlap

---- Real-time Memory Report at c_bands before calling an iterative solver
          3862 MiB given to the printing process from OS
          -507 MiB allocation reported by mallinfo(arena+hblkhd)
         53625 MiB available memory on the node where the printing process lives
     GPU memory used/free/total (MiB): 5004 / 11276 / 16280
------------------
     c_bands:  1 eigenvalues not converged
     c_bands:  1 eigenvalues not converged
     c_bands:  5 eigenvalues not converged
     c_bands:  2 eigenvalues not converged
     c_bands:  1 eigenvalues not converged
     c_bands:  2 eigenvalues not converged
     c_bands:  3 eigenvalues not converged
     c_bands:  2 eigenvalues not converged
     c_bands:  3 eigenvalues not converged
     c_bands:  1 eigenvalues not converged
     c_bands:  4 eigenvalues not converged
     c_bands:  1 eigenvalues not converged
     c_bands:  4 eigenvalues not converged
     c_bands:  3 eigenvalues not converged
     c_bands:  3 eigenvalues not converged
     ethr =  3.20E-08,  avg # of iterations = 13.0

     total cpu time spent up to now is     1155.3 secs

     total energy              =   -1692.76525677 Ry
     estimated scf accuracy    <       0.00197479 Ry

     total magnetization       =    36.00 Bohr mag/cell
     absolute magnetization    =    44.55 Bohr mag/cell
[tb_dev] Currently allocated     1.54E+01 Mbytes, locked:    0 /   8
[tb_pin] Currently allocated     0.00E+00 Mbytes, locked:    0 /   0

     iteration # 73     ecut=    35.00 Ry     beta= 0.20
     Davidson diagonalization with overlap

---- Real-time Memory Report at c_bands before calling an iterative solver
          3862 MiB given to the printing process from OS
          -507 MiB allocation reported by mallinfo(arena+hblkhd)
         53625 MiB available memory on the node where the printing process lives
     GPU memory used/free/total (MiB): 5004 / 11276 / 16280
------------------
     c_bands:  2 eigenvalues not converged
     c_bands:  1 eigenvalues not converged
     c_bands:  1 eigenvalues not converged
     c_bands:  1 eigenvalues not converged
     c_bands:  2 eigenvalues not converged
     c_bands:  1 eigenvalues not converged
     ethr =  3.20E-08,  avg # of iterations = 10.5

     total cpu time spent up to now is     1170.2 secs

     total energy              =   -1692.76554113 Ry
     estimated scf accuracy    <       0.00078331 Ry

     total magnetization       =    36.00 Bohr mag/cell
     absolute magnetization    =    44.61 Bohr mag/cell
[tb_dev] Currently allocated     1.54E+01 Mbytes, locked:    0 /   8
[tb_pin] Currently allocated     0.00E+00 Mbytes, locked:    0 /   0

     iteration # 74     ecut=    35.00 Ry     beta= 0.20
     Davidson diagonalization with overlap

---- Real-time Memory Report at c_bands before calling an iterative solver
          3862 MiB given to the printing process from OS
          -507 MiB allocation reported by mallinfo(arena+hblkhd)
         53624 MiB available memory on the node where the printing process lives
     GPU memory used/free/total (MiB): 5004 / 11276 / 16280
------------------
     c_bands:  2 eigenvalues not converged
     c_bands:  3 eigenvalues not converged
     c_bands:  2 eigenvalues not converged
     c_bands:  3 eigenvalues not converged
     c_bands:  3 eigenvalues not converged
     c_bands:  1 eigenvalues not converged
     c_bands:  2 eigenvalues not converged
     c_bands:  3 eigenvalues not converged
     c_bands:  1 eigenvalues not converged
     c_bands:  3 eigenvalues not converged
     c_bands:  1 eigenvalues not converged
     c_bands:  2 eigenvalues not converged
     c_bands:  3 eigenvalues not converged
     c_bands:  1 eigenvalues not converged
     ethr =  3.20E-08,  avg # of iterations = 11.9

     total cpu time spent up to now is     1186.4 secs

     total energy              =   -1692.76534598 Ry
     estimated scf accuracy    <       0.00115851 Ry

     total magnetization       =    36.00 Bohr mag/cell
     absolute magnetization    =    44.63 Bohr mag/cell
[tb_dev] Currently allocated     1.54E+01 Mbytes, locked:    0 /   8
[tb_pin] Currently allocated     0.00E+00 Mbytes, locked:    0 /   0

     iteration # 75     ecut=    35.00 Ry     beta= 0.20
     Davidson diagonalization with overlap

---- Real-time Memory Report at c_bands before calling an iterative solver
          3862 MiB given to the printing process from OS
          -507 MiB allocation reported by mallinfo(arena+hblkhd)
         53624 MiB available memory on the node where the printing process lives
     GPU memory used/free/total (MiB): 5004 / 11276 / 16280
------------------
     c_bands:  2 eigenvalues not converged
     c_bands:  1 eigenvalues not converged
     c_bands:  1 eigenvalues not converged
     c_bands:  1 eigenvalues not converged
     c_bands:  1 eigenvalues not converged
     ethr =  3.20E-08,  avg # of iterations = 10.0

     total cpu time spent up to now is     1201.4 secs

     total energy              =   -1692.76546111 Ry
     estimated scf accuracy    <       0.00101199 Ry

     total magnetization       =    36.00 Bohr mag/cell
     absolute magnetization    =    44.62 Bohr mag/cell
[tb_dev] Currently allocated     1.54E+01 Mbytes, locked:    0 /   8
[tb_pin] Currently allocated     0.00E+00 Mbytes, locked:    0 /   0

     iteration # 76     ecut=    35.00 Ry     beta= 0.20
     Davidson diagonalization with overlap

---- Real-time Memory Report at c_bands before calling an iterative solver
          3862 MiB given to the printing process from OS
          -507 MiB allocation reported by mallinfo(arena+hblkhd)
         53625 MiB available memory on the node where the printing process lives
     GPU memory used/free/total (MiB): 5004 / 11276 / 16280
------------------
     c_bands:  1 eigenvalues not converged
     ethr =  3.20E-08,  avg # of iterations =  1.9

     total cpu time spent up to now is     1210.8 secs

     total energy              =   -1692.76529448 Ry
     estimated scf accuracy    <       0.00083175 Ry

     total magnetization       =    36.00 Bohr mag/cell
     absolute magnetization    =    44.62 Bohr mag/cell
[tb_dev] Currently allocated     1.54E+01 Mbytes, locked:    0 /   8
[tb_pin] Currently allocated     0.00E+00 Mbytes, locked:    0 /   0

     iteration # 77     ecut=    35.00 Ry     beta= 0.20
     Davidson diagonalization with overlap

---- Real-time Memory Report at c_bands before calling an iterative solver
          3862 MiB given to the printing process from OS
          -507 MiB allocation reported by mallinfo(arena+hblkhd)
         53625 MiB available memory on the node where the printing process lives
     GPU memory used/free/total (MiB): 5004 / 11276 / 16280
------------------
     c_bands:  3 eigenvalues not converged
     c_bands:  1 eigenvalues not converged
     c_bands:  1 eigenvalues not converged
     ethr =  3.20E-08,  avg # of iterations =  9.7

     total cpu time spent up to now is     1224.7 secs

     total energy              =   -1692.76531370 Ry
     estimated scf accuracy    <       0.00076192 Ry

     total magnetization       =    36.00 Bohr mag/cell
     absolute magnetization    =    44.62 Bohr mag/cell
[tb_dev] Currently allocated     1.54E+01 Mbytes, locked:    0 /   8
[tb_pin] Currently allocated     0.00E+00 Mbytes, locked:    0 /   0

     iteration # 78     ecut=    35.00 Ry     beta= 0.20
     Davidson diagonalization with overlap

---- Real-time Memory Report at c_bands before calling an iterative solver
          3862 MiB given to the printing process from OS
          -507 MiB allocation reported by mallinfo(arena+hblkhd)
         53625 MiB available memory on the node where the printing process lives
     GPU memory used/free/total (MiB): 5004 / 11276 / 16280
------------------
     ethr =  3.20E-08,  avg # of iterations =  3.4

     total cpu time spent up to now is     1234.9 secs

     total energy              =   -1692.76522102 Ry
     estimated scf accuracy    <       0.00094048 Ry

     total magnetization       =    36.00 Bohr mag/cell
     absolute magnetization    =    44.62 Bohr mag/cell
[tb_dev] Currently allocated     1.54E+01 Mbytes, locked:    0 /   8
[tb_pin] Currently allocated     0.00E+00 Mbytes, locked:    0 /   0

     iteration # 79     ecut=    35.00 Ry     beta= 0.20
     Davidson diagonalization with overlap

---- Real-time Memory Report at c_bands before calling an iterative solver
          3862 MiB given to the printing process from OS
          -507 MiB allocation reported by mallinfo(arena+hblkhd)
         53625 MiB available memory on the node where the printing process lives
     GPU memory used/free/total (MiB): 5004 / 11276 / 16280
------------------
     c_bands:  1 eigenvalues not converged
     c_bands:  1 eigenvalues not converged
     ethr =  3.20E-08,  avg # of iterations =  9.0
     Minimization algorithm failed to find Fermi energy: reverting to bisection
     Possible cause: smearing is larger than the electronic band-gap.

     total cpu time spent up to now is     1248.4 secs

     total energy              =   -1692.76447909 Ry
     estimated scf accuracy    <       0.00067879 Ry

     total magnetization       =    36.00 Bohr mag/cell
     absolute magnetization    =    44.59 Bohr mag/cell
[tb_dev] Currently allocated     1.54E+01 Mbytes, locked:    0 /   8
[tb_pin] Currently allocated     0.00E+00 Mbytes, locked:    0 /   0

     iteration # 80     ecut=    35.00 Ry     beta= 0.20
     Davidson diagonalization with overlap

---- Real-time Memory Report at c_bands before calling an iterative solver
          3862 MiB given to the printing process from OS
          -507 MiB allocation reported by mallinfo(arena+hblkhd)
         53624 MiB available memory on the node where the printing process lives
     GPU memory used/free/total (MiB): 5004 / 11276 / 16280
------------------
     c_bands:  2 eigenvalues not converged
     c_bands:  3 eigenvalues not converged
     c_bands:  2 eigenvalues not converged
     c_bands:  1 eigenvalues not converged
     c_bands:  3 eigenvalues not converged
     c_bands:  2 eigenvalues not converged
     c_bands:  3 eigenvalues not converged
     c_bands:  2 eigenvalues not converged
     c_bands:  2 eigenvalues not converged
     c_bands:  2 eigenvalues not converged
     c_bands:  4 eigenvalues not converged
     c_bands:  3 eigenvalues not converged
     c_bands:  2 eigenvalues not converged
     c_bands:  1 eigenvalues not converged
     ethr =  3.20E-08,  avg # of iterations = 13.6

     total cpu time spent up to now is     1269.0 secs

     total energy              =   -1692.76497619 Ry
     estimated scf accuracy    <       0.00044483 Ry

     total magnetization       =    36.00 Bohr mag/cell
     absolute magnetization    =    44.51 Bohr mag/cell

     End of self-consistent calculation

     convergence NOT achieved after  80 iterations: stopping

     Writing config to output data dir ./out/aiida.save/
 
     init_run     :     12.05s CPU      4.18s WALL (       1 calls)
     electrons    :   1585.45s CPU   1264.61s WALL (       1 calls)

     Called by init_run:
     wfcinit      :      0.54s CPU      0.54s WALL (       1 calls)
                                        0.54s GPU  (       1 calls)
     potinit      :      0.99s CPU      0.29s WALL (       1 calls)
     hinit0       :      8.04s CPU      2.40s WALL (       1 calls)

     Called by electrons:
     c_bands      :   1123.16s CPU   1079.83s WALL (      81 calls)
     sum_band     :    148.12s CPU    151.88s WALL (      81 calls)
     v_of_rho     :     58.49s CPU      8.31s WALL (      81 calls)
     v_h          :     13.19s CPU      1.26s WALL (      81 calls)
     v_xc         :     45.29s CPU      7.06s WALL (      81 calls)
     newd         :     54.07s CPU      5.16s WALL (      81 calls)
                                        5.15s GPU  (      81 calls)
     mix_rho      :    155.01s CPU     14.95s WALL (      81 calls)

     Called by c_bands:
     init_us_2    :     13.39s CPU     15.75s WALL (    5832 calls)
     init_us_2:gp :     13.25s CPU     15.63s WALL (    5832 calls)
     cegterg      :    972.37s CPU    942.26s WALL (    2974 calls)

     Called by sum_band:
     sum_band:wei :      0.54s CPU      0.54s WALL (      81 calls)
                                        0.54s GPU  (      81 calls)
     sum_band:loo :    135.91s CPU    139.58s WALL (      81 calls)
                                      139.58s GPU  (      81 calls)
     sum_band:buf :     57.36s CPU     57.56s WALL (    2916 calls)
                                       57.54s GPU  (    2916 calls)
     sum_band:ini :      5.29s CPU      6.92s WALL (    2916 calls)
                                        6.90s GPU  (    2916 calls)
     sum_band:cal :      0.13s CPU      8.06s WALL (    2916 calls)
                                        6.66s GPU  (    2916 calls)
     sum_band:bec :      0.37s CPU      0.41s WALL (    2916 calls)
                                        0.39s GPU  (    2916 calls)
     addusdens    :      4.17s CPU      4.22s WALL (      81 calls)
                                        4.22s GPU  (      81 calls)
     addusd:skk   :      0.01s CPU      0.01s WALL (      81 calls)
                                        0.01s GPU  (      81 calls)

     Called by *egterg:
     cdiaghg      :    267.68s CPU    293.85s WALL (   31461 calls)
                                      293.63s GPU  (   31461 calls)
     cegterg:over :     34.25s CPU     34.91s WALL (   28559 calls)
     cegterg:upda :     38.24s CPU     36.52s WALL (   28559 calls)
     cegterg:last :     34.56s CPU     34.78s WALL (    7732 calls)
     h_psi        :    530.48s CPU    480.41s WALL (   31533 calls)
                                      479.45s GPU  (   31533 calls)
     s_psi        :      6.07s CPU     34.87s WALL (   31533 calls)
                                       32.42s GPU  (   31533 calls)
     g_psi        :      0.22s CPU      2.98s WALL (   28559 calls)
                                        2.79s GPU  (   28559 calls)

     Called by h_psi:
     h_psi:calbec :      1.16s CPU     33.57s WALL (   31533 calls)
                                       33.37s GPU  (   31533 calls)
     vloc_psi     :    447.30s CPU    401.98s WALL (   31533 calls)
                                      401.75s GPU  (   31533 calls)
     add_vuspsi   :     10.82s CPU     39.77s WALL (   31533 calls)
                                       39.55s GPU  (   31533 calls)

     General routines
     calbec       :      0.97s CPU      0.97s WALL (   34449 calls)
     fft          :      4.01s CPU      1.02s WALL (    2025 calls)
                                        0.76s GPU  (    1863 calls)
     ffts         :      0.50s CPU      0.15s WALL (     324 calls)
                                        0.03s GPU  (     162 calls)
     fftw         :      3.75s CPU    332.29s WALL (  176456 calls)
                                      330.29s GPU  (  176456 calls)
     interpolate  :     18.27s CPU      1.60s WALL (     162 calls)
     davcio       :      0.41s CPU      3.46s WALL (      90 calls)
 
     Parallel routines
 
     PWSCF        :  26m40.16s CPU  21m11.65s WALL

 
   This run was terminated on:  18:24:58  23Oct2023            

=------------------------------------------------------------------------------=
   JOB DONE.
=------------------------------------------------------------------------------=
