
     Program PWSCF v.7.2 starts on 22Oct2023 at 18: 8: 7 

     This program is part of the open-source Quantum ESPRESSO suite
     for quantum simulation of materials; please cite
         "P. Giannozzi et al., J. Phys.:Condens. Matter 21 395502 (2009);
         "P. Giannozzi et al., J. Phys.:Condens. Matter 29 465901 (2017);
         "P. Giannozzi et al., J. Chem. Phys. 152 154105 (2020);
          URL http://www.quantum-espresso.org", 
     in publications or presentations arising from this work. More details at
     http://www.quantum-espresso.org/quote

     Parallel version (MPI & OpenMP), running on      12 processor cores
     Number of MPI processes:                 1
     Threads/MPI process:                    12

     MPI processes distributed on     1 nodes
     34469 MiB available memory on the printing compute node when the environment starts
 
     Reading input from aiida.in

     Current dimensions of program PWSCF are:
     Max number of different atomic species (ntypx) = 10
     Max number of k-points (npk) =  40000
     Max angular momentum in pseudopotentials (lmaxx) =  4
     Message from routine setup:
     using ibrav=0 with symmetry is DISCOURAGED, use correct ibrav instead
 
     Subspace diagonalization in iterative solution of the eigenvalue problem:
     a serial algorithm will be used

 
     G-vector sticks info
     --------------------
     sticks:   dense  smooth     PW     G-vecs:    dense   smooth      PW
     Sum        1393     691    199               179509    63215    9931
 
     Using Slab Decomposition
 


     bravais-lattice index     =            0
     lattice parameter (alat)  =       7.5049  a.u.
     unit-cell volume          =    1555.1814 (a.u.)^3
     number of atoms/cell      =           10
     number of atomic types    =            3
     number of electrons       =       126.00
     number of Kohn-Sham states=           76
     kinetic-energy cutoff     =      45.0000  Ry
     charge density cutoff     =     360.0000  Ry
     scf convergence threshold =      2.0E-09
     mixing beta               =       0.4000
     number of iterations used =            8  plain     mixing
     Exchange-correlation= SLA  PW   PSX  PSC
                           (   1   4  10   8   0   0   0)

     GPU acceleration is ACTIVE.


     GPU used by master process:

        Device Number: 0
        Device name: Tesla P100-PCIE-16GB
        Compute capability : 60
        Ratio of single to double precision performance  : 2
        Memory Clock Rate (KHz): 715000
        Memory Bus Width (bits): 4096
        Peak Memory Bandwidth (GB/s): 732.16

     celldm(1)=   7.504858  celldm(2)=   0.000000  celldm(3)=   0.000000
     celldm(4)=   0.000000  celldm(5)=   0.000000  celldm(6)=   0.000000

     crystal axes: (cart. coord. in units of alat)
               a(1) = (   1.000000   0.000000   0.000000 )  
               a(2) = (  -0.500000   0.866025   0.000000 )  
               a(3) = (   0.000000   0.000000   4.248376 )  

     reciprocal axes: (cart. coord. in units 2 pi/alat)
               b(1) = (  1.000000  0.577350 -0.000000 )  
               b(2) = (  0.000000  1.154701  0.000000 )  
               b(3) = (  0.000000 -0.000000  0.235384 )  


     PseudoPot. # 1 for Co read from file:
     ./pseudo/co_pbesol_v1.2.uspp.F.UPF
     MD5 check sum: 3b4cd4e7cc7df4da9fdede0fd33e2193
     Pseudo is Ultrasoft + core correction, Zval = 17.0
     Generated by new atomic code, or converted to UPF format
     Using radial grid of  863 points,  6 beta functions with: 
                l(1) =   0
                l(2) =   0
                l(3) =   1
                l(4) =   1
                l(5) =   2
                l(6) =   2
     Q(r) pseudized with  8 coefficients,  rinner =    1.200   1.200   1.200
                                                       1.200   1.200

     PseudoPot. # 2 for I  read from file:
     ./pseudo/I.pbesol-n-kjpaw_psl.0.2.UPF
     MD5 check sum: cecf1a22a184a0b1ae701638a037a48d
     Pseudo is Projector augmented-wave + core cor, Zval =  7.0
     Generated using "atomic" code by A. Dal Corso  v.6.0 svn rev. 13079
     Shape of augmentation charge: PSQ
     Using radial grid of 1247 points,  4 beta functions with: 
                l(1) =   0
                l(2) =   0
                l(3) =   1
                l(4) =   1
     Q(r) pseudized with 0 coefficients 


     PseudoPot. # 3 for Y  read from file:
     ./pseudo/y_pbesol_v1.4.uspp.F.UPF
     MD5 check sum: dac24993bfd4491f22c7b9129ad9e93d
     Pseudo is Ultrasoft + core correction, Zval = 11.0
     Generated by new atomic code, or converted to UPF format
     Using radial grid of  885 points,  6 beta functions with: 
                l(1) =   0
                l(2) =   0
                l(3) =   1
                l(4) =   1
                l(5) =   2
                l(6) =   2
     Q(r) pseudized with  8 coefficients,  rinner =    1.200   1.200   1.200
                                                       1.200   1.200

     atomic species   valence    mass     pseudopotential
        Co            17.00    58.93319     Co( 1.00)
        I              7.00   126.90447     I ( 1.00)
        Y             11.00    88.90585     Y ( 1.00)

     Starting magnetic structure 
     atomic species   magnetization
        Co           0.294
        I            0.100
        Y            0.455

     24 Sym. Ops., with inversion, found (12 have fractional translation)


                                    s                        frac. trans.

      isym =  1     identity                                     

 cryst.   s( 1) = (     1          0          0      )
                  (     0          1          0      )
                  (     0          0          1      )

 cart.    s( 1) = (  1.0000000  0.0000000  0.0000000 )
                  (  0.0000000  1.0000000  0.0000000 )
                  (  0.0000000  0.0000000  1.0000000 )


      isym =  2     180 deg rotation - cart. axis [0,0,1]        

 cryst.   s( 2) = (    -1          0          0      )    f =(  0.0000000 )
                  (     0         -1          0      )       (  0.0000000 )
                  (     0          0          1      )       (  0.5000000 )

 cart.    s( 2) = ( -1.0000000  0.0000000  0.0000000 )    f =(  0.0000000 )
                  (  0.0000000 -1.0000000  0.0000000 )       (  0.0000000 )
                  (  0.0000000  0.0000000  1.0000000 )       (  2.1241879 )


      isym =  3     180 deg rotation - cart. axis [0,1,0]        

 cryst.   s( 3) = (    -1          0          0      )    f =(  0.0000000 )
                  (     1          1          0      )       (  0.0000000 )
                  (     0          0         -1      )       (  0.5000000 )

 cart.    s( 3) = ( -1.0000000  0.0000000  0.0000000 )    f =(  0.0000000 )
                  (  0.0000000  1.0000000  0.0000000 )       (  0.0000000 )
                  (  0.0000000  0.0000000 -1.0000000 )       (  2.1241879 )


      isym =  4     180 deg rotation - cart. axis [1,0,0]        

 cryst.   s( 4) = (     1          0          0      )
                  (    -1         -1          0      )
                  (     0          0         -1      )

 cart.    s( 4) = (  1.0000000  0.0000000  0.0000000 )
                  (  0.0000000 -1.0000000  0.0000000 )
                  (  0.0000000  0.0000000 -1.0000000 )


      isym =  5      60 deg rotation - cryst. axis [0,0,1]       

 cryst.   s( 5) = (     1          1          0      )    f =(  0.0000000 )
                  (    -1          0          0      )       (  0.0000000 )
                  (     0          0          1      )       (  0.5000000 )

 cart.    s( 5) = (  0.5000000 -0.8660254  0.0000000 )    f =(  0.0000000 )
                  (  0.8660254  0.5000000  0.0000000 )       (  0.0000000 )
                  (  0.0000000  0.0000000  1.0000000 )       (  2.1241879 )


      isym =  6      60 deg rotation - cryst. axis [0,0,-1]      

 cryst.   s( 6) = (     0         -1          0      )    f =(  0.0000000 )
                  (     1          1          0      )       (  0.0000000 )
                  (     0          0          1      )       (  0.5000000 )

 cart.    s( 6) = (  0.5000000  0.8660254  0.0000000 )    f =(  0.0000000 )
                  ( -0.8660254  0.5000000  0.0000000 )       (  0.0000000 )
                  (  0.0000000  0.0000000  1.0000000 )       (  2.1241879 )


      isym =  7     120 deg rotation - cryst. axis [0,0,1]       

 cryst.   s( 7) = (     0          1          0      )
                  (    -1         -1          0      )
                  (     0          0          1      )

 cart.    s( 7) = ( -0.5000000 -0.8660254  0.0000000 )
                  (  0.8660254 -0.5000000  0.0000000 )
                  (  0.0000000  0.0000000  1.0000000 )


      isym =  8     120 deg rotation - cryst. axis [0,0,-1]      

 cryst.   s( 8) = (    -1         -1          0      )
                  (     1          0          0      )
                  (     0          0          1      )

 cart.    s( 8) = ( -0.5000000  0.8660254  0.0000000 )
                  ( -0.8660254 -0.5000000  0.0000000 )
                  (  0.0000000  0.0000000  1.0000000 )


      isym =  9     180 deg rotation - cryst. axis [1,-1,0]      

 cryst.   s( 9) = (     0         -1          0      )    f =(  0.0000000 )
                  (    -1          0          0      )       (  0.0000000 )
                  (     0          0         -1      )       (  0.5000000 )

 cart.    s( 9) = (  0.5000000 -0.8660254  0.0000000 )    f =(  0.0000000 )
                  ( -0.8660254 -0.5000000  0.0000000 )       (  0.0000000 )
                  (  0.0000000  0.0000000 -1.0000000 )       (  2.1241879 )


      isym = 10     180 deg rotation - cryst. axis [2,1,0]       

 cryst.   s(10) = (     1          1          0      )    f =(  0.0000000 )
                  (     0         -1          0      )       (  0.0000000 )
                  (     0          0         -1      )       (  0.5000000 )

 cart.    s(10) = (  0.5000000  0.8660254  0.0000000 )    f =(  0.0000000 )
                  (  0.8660254 -0.5000000  0.0000000 )       (  0.0000000 )
                  (  0.0000000  0.0000000 -1.0000000 )       (  2.1241879 )


      isym = 11     180 deg rotation - cryst. axis [0,1,0]       

 cryst.   s(11) = (    -1         -1          0      )
                  (     0          1          0      )
                  (     0          0         -1      )

 cart.    s(11) = ( -0.5000000 -0.8660254  0.0000000 )
                  ( -0.8660254  0.5000000  0.0000000 )
                  (  0.0000000  0.0000000 -1.0000000 )


      isym = 12     180 deg rotation - cryst. axis [1,1,0]       

 cryst.   s(12) = (     0          1          0      )
                  (     1          0          0      )
                  (     0          0         -1      )

 cart.    s(12) = ( -0.5000000  0.8660254  0.0000000 )
                  (  0.8660254  0.5000000  0.0000000 )
                  (  0.0000000  0.0000000 -1.0000000 )


      isym = 13     inversion                                    

 cryst.   s(13) = (    -1          0          0      )
                  (     0         -1          0      )
                  (     0          0         -1      )

 cart.    s(13) = ( -1.0000000  0.0000000  0.0000000 )
                  (  0.0000000 -1.0000000  0.0000000 )
                  (  0.0000000  0.0000000 -1.0000000 )


      isym = 14     inv. 180 deg rotation - cart. axis [0,0,1]   

 cryst.   s(14) = (     1          0          0      )    f =(  0.0000000 )
                  (     0          1          0      )       (  0.0000000 )
                  (     0          0         -1      )       (  0.5000000 )

 cart.    s(14) = (  1.0000000  0.0000000  0.0000000 )    f =(  0.0000000 )
                  (  0.0000000  1.0000000  0.0000000 )       (  0.0000000 )
                  (  0.0000000  0.0000000 -1.0000000 )       (  2.1241879 )


      isym = 15     inv. 180 deg rotation - cart. axis [0,1,0]   

 cryst.   s(15) = (     1          0          0      )    f =(  0.0000000 )
                  (    -1         -1          0      )       (  0.0000000 )
                  (     0          0          1      )       (  0.5000000 )

 cart.    s(15) = (  1.0000000  0.0000000  0.0000000 )    f =(  0.0000000 )
                  (  0.0000000 -1.0000000  0.0000000 )       (  0.0000000 )
                  (  0.0000000  0.0000000  1.0000000 )       (  2.1241879 )


      isym = 16     inv. 180 deg rotation - cart. axis [1,0,0]   

 cryst.   s(16) = (    -1          0          0      )
                  (     1          1          0      )
                  (     0          0          1      )

 cart.    s(16) = ( -1.0000000  0.0000000  0.0000000 )
                  (  0.0000000  1.0000000  0.0000000 )
                  (  0.0000000  0.0000000  1.0000000 )


      isym = 17     inv.  60 deg rotation - cryst. axis [0,0,1]  

 cryst.   s(17) = (    -1         -1          0      )    f =(  0.0000000 )
                  (     1          0          0      )       (  0.0000000 )
                  (     0          0         -1      )       (  0.5000000 )

 cart.    s(17) = ( -0.5000000  0.8660254  0.0000000 )    f =(  0.0000000 )
                  ( -0.8660254 -0.5000000  0.0000000 )       (  0.0000000 )
                  (  0.0000000  0.0000000 -1.0000000 )       (  2.1241879 )


      isym = 18     inv.  60 deg rotation - cryst. axis [0,0,-1] 

 cryst.   s(18) = (     0          1          0      )    f =(  0.0000000 )
                  (    -1         -1          0      )       (  0.0000000 )
                  (     0          0         -1      )       (  0.5000000 )

 cart.    s(18) = ( -0.5000000 -0.8660254  0.0000000 )    f =(  0.0000000 )
                  (  0.8660254 -0.5000000  0.0000000 )       (  0.0000000 )
                  (  0.0000000  0.0000000 -1.0000000 )       (  2.1241879 )


      isym = 19     inv. 120 deg rotation - cryst. axis [0,0,1]  

 cryst.   s(19) = (     0         -1          0      )
                  (     1          1          0      )
                  (     0          0         -1      )

 cart.    s(19) = (  0.5000000  0.8660254  0.0000000 )
                  ( -0.8660254  0.5000000  0.0000000 )
                  (  0.0000000  0.0000000 -1.0000000 )


      isym = 20     inv. 120 deg rotation - cryst. axis [0,0,-1] 

 cryst.   s(20) = (     1          1          0      )
                  (    -1          0          0      )
                  (     0          0         -1      )

 cart.    s(20) = (  0.5000000 -0.8660254  0.0000000 )
                  (  0.8660254  0.5000000  0.0000000 )
                  (  0.0000000  0.0000000 -1.0000000 )


      isym = 21     inv. 180 deg rotation - cryst. axis [1,-1,0] 

 cryst.   s(21) = (     0          1          0      )    f =(  0.0000000 )
                  (     1          0          0      )       (  0.0000000 )
                  (     0          0          1      )       (  0.5000000 )

 cart.    s(21) = ( -0.5000000  0.8660254  0.0000000 )    f =(  0.0000000 )
                  (  0.8660254  0.5000000  0.0000000 )       (  0.0000000 )
                  (  0.0000000  0.0000000  1.0000000 )       (  2.1241879 )


      isym = 22     inv. 180 deg rotation - cryst. axis [2,1,0]  

 cryst.   s(22) = (    -1         -1          0      )    f =(  0.0000000 )
                  (     0          1          0      )       (  0.0000000 )
                  (     0          0          1      )       (  0.5000000 )

 cart.    s(22) = ( -0.5000000 -0.8660254  0.0000000 )    f =(  0.0000000 )
                  ( -0.8660254  0.5000000  0.0000000 )       (  0.0000000 )
                  (  0.0000000  0.0000000  1.0000000 )       (  2.1241879 )


      isym = 23     inv. 180 deg rotation - cryst. axis [0,1,0]  

 cryst.   s(23) = (     1          1          0      )
                  (     0         -1          0      )
                  (     0          0          1      )

 cart.    s(23) = (  0.5000000  0.8660254  0.0000000 )
                  (  0.8660254 -0.5000000  0.0000000 )
                  (  0.0000000  0.0000000  1.0000000 )


      isym = 24     inv. 180 deg rotation - cryst. axis [1,1,0]  

 cryst.   s(24) = (     0         -1          0      )
                  (    -1          0          0      )
                  (     0          0          1      )

 cart.    s(24) = (  0.5000000 -0.8660254  0.0000000 )
                  ( -0.8660254 -0.5000000  0.0000000 )
                  (  0.0000000  0.0000000  1.0000000 )


   Cartesian axes

     site n.     atom                  positions (alat units)
         1           Y   tau(   1) = (   0.0000000   0.0000000   1.6730104  )
         2           Y   tau(   2) = (   0.0000000   0.0000000   0.4511775  )
         3           Y   tau(   3) = (   0.0000000   0.0000000   3.7971984  )
         4           Y   tau(   4) = (   0.0000000   0.0000000   2.5753655  )
         5           Co  tau(   5) = (  -0.0000000   0.5773503   4.2309575  )
         6           Co  tau(   6) = (  -0.0000000   0.5773503   2.1416063  )
         7           Co  tau(   7) = (   0.5000000   0.2886751   2.1067696  )
         8           Co  tau(   8) = (   0.5000000   0.2886751   0.0174183  )
         9           I   tau(   9) = (  -0.0000000   0.5773503   1.0620940  )
        10           I   tau(  10) = (   0.5000000   0.2886751   3.1862819  )

   Crystallographic axes

     site n.     atom                  positions (cryst. coord.)
         1           Y   tau(   1) = (  0.0000000  0.0000000  0.3938000  )
         2           Y   tau(   2) = (  0.0000000  0.0000000  0.1062000  )
         3           Y   tau(   3) = (  0.0000000  0.0000000  0.8938000  )
         4           Y   tau(   4) = (  0.0000000  0.0000000  0.6062000  )
         5           Co  tau(   5) = (  0.3333333  0.6666667  0.9959000  )
         6           Co  tau(   6) = (  0.3333333  0.6666667  0.5041000  )
         7           Co  tau(   7) = (  0.6666667  0.3333333  0.4959000  )
         8           Co  tau(   8) = (  0.6666667  0.3333333  0.0041000  )
         9           I   tau(   9) = (  0.3333333  0.6666667  0.2500000  )
        10           I   tau(  10) = (  0.6666667  0.3333333  0.7500000  )

     number of k points=    42  Marzari-Vanderbilt smearing, width (Ry)=  0.0100
                       cart. coord. in units 2pi/alat
        k(    1) = (   0.0000000   0.0000000   0.0000000), wk =   0.0019724
        k(    2) = (   0.0000000   0.0000000   0.0784614), wk =   0.0039448
        k(    3) = (   0.0000000   0.0888231   0.0000000), wk =   0.0118343
        k(    4) = (   0.0000000   0.0888231   0.0784614), wk =   0.0236686
        k(    5) = (   0.0000000   0.1776462   0.0000000), wk =   0.0118343
        k(    6) = (   0.0000000   0.1776462   0.0784614), wk =   0.0236686
        k(    7) = (   0.0000000   0.2664694   0.0000000), wk =   0.0118343
        k(    8) = (   0.0000000   0.2664694   0.0784614), wk =   0.0236686
        k(    9) = (   0.0000000   0.3552925   0.0000000), wk =   0.0118343
        k(   10) = (   0.0000000   0.3552925   0.0784614), wk =   0.0236686
        k(   11) = (   0.0000000   0.4441156   0.0000000), wk =   0.0118343
        k(   12) = (   0.0000000   0.4441156   0.0784614), wk =   0.0236686
        k(   13) = (   0.0000000   0.5329387   0.0000000), wk =   0.0118343
        k(   14) = (   0.0000000   0.5329387   0.0784614), wk =   0.0236686
        k(   15) = (   0.0769231   0.1332347   0.0000000), wk =   0.0118343
        k(   16) = (   0.0769231   0.1332347   0.0784614), wk =   0.0236686
        k(   17) = (   0.0769231   0.2220578   0.0000000), wk =   0.0236686
        k(   18) = (   0.0769231   0.2220578   0.0784614), wk =   0.0473373
        k(   19) = (   0.0769231   0.3108809   0.0000000), wk =   0.0236686
        k(   20) = (   0.0769231   0.3108809   0.0784614), wk =   0.0473373
        k(   21) = (   0.0769231   0.3997040   0.0000000), wk =   0.0236686
        k(   22) = (   0.0769231   0.3997040   0.0784614), wk =   0.0473373
        k(   23) = (   0.0769231   0.4885272   0.0000000), wk =   0.0236686
        k(   24) = (   0.0769231   0.4885272   0.0784614), wk =   0.0473373
        k(   25) = (   0.0769231   0.5773503   0.0000000), wk =   0.0118343
        k(   26) = (   0.0769231   0.5773503   0.0784614), wk =   0.0236686
        k(   27) = (   0.1538462   0.2664694   0.0000000), wk =   0.0118343
        k(   28) = (   0.1538462   0.2664694   0.0784614), wk =   0.0236686
        k(   29) = (   0.1538462   0.3552925   0.0000000), wk =   0.0236686
        k(   30) = (   0.1538462   0.3552925   0.0784614), wk =   0.0473373
        k(   31) = (   0.1538462   0.4441156   0.0000000), wk =   0.0236686
        k(   32) = (   0.1538462   0.4441156   0.0784614), wk =   0.0473373
        k(   33) = (   0.1538462   0.5329387   0.0000000), wk =   0.0236686
        k(   34) = (   0.1538462   0.5329387   0.0784614), wk =   0.0473373
        k(   35) = (   0.2307692   0.3997040   0.0000000), wk =   0.0118343
        k(   36) = (   0.2307692   0.3997040   0.0784614), wk =   0.0236686
        k(   37) = (   0.2307692   0.4885272   0.0000000), wk =   0.0236686
        k(   38) = (   0.2307692   0.4885272   0.0784614), wk =   0.0473373
        k(   39) = (   0.2307692   0.5773503   0.0000000), wk =   0.0118343
        k(   40) = (   0.2307692   0.5773503   0.0784614), wk =   0.0236686
        k(   41) = (   0.3076923   0.5329387   0.0000000), wk =   0.0118343
        k(   42) = (   0.3076923   0.5329387   0.0784614), wk =   0.0236686

                       cryst. coord.
        k(    1) = (   0.0000000   0.0000000   0.0000000), wk =   0.0019724
        k(    2) = (   0.0000000   0.0000000   0.3333333), wk =   0.0039448
        k(    3) = (   0.0000000   0.0769231   0.0000000), wk =   0.0118343
        k(    4) = (   0.0000000   0.0769231   0.3333333), wk =   0.0236686
        k(    5) = (   0.0000000   0.1538462   0.0000000), wk =   0.0118343
        k(    6) = (   0.0000000   0.1538462   0.3333333), wk =   0.0236686
        k(    7) = (   0.0000000   0.2307692   0.0000000), wk =   0.0118343
        k(    8) = (   0.0000000   0.2307692   0.3333333), wk =   0.0236686
        k(    9) = (   0.0000000   0.3076923   0.0000000), wk =   0.0118343
        k(   10) = (   0.0000000   0.3076923   0.3333333), wk =   0.0236686
        k(   11) = (   0.0000000   0.3846154   0.0000000), wk =   0.0118343
        k(   12) = (   0.0000000   0.3846154   0.3333333), wk =   0.0236686
        k(   13) = (   0.0000000   0.4615385   0.0000000), wk =   0.0118343
        k(   14) = (   0.0000000   0.4615385   0.3333333), wk =   0.0236686
        k(   15) = (   0.0769231   0.0769231   0.0000000), wk =   0.0118343
        k(   16) = (   0.0769231   0.0769231   0.3333333), wk =   0.0236686
        k(   17) = (   0.0769231   0.1538462   0.0000000), wk =   0.0236686
        k(   18) = (   0.0769231   0.1538462   0.3333333), wk =   0.0473373
        k(   19) = (   0.0769231   0.2307692   0.0000000), wk =   0.0236686
        k(   20) = (   0.0769231   0.2307692   0.3333333), wk =   0.0473373
        k(   21) = (   0.0769231   0.3076923   0.0000000), wk =   0.0236686
        k(   22) = (   0.0769231   0.3076923   0.3333333), wk =   0.0473373
        k(   23) = (   0.0769231   0.3846154   0.0000000), wk =   0.0236686
        k(   24) = (   0.0769231   0.3846154   0.3333333), wk =   0.0473373
        k(   25) = (   0.0769231   0.4615385   0.0000000), wk =   0.0118343
        k(   26) = (   0.0769231   0.4615385   0.3333333), wk =   0.0236686
        k(   27) = (   0.1538462   0.1538462   0.0000000), wk =   0.0118343
        k(   28) = (   0.1538462   0.1538462   0.3333333), wk =   0.0236686
        k(   29) = (   0.1538462   0.2307692   0.0000000), wk =   0.0236686
        k(   30) = (   0.1538462   0.2307692   0.3333333), wk =   0.0473373
        k(   31) = (   0.1538462   0.3076923   0.0000000), wk =   0.0236686
        k(   32) = (   0.1538462   0.3076923   0.3333333), wk =   0.0473373
        k(   33) = (   0.1538462   0.3846154   0.0000000), wk =   0.0236686
        k(   34) = (   0.1538462   0.3846154   0.3333333), wk =   0.0473373
        k(   35) = (   0.2307692   0.2307692   0.0000000), wk =   0.0118343
        k(   36) = (   0.2307692   0.2307692   0.3333333), wk =   0.0236686
        k(   37) = (   0.2307692   0.3076923   0.0000000), wk =   0.0236686
        k(   38) = (   0.2307692   0.3076923   0.3333333), wk =   0.0473373
        k(   39) = (   0.2307692   0.3846154   0.0000000), wk =   0.0118343
        k(   40) = (   0.2307692   0.3846154   0.3333333), wk =   0.0236686
        k(   41) = (   0.3076923   0.3076923   0.0000000), wk =   0.0118343
        k(   42) = (   0.3076923   0.3076923   0.3333333), wk =   0.0236686

     Dense  grid:   179509 G-vectors     FFT dimensions: (  45,  45, 200)

     Smooth grid:    63215 G-vectors     FFT dimensions: (  36,  36, 144)

     Dynamical RAM for                 wfc:       9.19 MB

     Dynamical RAM for     wfc (w. buffer):     781.48 MB

     Dynamical RAM for           str. fact:       8.22 MB

     Dynamical RAM for           local pot:       0.00 MB

     Dynamical RAM for          nlocal pot:      19.36 MB

     Dynamical RAM for                qrad:       4.57 MB

     Dynamical RAM for          rho,v,vnew:      34.97 MB

     Dynamical RAM for               rhoin:      11.66 MB

     Dynamical RAM for            rho*nmix:      87.65 MB

     Dynamical RAM for           G-vectors:      10.75 MB

     Dynamical RAM for          h,s,v(r/c):       1.06 MB

     Dynamical RAM for          <psi|beta>:       0.19 MB

     Dynamical RAM for                 psi:      18.39 MB

     Dynamical RAM for                hpsi:      18.39 MB

     Dynamical RAM for                spsi:      18.39 MB

     Dynamical RAM for      wfcinit/wfcrot:      27.39 MB

     Dynamical RAM for           addusdens:     523.17 MB

     Dynamical RAM for          addusforce:     539.63 MB

     Dynamical RAM for         addusstress:     554.67 MB

     Estimated static dynamical RAM per process >     900.50 MB

     Estimated max dynamical RAM per process >       1.51 GB

     Check: negative core charge=   -0.000005
     Generating pointlists ...
     new r_m :   0.2386 (alat units)  1.7906 (a.u.) for type    1
     new r_m :   0.3467 (alat units)  2.6022 (a.u.) for type    2
     new r_m :   0.2979 (alat units)  2.2356 (a.u.) for type    3

     Initial potential from superposition of free atoms

     starting charge     121.9833, renormalised to     126.0000
     Starting wfcs are  112 randomized atomic wfcs
     Checking if some PAW data can be deallocated... 

     total cpu time spent up to now is        8.0 secs

     per-process dynamical memory:  1561.8 Mb

     Self-consistent Calculation
[tb_dev] Currently allocated     3.38E+00 Mbytes, locked:    0 /  10
[tb_pin] Currently allocated     0.00E+00 Mbytes, locked:    0 /   0

     iteration #  1     ecut=    45.00 Ry     beta= 0.40
     Davidson diagonalization with overlap

---- Real-time Memory Report at c_bands before calling an iterative solver
          1784 MiB given to the printing process from OS
          1534 MiB allocation reported by mallinfo(arena+hblkhd)
         31535 MiB available memory on the node where the printing process lives
     GPU memory used/free/total (MiB): 1124 / 15156 / 16280
------------------
     ethr =  1.00E-02,  avg # of iterations =  2.2

     total cpu time spent up to now is       14.2 secs

     total energy              =   -2302.14926900 Ry
     estimated scf accuracy    <      20.30069762 Ry

     total magnetization       =    12.32 Bohr mag/cell
     absolute magnetization    =    12.54 Bohr mag/cell
[tb_dev] Currently allocated     1.20E+01 Mbytes, locked:    0 /  16
[tb_pin] Currently allocated     0.00E+00 Mbytes, locked:    0 /   0

     iteration #  2     ecut=    45.00 Ry     beta= 0.40
     Davidson diagonalization with overlap

---- Real-time Memory Report at c_bands before calling an iterative solver
          1890 MiB given to the printing process from OS
          1599 MiB allocation reported by mallinfo(arena+hblkhd)
         31477 MiB available memory on the node where the printing process lives
     GPU memory used/free/total (MiB): 1986 / 14294 / 16280
------------------
     ethr =  1.00E-02,  avg # of iterations =  4.6

     total cpu time spent up to now is       22.9 secs

     total energy              =   -2306.59666893 Ry
     estimated scf accuracy    <      16.02385456 Ry

     total magnetization       =     9.86 Bohr mag/cell
     absolute magnetization    =     9.92 Bohr mag/cell
[tb_dev] Currently allocated     1.20E+01 Mbytes, locked:    0 /  16
[tb_pin] Currently allocated     0.00E+00 Mbytes, locked:    0 /   0

     iteration #  3     ecut=    45.00 Ry     beta= 0.40
     Davidson diagonalization with overlap

---- Real-time Memory Report at c_bands before calling an iterative solver
          1953 MiB given to the printing process from OS
          1603 MiB allocation reported by mallinfo(arena+hblkhd)
         31466 MiB available memory on the node where the printing process lives
     GPU memory used/free/total (MiB): 2096 / 14184 / 16280
------------------
     ethr =  1.00E-02,  avg # of iterations =  2.5

     total cpu time spent up to now is       29.1 secs

     total energy              =   -2308.86531903 Ry
     estimated scf accuracy    <      13.64204332 Ry

     total magnetization       =     1.94 Bohr mag/cell
     absolute magnetization    =     3.62 Bohr mag/cell
[tb_dev] Currently allocated     1.20E+01 Mbytes, locked:    0 /  16
[tb_pin] Currently allocated     0.00E+00 Mbytes, locked:    0 /   0

     iteration #  4     ecut=    45.00 Ry     beta= 0.40
     Davidson diagonalization with overlap

---- Real-time Memory Report at c_bands before calling an iterative solver
          2006 MiB given to the printing process from OS
          1625 MiB allocation reported by mallinfo(arena+hblkhd)
         31460 MiB available memory on the node where the printing process lives
     GPU memory used/free/total (MiB): 2096 / 14184 / 16280
------------------
     ethr =  1.00E-02,  avg # of iterations =  1.0

     total cpu time spent up to now is       34.1 secs

     total energy              =   -2309.71337076 Ry
     estimated scf accuracy    <       0.97843343 Ry

     total magnetization       =     7.32 Bohr mag/cell
     absolute magnetization    =     7.89 Bohr mag/cell
[tb_dev] Currently allocated     1.20E+01 Mbytes, locked:    0 /  16
[tb_pin] Currently allocated     0.00E+00 Mbytes, locked:    0 /   0

     iteration #  5     ecut=    45.00 Ry     beta= 0.40
     Davidson diagonalization with overlap

---- Real-time Memory Report at c_bands before calling an iterative solver
          2058 MiB given to the printing process from OS
          1629 MiB allocation reported by mallinfo(arena+hblkhd)
         31458 MiB available memory on the node where the printing process lives
     GPU memory used/free/total (MiB): 2096 / 14184 / 16280
------------------
     ethr =  7.77E-04,  avg # of iterations =  4.3

     total cpu time spent up to now is       42.4 secs

     total energy              =   -2309.93478528 Ry
     estimated scf accuracy    <       0.24227087 Ry

     total magnetization       =     6.70 Bohr mag/cell
     absolute magnetization    =     8.00 Bohr mag/cell
[tb_dev] Currently allocated     1.20E+01 Mbytes, locked:    0 /  16
[tb_pin] Currently allocated     0.00E+00 Mbytes, locked:    0 /   0

     iteration #  6     ecut=    45.00 Ry     beta= 0.40
     Davidson diagonalization with overlap

---- Real-time Memory Report at c_bands before calling an iterative solver
          2120 MiB given to the printing process from OS
          1639 MiB allocation reported by mallinfo(arena+hblkhd)
         31450 MiB available memory on the node where the printing process lives
     GPU memory used/free/total (MiB): 2096 / 14184 / 16280
------------------
     ethr =  1.92E-04,  avg # of iterations =  2.6

     total cpu time spent up to now is       48.4 secs

     total energy              =   -2309.95288218 Ry
     estimated scf accuracy    <       0.07979527 Ry

     total magnetization       =     5.89 Bohr mag/cell
     absolute magnetization    =     7.38 Bohr mag/cell
[tb_dev] Currently allocated     1.20E+01 Mbytes, locked:    0 /  16
[tb_pin] Currently allocated     0.00E+00 Mbytes, locked:    0 /   0

     iteration #  7     ecut=    45.00 Ry     beta= 0.40
     Davidson diagonalization with overlap

---- Real-time Memory Report at c_bands before calling an iterative solver
          2178 MiB given to the printing process from OS
          1647 MiB allocation reported by mallinfo(arena+hblkhd)
         31442 MiB available memory on the node where the printing process lives
     GPU memory used/free/total (MiB): 2096 / 14184 / 16280
------------------
     c_bands:  1 eigenvalues not converged
     ethr =  6.33E-05,  avg # of iterations =  5.5

     total cpu time spent up to now is       57.0 secs

     total energy              =   -2309.97331339 Ry
     estimated scf accuracy    <       0.01079165 Ry

     total magnetization       =     4.78 Bohr mag/cell
     absolute magnetization    =     6.81 Bohr mag/cell
[tb_dev] Currently allocated     1.20E+01 Mbytes, locked:    0 /  16
[tb_pin] Currently allocated     0.00E+00 Mbytes, locked:    0 /   0

     iteration #  8     ecut=    45.00 Ry     beta= 0.40
     Davidson diagonalization with overlap

---- Real-time Memory Report at c_bands before calling an iterative solver
          2237 MiB given to the printing process from OS
          1656 MiB allocation reported by mallinfo(arena+hblkhd)
         31432 MiB available memory on the node where the printing process lives
     GPU memory used/free/total (MiB): 2096 / 14184 / 16280
------------------
     ethr =  8.56E-06,  avg # of iterations =  8.1

     total cpu time spent up to now is       67.8 secs

     total energy              =   -2309.97201761 Ry
     estimated scf accuracy    <       0.00628243 Ry

     total magnetization       =     4.57 Bohr mag/cell
     absolute magnetization    =     6.62 Bohr mag/cell
[tb_dev] Currently allocated     1.20E+01 Mbytes, locked:    0 /  16
[tb_pin] Currently allocated     0.00E+00 Mbytes, locked:    0 /   0

     iteration #  9     ecut=    45.00 Ry     beta= 0.40
     Davidson diagonalization with overlap

---- Real-time Memory Report at c_bands before calling an iterative solver
          2296 MiB given to the printing process from OS
          1666 MiB allocation reported by mallinfo(arena+hblkhd)
         31424 MiB available memory on the node where the printing process lives
     GPU memory used/free/total (MiB): 2096 / 14184 / 16280
------------------
     ethr =  4.99E-06,  avg # of iterations =  5.5

     total cpu time spent up to now is       77.2 secs

     total energy              =   -2309.97330933 Ry
     estimated scf accuracy    <       0.02589048 Ry

     total magnetization       =     3.63 Bohr mag/cell
     absolute magnetization    =     5.54 Bohr mag/cell
[tb_dev] Currently allocated     1.20E+01 Mbytes, locked:    0 /  16
[tb_pin] Currently allocated     0.00E+00 Mbytes, locked:    0 /   0

     iteration # 10     ecut=    45.00 Ry     beta= 0.40
     Davidson diagonalization with overlap

---- Real-time Memory Report at c_bands before calling an iterative solver
          2340 MiB given to the printing process from OS
          1670 MiB allocation reported by mallinfo(arena+hblkhd)
         31421 MiB available memory on the node where the printing process lives
     GPU memory used/free/total (MiB): 2096 / 14184 / 16280
------------------
     ethr =  4.99E-06,  avg # of iterations =  4.1

     total cpu time spent up to now is       85.1 secs

     total energy              =   -2309.97832755 Ry
     estimated scf accuracy    <       0.01972690 Ry

     total magnetization       =     4.36 Bohr mag/cell
     absolute magnetization    =     6.18 Bohr mag/cell
[tb_dev] Currently allocated     1.20E+01 Mbytes, locked:    0 /  16
[tb_pin] Currently allocated     0.00E+00 Mbytes, locked:    0 /   0

     iteration # 11     ecut=    45.00 Ry     beta= 0.40
     Davidson diagonalization with overlap

---- Real-time Memory Report at c_bands before calling an iterative solver
          2372 MiB given to the printing process from OS
          1674 MiB allocation reported by mallinfo(arena+hblkhd)
         31408 MiB available memory on the node where the printing process lives
     GPU memory used/free/total (MiB): 2096 / 14184 / 16280
------------------
     ethr =  4.99E-06,  avg # of iterations =  1.5

     total cpu time spent up to now is       90.4 secs

     total energy              =   -2309.97940429 Ry
     estimated scf accuracy    <       0.00083510 Ry

     total magnetization       =     4.07 Bohr mag/cell
     absolute magnetization    =     5.82 Bohr mag/cell
[tb_dev] Currently allocated     1.20E+01 Mbytes, locked:    0 /  16
[tb_pin] Currently allocated     0.00E+00 Mbytes, locked:    0 /   0

     iteration # 12     ecut=    45.00 Ry     beta= 0.40
     Davidson diagonalization with overlap

---- Real-time Memory Report at c_bands before calling an iterative solver
          2398 MiB given to the printing process from OS
          1677 MiB allocation reported by mallinfo(arena+hblkhd)
         31407 MiB available memory on the node where the printing process lives
     GPU memory used/free/total (MiB): 2096 / 14184 / 16280
------------------
     ethr =  6.63E-07,  avg # of iterations =  3.8

     total cpu time spent up to now is       98.0 secs

     total energy              =   -2309.97973857 Ry
     estimated scf accuracy    <       0.00004599 Ry

     total magnetization       =     3.92 Bohr mag/cell
     absolute magnetization    =     5.59 Bohr mag/cell
[tb_dev] Currently allocated     1.20E+01 Mbytes, locked:    0 /  16
[tb_pin] Currently allocated     0.00E+00 Mbytes, locked:    0 /   0

     iteration # 13     ecut=    45.00 Ry     beta= 0.40
     Davidson diagonalization with overlap

---- Real-time Memory Report at c_bands before calling an iterative solver
          2427 MiB given to the printing process from OS
          1681 MiB allocation reported by mallinfo(arena+hblkhd)
         31402 MiB available memory on the node where the printing process lives
     GPU memory used/free/total (MiB): 2096 / 14184 / 16280
------------------
     ethr =  3.65E-08,  avg # of iterations =  4.8

     total cpu time spent up to now is      106.5 secs

     total energy              =   -2309.97974713 Ry
     estimated scf accuracy    <       0.00001978 Ry

     total magnetization       =     3.88 Bohr mag/cell
     absolute magnetization    =     5.51 Bohr mag/cell
[tb_dev] Currently allocated     1.20E+01 Mbytes, locked:    0 /  16
[tb_pin] Currently allocated     0.00E+00 Mbytes, locked:    0 /   0

     iteration # 14     ecut=    45.00 Ry     beta= 0.40
     Davidson diagonalization with overlap

---- Real-time Memory Report at c_bands before calling an iterative solver
          2446 MiB given to the printing process from OS
          1685 MiB allocation reported by mallinfo(arena+hblkhd)
         31399 MiB available memory on the node where the printing process lives
     GPU memory used/free/total (MiB): 2096 / 14184 / 16280
------------------
     ethr =  1.57E-08,  avg # of iterations =  5.8

     total cpu time spent up to now is      116.5 secs

     total energy              =   -2309.97983114 Ry
     estimated scf accuracy    <       0.00005085 Ry

     total magnetization       =     3.80 Bohr mag/cell
     absolute magnetization    =     5.37 Bohr mag/cell
[tb_dev] Currently allocated     1.20E+01 Mbytes, locked:    0 /  16
[tb_pin] Currently allocated     0.00E+00 Mbytes, locked:    0 /   0

     iteration # 15     ecut=    45.00 Ry     beta= 0.40
     Davidson diagonalization with overlap

---- Real-time Memory Report at c_bands before calling an iterative solver
          2461 MiB given to the printing process from OS
          1689 MiB allocation reported by mallinfo(arena+hblkhd)
         31400 MiB available memory on the node where the printing process lives
     GPU memory used/free/total (MiB): 2096 / 14184 / 16280
------------------
     ethr =  1.57E-08,  avg # of iterations =  4.6

     total cpu time spent up to now is      124.9 secs

     total energy              =   -2309.97980563 Ry
     estimated scf accuracy    <       0.00002229 Ry

     total magnetization       =     3.74 Bohr mag/cell
     absolute magnetization    =     5.28 Bohr mag/cell
[tb_dev] Currently allocated     1.20E+01 Mbytes, locked:    0 /  16
[tb_pin] Currently allocated     0.00E+00 Mbytes, locked:    0 /   0

     iteration # 16     ecut=    45.00 Ry     beta= 0.40
     Davidson diagonalization with overlap

---- Real-time Memory Report at c_bands before calling an iterative solver
          2485 MiB given to the printing process from OS
          1693 MiB allocation reported by mallinfo(arena+hblkhd)
         31393 MiB available memory on the node where the printing process lives
     GPU memory used/free/total (MiB): 2096 / 14184 / 16280
------------------
     ethr =  1.57E-08,  avg # of iterations =  4.8

     total cpu time spent up to now is      133.7 secs

     total energy              =   -2309.97953368 Ry
     estimated scf accuracy    <       0.00001196 Ry

     total magnetization       =     3.63 Bohr mag/cell
     absolute magnetization    =     5.13 Bohr mag/cell
[tb_dev] Currently allocated     1.20E+01 Mbytes, locked:    0 /  16
[tb_pin] Currently allocated     0.00E+00 Mbytes, locked:    0 /   0

     iteration # 17     ecut=    45.00 Ry     beta= 0.40
     Davidson diagonalization with overlap

---- Real-time Memory Report at c_bands before calling an iterative solver
          2500 MiB given to the printing process from OS
          1697 MiB allocation reported by mallinfo(arena+hblkhd)
         31394 MiB available memory on the node where the printing process lives
     GPU memory used/free/total (MiB): 2096 / 14184 / 16280
------------------
     ethr =  9.49E-09,  avg # of iterations =  7.0

     total cpu time spent up to now is      144.7 secs

     total energy              =   -2309.97959784 Ry
     estimated scf accuracy    <       0.00005594 Ry

     total magnetization       =     3.83 Bohr mag/cell
     absolute magnetization    =     5.39 Bohr mag/cell
[tb_dev] Currently allocated     1.20E+01 Mbytes, locked:    0 /  16
[tb_pin] Currently allocated     0.00E+00 Mbytes, locked:    0 /   0

     iteration # 18     ecut=    45.00 Ry     beta= 0.40
     Davidson diagonalization with overlap

---- Real-time Memory Report at c_bands before calling an iterative solver
          2526 MiB given to the printing process from OS
          1700 MiB allocation reported by mallinfo(arena+hblkhd)
         31384 MiB available memory on the node where the printing process lives
     GPU memory used/free/total (MiB): 2096 / 14184 / 16280
------------------
     ethr =  9.49E-09,  avg # of iterations =  7.2

     total cpu time spent up to now is      155.9 secs

     total energy              =   -2309.97879444 Ry
     estimated scf accuracy    <       0.00003302 Ry

     total magnetization       =     3.62 Bohr mag/cell
     absolute magnetization    =     5.13 Bohr mag/cell
[tb_dev] Currently allocated     1.20E+01 Mbytes, locked:    0 /  16
[tb_pin] Currently allocated     0.00E+00 Mbytes, locked:    0 /   0

     iteration # 19     ecut=    45.00 Ry     beta= 0.40
     Davidson diagonalization with overlap

---- Real-time Memory Report at c_bands before calling an iterative solver
          2540 MiB given to the printing process from OS
          1704 MiB allocation reported by mallinfo(arena+hblkhd)
         31387 MiB available memory on the node where the printing process lives
     GPU memory used/free/total (MiB): 2096 / 14184 / 16280
------------------
     ethr =  9.49E-09,  avg # of iterations =  8.3

     total cpu time spent up to now is      168.7 secs

     total energy              =   -2309.97934422 Ry
     estimated scf accuracy    <       0.00035124 Ry

     total magnetization       =     3.11 Bohr mag/cell
     absolute magnetization    =     4.52 Bohr mag/cell
[tb_dev] Currently allocated     1.20E+01 Mbytes, locked:    0 /  16
[tb_pin] Currently allocated     0.00E+00 Mbytes, locked:    0 /   0

     iteration # 20     ecut=    45.00 Ry     beta= 0.40
     Davidson diagonalization with overlap

---- Real-time Memory Report at c_bands before calling an iterative solver
          2562 MiB given to the printing process from OS
          1708 MiB allocation reported by mallinfo(arena+hblkhd)
         31379 MiB available memory on the node where the printing process lives
     GPU memory used/free/total (MiB): 2096 / 14184 / 16280
------------------
     ethr =  9.49E-09,  avg # of iterations =  7.2

     total cpu time spent up to now is      180.1 secs

     total energy              =   -2309.97984277 Ry
     estimated scf accuracy    <       0.00004235 Ry

     total magnetization       =     3.45 Bohr mag/cell
     absolute magnetization    =     4.92 Bohr mag/cell
[tb_dev] Currently allocated     1.20E+01 Mbytes, locked:    0 /  16
[tb_pin] Currently allocated     0.00E+00 Mbytes, locked:    0 /   0

     iteration # 21     ecut=    45.00 Ry     beta= 0.40
     Davidson diagonalization with overlap

---- Real-time Memory Report at c_bands before calling an iterative solver
          2585 MiB given to the printing process from OS
          1712 MiB allocation reported by mallinfo(arena+hblkhd)
         31372 MiB available memory on the node where the printing process lives
     GPU memory used/free/total (MiB): 2096 / 14184 / 16280
------------------
     ethr =  9.49E-09,  avg # of iterations =  6.1

     total cpu time spent up to now is      190.2 secs

     total energy              =   -2309.97983037 Ry
     estimated scf accuracy    <       0.00021390 Ry

     total magnetization       =     3.26 Bohr mag/cell
     absolute magnetization    =     4.68 Bohr mag/cell
[tb_dev] Currently allocated     1.20E+01 Mbytes, locked:    0 /  16
[tb_pin] Currently allocated     0.00E+00 Mbytes, locked:    0 /   0

     iteration # 22     ecut=    45.00 Ry     beta= 0.40
     Davidson diagonalization with overlap

---- Real-time Memory Report at c_bands before calling an iterative solver
          2594 MiB given to the printing process from OS
          1716 MiB allocation reported by mallinfo(arena+hblkhd)
         31376 MiB available memory on the node where the printing process lives
     GPU memory used/free/total (MiB): 2096 / 14184 / 16280
------------------
     ethr =  9.49E-09,  avg # of iterations =  5.9

     total cpu time spent up to now is      199.9 secs

     total energy              =   -2309.97990675 Ry
     estimated scf accuracy    <       0.00008028 Ry

     total magnetization       =     3.42 Bohr mag/cell
     absolute magnetization    =     4.87 Bohr mag/cell
[tb_dev] Currently allocated     1.20E+01 Mbytes, locked:    0 /  16
[tb_pin] Currently allocated     0.00E+00 Mbytes, locked:    0 /   0

     iteration # 23     ecut=    45.00 Ry     beta= 0.40
     Davidson diagonalization with overlap

---- Real-time Memory Report at c_bands before calling an iterative solver
          2606 MiB given to the printing process from OS
          1720 MiB allocation reported by mallinfo(arena+hblkhd)
         31365 MiB available memory on the node where the printing process lives
     GPU memory used/free/total (MiB): 2096 / 14184 / 16280
------------------
     ethr =  9.49E-09,  avg # of iterations =  4.8

     total cpu time spent up to now is      208.7 secs

     total energy              =   -2309.97993230 Ry
     estimated scf accuracy    <       0.00004803 Ry

     total magnetization       =     3.50 Bohr mag/cell
     absolute magnetization    =     4.96 Bohr mag/cell
[tb_dev] Currently allocated     1.20E+01 Mbytes, locked:    0 /  16
[tb_pin] Currently allocated     0.00E+00 Mbytes, locked:    0 /   0

     iteration # 24     ecut=    45.00 Ry     beta= 0.40
     Davidson diagonalization with overlap

---- Real-time Memory Report at c_bands before calling an iterative solver
          2615 MiB given to the printing process from OS
          1723 MiB allocation reported by mallinfo(arena+hblkhd)
         31361 MiB available memory on the node where the printing process lives
     GPU memory used/free/total (MiB): 2096 / 14184 / 16280
------------------
     ethr =  9.49E-09,  avg # of iterations =  1.5

     total cpu time spent up to now is      214.0 secs

     total energy              =   -2309.97986238 Ry
     estimated scf accuracy    <       0.00004134 Ry

     total magnetization       =     3.52 Bohr mag/cell
     absolute magnetization    =     4.98 Bohr mag/cell
[tb_dev] Currently allocated     1.20E+01 Mbytes, locked:    0 /  16
[tb_pin] Currently allocated     0.00E+00 Mbytes, locked:    0 /   0

     iteration # 25     ecut=    45.00 Ry     beta= 0.40
     Davidson diagonalization with overlap

---- Real-time Memory Report at c_bands before calling an iterative solver
          2621 MiB given to the printing process from OS
          1727 MiB allocation reported by mallinfo(arena+hblkhd)
         31356 MiB available memory on the node where the printing process lives
     GPU memory used/free/total (MiB): 2096 / 14184 / 16280
------------------
     ethr =  9.49E-09,  avg # of iterations =  4.9

     total cpu time spent up to now is      223.2 secs

     total energy              =   -2309.97961238 Ry
     estimated scf accuracy    <       0.00002224 Ry

     total magnetization       =     3.60 Bohr mag/cell
     absolute magnetization    =     5.08 Bohr mag/cell
[tb_dev] Currently allocated     1.20E+01 Mbytes, locked:    0 /  16
[tb_pin] Currently allocated     0.00E+00 Mbytes, locked:    0 /   0

     iteration # 26     ecut=    45.00 Ry     beta= 0.40
     Davidson diagonalization with overlap

---- Real-time Memory Report at c_bands before calling an iterative solver
          2627 MiB given to the printing process from OS
          1731 MiB allocation reported by mallinfo(arena+hblkhd)
         31355 MiB available memory on the node where the printing process lives
     GPU memory used/free/total (MiB): 2096 / 14184 / 16280
------------------
     ethr =  9.49E-09,  avg # of iterations =  7.0

     total cpu time spent up to now is      234.1 secs

     total energy              =   -2309.97985064 Ry
     estimated scf accuracy    <       0.00002187 Ry

     total magnetization       =     3.79 Bohr mag/cell
     absolute magnetization    =     5.32 Bohr mag/cell
[tb_dev] Currently allocated     1.20E+01 Mbytes, locked:    0 /  16
[tb_pin] Currently allocated     0.00E+00 Mbytes, locked:    0 /   0

     iteration # 27     ecut=    45.00 Ry     beta= 0.40
     Davidson diagonalization with overlap

---- Real-time Memory Report at c_bands before calling an iterative solver
          2636 MiB given to the printing process from OS
          1735 MiB allocation reported by mallinfo(arena+hblkhd)
         31349 MiB available memory on the node where the printing process lives
     GPU memory used/free/total (MiB): 2096 / 14184 / 16280
------------------
     ethr =  9.49E-09,  avg # of iterations =  2.0

     total cpu time spent up to now is      239.9 secs

     total energy              =   -2309.97985770 Ry
     estimated scf accuracy    <       0.00002576 Ry

     total magnetization       =     3.81 Bohr mag/cell
     absolute magnetization    =     5.34 Bohr mag/cell
[tb_dev] Currently allocated     1.20E+01 Mbytes, locked:    0 /  16
[tb_pin] Currently allocated     0.00E+00 Mbytes, locked:    0 /   0

     iteration # 28     ecut=    45.00 Ry     beta= 0.40
     Davidson diagonalization with overlap

---- Real-time Memory Report at c_bands before calling an iterative solver
          2644 MiB given to the printing process from OS
          1739 MiB allocation reported by mallinfo(arena+hblkhd)
         31346 MiB available memory on the node where the printing process lives
     GPU memory used/free/total (MiB): 2096 / 14184 / 16280
------------------
     ethr =  9.49E-09,  avg # of iterations =  1.1

     total cpu time spent up to now is      245.0 secs

     total energy              =   -2309.97983123 Ry
     estimated scf accuracy    <       0.00002107 Ry

     total magnetization       =     3.80 Bohr mag/cell
     absolute magnetization    =     5.32 Bohr mag/cell
[tb_dev] Currently allocated     1.20E+01 Mbytes, locked:    0 /  16
[tb_pin] Currently allocated     0.00E+00 Mbytes, locked:    0 /   0

     iteration # 29     ecut=    45.00 Ry     beta= 0.40
     Davidson diagonalization with overlap

---- Real-time Memory Report at c_bands before calling an iterative solver
          2651 MiB given to the printing process from OS
          1743 MiB allocation reported by mallinfo(arena+hblkhd)
         31341 MiB available memory on the node where the printing process lives
     GPU memory used/free/total (MiB): 2096 / 14184 / 16280
------------------
     ethr =  9.49E-09,  avg # of iterations =  3.9

     total cpu time spent up to now is      252.4 secs

     total energy              =   -2309.97984279 Ry
     estimated scf accuracy    <       0.00002848 Ry

     total magnetization       =     3.84 Bohr mag/cell
     absolute magnetization    =     5.38 Bohr mag/cell
[tb_dev] Currently allocated     1.20E+01 Mbytes, locked:    0 /  16
[tb_pin] Currently allocated     0.00E+00 Mbytes, locked:    0 /   0

     iteration # 30     ecut=    45.00 Ry     beta= 0.40
     Davidson diagonalization with overlap

---- Real-time Memory Report at c_bands before calling an iterative solver
          2655 MiB given to the printing process from OS
          1747 MiB allocation reported by mallinfo(arena+hblkhd)
         31338 MiB available memory on the node where the printing process lives
     GPU memory used/free/total (MiB): 2096 / 14184 / 16280
------------------
     ethr =  9.49E-09,  avg # of iterations =  1.0

     total cpu time spent up to now is      257.5 secs

     total energy              =   -2309.97984488 Ry
     estimated scf accuracy    <       0.00002987 Ry

     total magnetization       =     3.84 Bohr mag/cell
     absolute magnetization    =     5.38 Bohr mag/cell
[tb_dev] Currently allocated     1.20E+01 Mbytes, locked:    0 /  16
[tb_pin] Currently allocated     0.00E+00 Mbytes, locked:    0 /   0

     iteration # 31     ecut=    45.00 Ry     beta= 0.40
     Davidson diagonalization with overlap

---- Real-time Memory Report at c_bands before calling an iterative solver
          2659 MiB given to the printing process from OS
          1751 MiB allocation reported by mallinfo(arena+hblkhd)
         31333 MiB available memory on the node where the printing process lives
     GPU memory used/free/total (MiB): 2096 / 14184 / 16280
------------------
     ethr =  9.49E-09,  avg # of iterations =  3.3

     total cpu time spent up to now is      264.6 secs

     total energy              =   -2309.97985959 Ry
     estimated scf accuracy    <       0.00002025 Ry

     total magnetization       =     3.80 Bohr mag/cell
     absolute magnetization    =     5.33 Bohr mag/cell
[tb_dev] Currently allocated     1.20E+01 Mbytes, locked:    0 /  16
[tb_pin] Currently allocated     0.00E+00 Mbytes, locked:    0 /   0

     iteration # 32     ecut=    45.00 Ry     beta= 0.40
     Davidson diagonalization with overlap

---- Real-time Memory Report at c_bands before calling an iterative solver
          2663 MiB given to the printing process from OS
          1756 MiB allocation reported by mallinfo(arena+hblkhd)
         31307 MiB available memory on the node where the printing process lives
     GPU memory used/free/total (MiB): 2096 / 14184 / 16280
------------------
     ethr =  9.49E-09,  avg # of iterations =  3.5

     total cpu time spent up to now is      271.6 secs

     total energy              =   -2309.97973331 Ry
     estimated scf accuracy    <       0.00001457 Ry

     total magnetization       =     3.77 Bohr mag/cell
     absolute magnetization    =     5.30 Bohr mag/cell
[tb_dev] Currently allocated     1.20E+01 Mbytes, locked:    0 /  16
[tb_pin] Currently allocated     0.00E+00 Mbytes, locked:    0 /   0

     iteration # 33     ecut=    45.00 Ry     beta= 0.40
     Davidson diagonalization with overlap

---- Real-time Memory Report at c_bands before calling an iterative solver
          2668 MiB given to the printing process from OS
          1760 MiB allocation reported by mallinfo(arena+hblkhd)
         31309 MiB available memory on the node where the printing process lives
     GPU memory used/free/total (MiB): 2096 / 14184 / 16280
------------------
     ethr =  9.49E-09,  avg # of iterations =  6.8

     total cpu time spent up to now is      282.3 secs

     total energy              =   -2309.97929218 Ry
     estimated scf accuracy    <       0.00001503 Ry

     total magnetization       =     3.62 Bohr mag/cell
     absolute magnetization    =     5.10 Bohr mag/cell
[tb_dev] Currently allocated     1.20E+01 Mbytes, locked:    0 /  16
[tb_pin] Currently allocated     0.00E+00 Mbytes, locked:    0 /   0

     iteration # 34     ecut=    45.00 Ry     beta= 0.40
     Davidson diagonalization with overlap

---- Real-time Memory Report at c_bands before calling an iterative solver
          2671 MiB given to the printing process from OS
          1764 MiB allocation reported by mallinfo(arena+hblkhd)
         31311 MiB available memory on the node where the printing process lives
     GPU memory used/free/total (MiB): 2096 / 14184 / 16280
------------------
     ethr =  9.49E-09,  avg # of iterations =  7.8

     total cpu time spent up to now is      294.5 secs

     total energy              =   -2309.97905645 Ry
     estimated scf accuracy    <       0.00021095 Ry

     total magnetization       =     3.23 Bohr mag/cell
     absolute magnetization    =     4.65 Bohr mag/cell
[tb_dev] Currently allocated     1.20E+01 Mbytes, locked:    0 /  16
[tb_pin] Currently allocated     0.00E+00 Mbytes, locked:    0 /   0

     iteration # 35     ecut=    45.00 Ry     beta= 0.40
     Davidson diagonalization with overlap

---- Real-time Memory Report at c_bands before calling an iterative solver
          2671 MiB given to the printing process from OS
          1768 MiB allocation reported by mallinfo(arena+hblkhd)
         31315 MiB available memory on the node where the printing process lives
     GPU memory used/free/total (MiB): 2096 / 14184 / 16280
------------------
     ethr =  9.49E-09,  avg # of iterations =  7.8

     total cpu time spent up to now is      306.6 secs

     total energy              =   -2309.97990621 Ry
     estimated scf accuracy    <       0.00001707 Ry

     total magnetization       =     3.62 Bohr mag/cell
     absolute magnetization    =     5.10 Bohr mag/cell
[tb_dev] Currently allocated     1.20E+01 Mbytes, locked:    0 /  16
[tb_pin] Currently allocated     0.00E+00 Mbytes, locked:    0 /   0

     iteration # 36     ecut=    45.00 Ry     beta= 0.40
     Davidson diagonalization with overlap

---- Real-time Memory Report at c_bands before calling an iterative solver
          2680 MiB given to the printing process from OS
          1772 MiB allocation reported by mallinfo(arena+hblkhd)
         31306 MiB available memory on the node where the printing process lives
     GPU memory used/free/total (MiB): 2096 / 14184 / 16280
------------------
     ethr =  9.49E-09,  avg # of iterations =  1.0

     total cpu time spent up to now is      311.6 secs

     total energy              =   -2309.97990176 Ry
     estimated scf accuracy    <       0.00001818 Ry

     total magnetization       =     3.61 Bohr mag/cell
     absolute magnetization    =     5.09 Bohr mag/cell
[tb_dev] Currently allocated     1.20E+01 Mbytes, locked:    0 /  16
[tb_pin] Currently allocated     0.00E+00 Mbytes, locked:    0 /   0

     iteration # 37     ecut=    45.00 Ry     beta= 0.40
     Davidson diagonalization with overlap

---- Real-time Memory Report at c_bands before calling an iterative solver
          2687 MiB given to the printing process from OS
          1777 MiB allocation reported by mallinfo(arena+hblkhd)
         31298 MiB available memory on the node where the printing process lives
     GPU memory used/free/total (MiB): 2096 / 14184 / 16280
------------------
     ethr =  9.49E-09,  avg # of iterations =  1.0

     total cpu time spent up to now is      316.7 secs

     total energy              =   -2309.97989538 Ry
     estimated scf accuracy    <       0.00001737 Ry

     total magnetization       =     3.63 Bohr mag/cell
     absolute magnetization    =     5.11 Bohr mag/cell
[tb_dev] Currently allocated     1.20E+01 Mbytes, locked:    0 /  16
[tb_pin] Currently allocated     0.00E+00 Mbytes, locked:    0 /   0

     iteration # 38     ecut=    45.00 Ry     beta= 0.40
     Davidson diagonalization with overlap

---- Real-time Memory Report at c_bands before calling an iterative solver
          2690 MiB given to the printing process from OS
          1781 MiB allocation reported by mallinfo(arena+hblkhd)
         31296 MiB available memory on the node where the printing process lives
     GPU memory used/free/total (MiB): 2096 / 14184 / 16280
------------------
     ethr =  9.49E-09,  avg # of iterations =  2.0

     total cpu time spent up to now is      322.4 secs

     total energy              =   -2309.97985546 Ry
     estimated scf accuracy    <       0.00001643 Ry

     total magnetization       =     3.65 Bohr mag/cell
     absolute magnetization    =     5.13 Bohr mag/cell
[tb_dev] Currently allocated     1.20E+01 Mbytes, locked:    0 /  16
[tb_pin] Currently allocated     0.00E+00 Mbytes, locked:    0 /   0

     iteration # 39     ecut=    45.00 Ry     beta= 0.40
     Davidson diagonalization with overlap

---- Real-time Memory Report at c_bands before calling an iterative solver
          2695 MiB given to the printing process from OS
          1785 MiB allocation reported by mallinfo(arena+hblkhd)
         31292 MiB available memory on the node where the printing process lives
     GPU memory used/free/total (MiB): 2096 / 14184 / 16280
------------------
     ethr =  9.49E-09,  avg # of iterations =  4.9

     total cpu time spent up to now is      331.1 secs

     total energy              =   -2309.97973064 Ry
     estimated scf accuracy    <       0.00001488 Ry

     total magnetization       =     3.71 Bohr mag/cell
     absolute magnetization    =     5.21 Bohr mag/cell
[tb_dev] Currently allocated     1.20E+01 Mbytes, locked:    0 /  16
[tb_pin] Currently allocated     0.00E+00 Mbytes, locked:    0 /   0

     iteration # 40     ecut=    45.00 Ry     beta= 0.40
     Davidson diagonalization with overlap

---- Real-time Memory Report at c_bands before calling an iterative solver
          2697 MiB given to the printing process from OS
          1789 MiB allocation reported by mallinfo(arena+hblkhd)
         31291 MiB available memory on the node where the printing process lives
     GPU memory used/free/total (MiB): 2096 / 14184 / 16280
------------------
     ethr =  9.49E-09,  avg # of iterations =  6.1

     total cpu time spent up to now is      341.1 secs

     total energy              =   -2309.97978019 Ry
     estimated scf accuracy    <       0.00003053 Ry

     total magnetization       =     3.83 Bohr mag/cell
     absolute magnetization    =     5.37 Bohr mag/cell
[tb_dev] Currently allocated     1.20E+01 Mbytes, locked:    0 /  16
[tb_pin] Currently allocated     0.00E+00 Mbytes, locked:    0 /   0

     iteration # 41     ecut=    45.00 Ry     beta= 0.40
     Davidson diagonalization with overlap

---- Real-time Memory Report at c_bands before calling an iterative solver
          2698 MiB given to the printing process from OS
          1793 MiB allocation reported by mallinfo(arena+hblkhd)
         31289 MiB available memory on the node where the printing process lives
     GPU memory used/free/total (MiB): 2096 / 14184 / 16280
------------------
     ethr =  9.49E-09,  avg # of iterations =  4.8

     total cpu time spent up to now is      349.9 secs

     total energy              =   -2309.97982303 Ry
     estimated scf accuracy    <       0.00005680 Ry

     total magnetization       =     3.90 Bohr mag/cell
     absolute magnetization    =     5.46 Bohr mag/cell
[tb_dev] Currently allocated     1.20E+01 Mbytes, locked:    0 /  16
[tb_pin] Currently allocated     0.00E+00 Mbytes, locked:    0 /   0

     iteration # 42     ecut=    45.00 Ry     beta= 0.40
     Davidson diagonalization with overlap

---- Real-time Memory Report at c_bands before calling an iterative solver
          2703 MiB given to the printing process from OS
          1798 MiB allocation reported by mallinfo(arena+hblkhd)
         31285 MiB available memory on the node where the printing process lives
     GPU memory used/free/total (MiB): 2096 / 14184 / 16280
------------------
     ethr =  9.49E-09,  avg # of iterations =  1.1

     total cpu time spent up to now is      355.0 secs

     total energy              =   -2309.97979025 Ry
     estimated scf accuracy    <       0.00005089 Ry

     total magnetization       =     3.89 Bohr mag/cell
     absolute magnetization    =     5.44 Bohr mag/cell
[tb_dev] Currently allocated     1.20E+01 Mbytes, locked:    0 /  16
[tb_pin] Currently allocated     0.00E+00 Mbytes, locked:    0 /   0

     iteration # 43     ecut=    45.00 Ry     beta= 0.40
     Davidson diagonalization with overlap

---- Real-time Memory Report at c_bands before calling an iterative solver
          2706 MiB given to the printing process from OS
          1802 MiB allocation reported by mallinfo(arena+hblkhd)
         31282 MiB available memory on the node where the printing process lives
     GPU memory used/free/total (MiB): 2096 / 14184 / 16280
------------------
     ethr =  9.49E-09,  avg # of iterations =  3.7

     total cpu time spent up to now is      362.4 secs

     total energy              =   -2309.97884949 Ry
     estimated scf accuracy    <       0.00007585 Ry

     total magnetization       =     3.92 Bohr mag/cell
     absolute magnetization    =     5.49 Bohr mag/cell
[tb_dev] Currently allocated     1.20E+01 Mbytes, locked:    0 /  16
[tb_pin] Currently allocated     0.00E+00 Mbytes, locked:    0 /   0

     iteration # 44     ecut=    45.00 Ry     beta= 0.40
     Davidson diagonalization with overlap

---- Real-time Memory Report at c_bands before calling an iterative solver
          2715 MiB given to the printing process from OS
          1806 MiB allocation reported by mallinfo(arena+hblkhd)
         31274 MiB available memory on the node where the printing process lives
     GPU memory used/free/total (MiB): 2096 / 14184 / 16280
------------------
     ethr =  9.49E-09,  avg # of iterations =  7.8

     total cpu time spent up to now is      374.7 secs

     total energy              =   -2309.97993406 Ry
     estimated scf accuracy    <       0.00003059 Ry

     total magnetization       =     3.53 Bohr mag/cell
     absolute magnetization    =     4.99 Bohr mag/cell
[tb_dev] Currently allocated     1.20E+01 Mbytes, locked:    0 /  16
[tb_pin] Currently allocated     0.00E+00 Mbytes, locked:    0 /   0

     iteration # 45     ecut=    45.00 Ry     beta= 0.40
     Davidson diagonalization with overlap

---- Real-time Memory Report at c_bands before calling an iterative solver
          2722 MiB given to the printing process from OS
          1810 MiB allocation reported by mallinfo(arena+hblkhd)
         31268 MiB available memory on the node where the printing process lives
     GPU memory used/free/total (MiB): 2096 / 14184 / 16280
------------------
     ethr =  9.49E-09,  avg # of iterations =  2.0

     total cpu time spent up to now is      380.4 secs

     total energy              =   -2309.97994067 Ry
     estimated scf accuracy    <       0.00003452 Ry

     total magnetization       =     3.51 Bohr mag/cell
     absolute magnetization    =     4.97 Bohr mag/cell
[tb_dev] Currently allocated     1.20E+01 Mbytes, locked:    0 /  16
[tb_pin] Currently allocated     0.00E+00 Mbytes, locked:    0 /   0

     iteration # 46     ecut=    45.00 Ry     beta= 0.40
     Davidson diagonalization with overlap

---- Real-time Memory Report at c_bands before calling an iterative solver
          2726 MiB given to the printing process from OS
          1814 MiB allocation reported by mallinfo(arena+hblkhd)
         31264 MiB available memory on the node where the printing process lives
     GPU memory used/free/total (MiB): 2096 / 14184 / 16280
------------------
     ethr =  9.49E-09,  avg # of iterations =  2.5

     total cpu time spent up to now is      386.6 secs

     total energy              =   -2309.97993952 Ry
     estimated scf accuracy    <       0.00004140 Ry

     total magnetization       =     3.48 Bohr mag/cell
     absolute magnetization    =     4.94 Bohr mag/cell
[tb_dev] Currently allocated     1.20E+01 Mbytes, locked:    0 /  16
[tb_pin] Currently allocated     0.00E+00 Mbytes, locked:    0 /   0

     iteration # 47     ecut=    45.00 Ry     beta= 0.40
     Davidson diagonalization with overlap

---- Real-time Memory Report at c_bands before calling an iterative solver
          2730 MiB given to the printing process from OS
          1819 MiB allocation reported by mallinfo(arena+hblkhd)
         31260 MiB available memory on the node where the printing process lives
     GPU memory used/free/total (MiB): 2096 / 14184 / 16280
------------------
     ethr =  9.49E-09,  avg # of iterations =  1.0

     total cpu time spent up to now is      391.8 secs

     total energy              =   -2309.97994545 Ry
     estimated scf accuracy    <       0.00003867 Ry

     total magnetization       =     3.50 Bohr mag/cell
     absolute magnetization    =     4.95 Bohr mag/cell
[tb_dev] Currently allocated     1.20E+01 Mbytes, locked:    0 /  16
[tb_pin] Currently allocated     0.00E+00 Mbytes, locked:    0 /   0

     iteration # 48     ecut=    45.00 Ry     beta= 0.40
     Davidson diagonalization with overlap

---- Real-time Memory Report at c_bands before calling an iterative solver
          2736 MiB given to the printing process from OS
          1823 MiB allocation reported by mallinfo(arena+hblkhd)
         31252 MiB available memory on the node where the printing process lives
     GPU memory used/free/total (MiB): 2096 / 14184 / 16280
------------------
     ethr =  9.49E-09,  avg # of iterations =  1.5

     total cpu time spent up to now is      397.4 secs

     total energy              =   -2309.97990232 Ry
     estimated scf accuracy    <       0.00004411 Ry

     total magnetization       =     3.48 Bohr mag/cell
     absolute magnetization    =     4.93 Bohr mag/cell
[tb_dev] Currently allocated     1.20E+01 Mbytes, locked:    0 /  16
[tb_pin] Currently allocated     0.00E+00 Mbytes, locked:    0 /   0

     iteration # 49     ecut=    45.00 Ry     beta= 0.40
     Davidson diagonalization with overlap

---- Real-time Memory Report at c_bands before calling an iterative solver
          2736 MiB given to the printing process from OS
          1827 MiB allocation reported by mallinfo(arena+hblkhd)
         31256 MiB available memory on the node where the printing process lives
     GPU memory used/free/total (MiB): 2096 / 14184 / 16280
------------------
     ethr =  9.49E-09,  avg # of iterations =  5.9

     total cpu time spent up to now is      407.1 secs

     total energy              =   -2309.97862257 Ry
     estimated scf accuracy    <       0.00011988 Ry

     total magnetization       =     3.33 Bohr mag/cell
     absolute magnetization    =     4.76 Bohr mag/cell
[tb_dev] Currently allocated     1.20E+01 Mbytes, locked:    0 /  16
[tb_pin] Currently allocated     0.00E+00 Mbytes, locked:    0 /   0

     iteration # 50     ecut=    45.00 Ry     beta= 0.40
     Davidson diagonalization with overlap

---- Real-time Memory Report at c_bands before calling an iterative solver
          2745 MiB given to the printing process from OS
          1831 MiB allocation reported by mallinfo(arena+hblkhd)
         31247 MiB available memory on the node where the printing process lives
     GPU memory used/free/total (MiB): 2096 / 14184 / 16280
------------------
     ethr =  9.49E-09,  avg # of iterations =  8.1

     total cpu time spent up to now is      419.8 secs

     total energy              =   -2309.97985721 Ry
     estimated scf accuracy    <       0.00001962 Ry

     total magnetization       =     3.78 Bohr mag/cell
     absolute magnetization    =     5.30 Bohr mag/cell
[tb_dev] Currently allocated     1.20E+01 Mbytes, locked:    0 /  16
[tb_pin] Currently allocated     0.00E+00 Mbytes, locked:    0 /   0

     iteration # 51     ecut=    45.00 Ry     beta= 0.40
     Davidson diagonalization with overlap

---- Real-time Memory Report at c_bands before calling an iterative solver
          2749 MiB given to the printing process from OS
          1835 MiB allocation reported by mallinfo(arena+hblkhd)
         31242 MiB available memory on the node where the printing process lives
     GPU memory used/free/total (MiB): 2096 / 14184 / 16280
------------------
     ethr =  9.49E-09,  avg # of iterations =  2.0

     total cpu time spent up to now is      425.6 secs

     total energy              =   -2309.97963846 Ry
     estimated scf accuracy    <       0.00002229 Ry

     total magnetization       =     3.80 Bohr mag/cell
     absolute magnetization    =     5.32 Bohr mag/cell
[tb_dev] Currently allocated     1.20E+01 Mbytes, locked:    0 /  16
[tb_pin] Currently allocated     0.00E+00 Mbytes, locked:    0 /   0

     iteration # 52     ecut=    45.00 Ry     beta= 0.40
     Davidson diagonalization with overlap

---- Real-time Memory Report at c_bands before calling an iterative solver
          2753 MiB given to the printing process from OS
          1840 MiB allocation reported by mallinfo(arena+hblkhd)
         37710 MiB available memory on the node where the printing process lives
     GPU memory used/free/total (MiB): 2096 / 14184 / 16280
------------------
     ethr =  9.49E-09,  avg # of iterations =  6.8

     total cpu time spent up to now is      436.5 secs

     total energy              =   -2309.97976250 Ry
     estimated scf accuracy    <       0.00007619 Ry

     total magnetization       =     3.93 Bohr mag/cell
     absolute magnetization    =     5.50 Bohr mag/cell
[tb_dev] Currently allocated     1.20E+01 Mbytes, locked:    0 /  16
[tb_pin] Currently allocated     0.00E+00 Mbytes, locked:    0 /   0

     iteration # 53     ecut=    45.00 Ry     beta= 0.40
     Davidson diagonalization with overlap

---- Real-time Memory Report at c_bands before calling an iterative solver
          2757 MiB given to the printing process from OS
          1844 MiB allocation reported by mallinfo(arena+hblkhd)
         37719 MiB available memory on the node where the printing process lives
     GPU memory used/free/total (MiB): 2096 / 14184 / 16280
------------------
     ethr =  9.49E-09,  avg # of iterations =  4.3

     total cpu time spent up to now is      444.4 secs

     total energy              =   -2309.97968466 Ry
     estimated scf accuracy    <       0.00010873 Ry

     total magnetization       =     3.96 Bohr mag/cell
     absolute magnetization    =     5.55 Bohr mag/cell
[tb_dev] Currently allocated     1.20E+01 Mbytes, locked:    0 /  16
[tb_pin] Currently allocated     0.00E+00 Mbytes, locked:    0 /   0

     iteration # 54     ecut=    45.00 Ry     beta= 0.40
     Davidson diagonalization with overlap

---- Real-time Memory Report at c_bands before calling an iterative solver
          2757 MiB given to the printing process from OS
          1848 MiB allocation reported by mallinfo(arena+hblkhd)
         37724 MiB available memory on the node where the printing process lives
     GPU memory used/free/total (MiB): 2096 / 14184 / 16280
------------------
     ethr =  9.49E-09,  avg # of iterations =  6.4

     total cpu time spent up to now is      454.7 secs

     total energy              =   -2309.97905215 Ry
     estimated scf accuracy    <       0.00002706 Ry

     total magnetization       =     3.83 Bohr mag/cell
     absolute magnetization    =     5.36 Bohr mag/cell
[tb_dev] Currently allocated     1.20E+01 Mbytes, locked:    0 /  16
[tb_pin] Currently allocated     0.00E+00 Mbytes, locked:    0 /   0

     iteration # 55     ecut=    45.00 Ry     beta= 0.40
     Davidson diagonalization with overlap

---- Real-time Memory Report at c_bands before calling an iterative solver
          2766 MiB given to the printing process from OS
          1852 MiB allocation reported by mallinfo(arena+hblkhd)
         37817 MiB available memory on the node where the printing process lives
     GPU memory used/free/total (MiB): 2096 / 14184 / 16280
------------------
     ethr =  9.49E-09,  avg # of iterations =  8.0

     total cpu time spent up to now is      467.1 secs

     total energy              =   -2309.97985830 Ry
     estimated scf accuracy    <       0.00005578 Ry

     total magnetization       =     3.45 Bohr mag/cell
     absolute magnetization    =     4.89 Bohr mag/cell
[tb_dev] Currently allocated     1.20E+01 Mbytes, locked:    0 /  16
[tb_pin] Currently allocated     0.00E+00 Mbytes, locked:    0 /   0

     iteration # 56     ecut=    45.00 Ry     beta= 0.40
     Davidson diagonalization with overlap

---- Real-time Memory Report at c_bands before calling an iterative solver
          2772 MiB given to the printing process from OS
          1856 MiB allocation reported by mallinfo(arena+hblkhd)
         37814 MiB available memory on the node where the printing process lives
     GPU memory used/free/total (MiB): 2096 / 14184 / 16280
------------------
     ethr =  9.49E-09,  avg # of iterations =  4.8

     total cpu time spent up to now is      476.0 secs

     total energy              =   -2309.97985713 Ry
     estimated scf accuracy    <       0.00002613 Ry

     total magnetization       =     3.55 Bohr mag/cell
     absolute magnetization    =     5.02 Bohr mag/cell
[tb_dev] Currently allocated     1.20E+01 Mbytes, locked:    0 /  16
[tb_pin] Currently allocated     0.00E+00 Mbytes, locked:    0 /   0

     iteration # 57     ecut=    45.00 Ry     beta= 0.40
     Davidson diagonalization with overlap

---- Real-time Memory Report at c_bands before calling an iterative solver
          2776 MiB given to the printing process from OS
          1861 MiB allocation reported by mallinfo(arena+hblkhd)
         37808 MiB available memory on the node where the printing process lives
     GPU memory used/free/total (MiB): 2096 / 14184 / 16280
------------------
     ethr =  9.49E-09,  avg # of iterations =  4.9

     total cpu time spent up to now is      484.9 secs

     total energy              =   -2309.97986786 Ry
     estimated scf accuracy    <       0.00001621 Ry

     total magnetization       =     3.64 Bohr mag/cell
     absolute magnetization    =     5.12 Bohr mag/cell
[tb_dev] Currently allocated     1.20E+01 Mbytes, locked:    0 /  16
[tb_pin] Currently allocated     0.00E+00 Mbytes, locked:    0 /   0

     iteration # 58     ecut=    45.00 Ry     beta= 0.40
     Davidson diagonalization with overlap

---- Real-time Memory Report at c_bands before calling an iterative solver
[...]
[tb_dev] Currently allocated     1.20E+01 Mbytes, locked:    0 /  16
[tb_pin] Currently allocated     0.00E+00 Mbytes, locked:    0 /   0

     iteration # 65     ecut=    45.00 Ry     beta= 0.40
     Davidson diagonalization with overlap

---- Real-time Memory Report at c_bands before calling an iterative solver
          2807 MiB given to the printing process from OS
          1894 MiB allocation reported by mallinfo(arena+hblkhd)
         37776 MiB available memory on the node where the printing process lives
     GPU memory used/free/total (MiB): 2096 / 14184 / 16280
------------------
     ethr =  9.49E-09,  avg # of iterations =  4.8

     total cpu time spent up to now is      558.8 secs

     total energy              =   -2309.97957836 Ry
     estimated scf accuracy    <       0.00004394 Ry

     total magnetization       =     3.88 Bohr mag/cell
     absolute magnetization    =     5.43 Bohr mag/cell
[tb_dev] Currently allocated     1.20E+01 Mbytes, locked:    0 /  16
[tb_pin] Currently allocated     0.00E+00 Mbytes, locked:    0 /   0

     iteration # 66     ecut=    45.00 Ry     beta= 0.40
     Davidson diagonalization with overlap

---- Real-time Memory Report at c_bands before calling an iterative solver
          2812 MiB given to the printing process from OS
          1898 MiB allocation reported by mallinfo(arena+hblkhd)
         37772 MiB available memory on the node where the printing process lives
     GPU memory used/free/total (MiB): 2096 / 14184 / 16280
------------------
     ethr =  9.49E-09,  avg # of iterations =  6.7

     total cpu time spent up to now is      569.5 secs

     total energy              =   -2309.97973229 Ry
     estimated scf accuracy    <       0.00015985 Ry

     total magnetization       =     4.00 Bohr mag/cell
     absolute magnetization    =     5.60 Bohr mag/cell
[tb_dev] Currently allocated     1.20E+01 Mbytes, locked:    0 /  16
[tb_pin] Currently allocated     0.00E+00 Mbytes, locked:    0 /   0

     iteration # 67     ecut=    45.00 Ry     beta= 0.40
     Davidson diagonalization with overlap

---- Real-time Memory Report at c_bands before calling an iterative solver
          2819 MiB given to the printing process from OS
          1903 MiB allocation reported by mallinfo(arena+hblkhd)
         37764 MiB available memory on the node where the printing process lives
     GPU memory used/free/total (MiB): 2096 / 14184 / 16280
------------------
     ethr =  9.49E-09,  avg # of iterations =  1.0

     total cpu time spent up to now is      574.5 secs

     total energy              =   -2309.97964013 Ry
     estimated scf accuracy    <       0.00016497 Ry

     total magnetization       =     4.01 Bohr mag/cell
     absolute magnetization    =     5.61 Bohr mag/cell
[tb_dev] Currently allocated     1.20E+01 Mbytes, locked:    0 /  16
[tb_pin] Currently allocated     0.00E+00 Mbytes, locked:    0 /   0

     iteration # 68     ecut=    45.00 Ry     beta= 0.40
     Davidson diagonalization with overlap

---- Real-time Memory Report at c_bands before calling an iterative solver
          2827 MiB given to the printing process from OS
          1907 MiB allocation reported by mallinfo(arena+hblkhd)
         37760 MiB available memory on the node where the printing process lives
     GPU memory used/free/total (MiB): 2096 / 14184 / 16280
------------------
     ethr =  9.49E-09,  avg # of iterations =  6.8

     total cpu time spent up to now is      585.3 secs

     total energy              =   -2309.97946743 Ry
     estimated scf accuracy    <       0.00003678 Ry

     total magnetization       =     3.86 Bohr mag/cell
     absolute magnetization    =     5.41 Bohr mag/cell
[tb_dev] Currently allocated     1.20E+01 Mbytes, locked:    0 /  16
[tb_pin] Currently allocated     0.00E+00 Mbytes, locked:    0 /   0

     iteration # 69     ecut=    45.00 Ry     beta= 0.40
     Davidson diagonalization with overlap

---- Real-time Memory Report at c_bands before calling an iterative solver
          2830 MiB given to the printing process from OS
          1911 MiB allocation reported by mallinfo(arena+hblkhd)
         37756 MiB available memory on the node where the printing process lives
     GPU memory used/free/total (MiB): 2096 / 14184 / 16280
------------------
     ethr =  9.49E-09,  avg # of iterations =  7.1

     total cpu time spent up to now is      596.7 secs

     total energy              =   -2309.97988828 Ry
     estimated scf accuracy    <       0.00001694 Ry

     total magnetization       =     3.61 Bohr mag/cell
     absolute magnetization    =     5.09 Bohr mag/cell
[tb_dev] Currently allocated     1.20E+01 Mbytes, locked:    0 /  16
[tb_pin] Currently allocated     0.00E+00 Mbytes, locked:    0 /   0

     iteration # 70     ecut=    45.00 Ry     beta= 0.40
     Davidson diagonalization with overlap

---- Real-time Memory Report at c_bands before calling an iterative solver
          2831 MiB given to the printing process from OS
          1915 MiB allocation reported by mallinfo(arena+hblkhd)
         37752 MiB available memory on the node where the printing process lives
     GPU memory used/free/total (MiB): 2096 / 14184 / 16280
------------------
     ethr =  9.49E-09,  avg # of iterations =  4.8

     total cpu time spent up to now is      605.6 secs

     total energy              =   -2309.97981348 Ry
     estimated scf accuracy    <       0.00002903 Ry

     total magnetization       =     3.53 Bohr mag/cell
     absolute magnetization    =     4.99 Bohr mag/cell
[tb_dev] Currently allocated     1.20E+01 Mbytes, locked:    0 /  16
[tb_pin] Currently allocated     0.00E+00 Mbytes, locked:    0 /   0

     iteration # 71     ecut=    45.00 Ry     beta= 0.40
     Davidson diagonalization with overlap

---- Real-time Memory Report at c_bands before calling an iterative solver
          2836 MiB given to the printing process from OS
          1919 MiB allocation reported by mallinfo(arena+hblkhd)
         37747 MiB available memory on the node where the printing process lives
     GPU memory used/free/total (MiB): 2096 / 14184 / 16280
------------------
     ethr =  9.49E-09,  avg # of iterations =  5.4

     total cpu time spent up to now is      615.1 secs

     total energy              =   -2309.97987055 Ry
     estimated scf accuracy    <       0.00001569 Ry

     total magnetization       =     3.65 Bohr mag/cell
     absolute magnetization    =     5.13 Bohr mag/cell
[tb_dev] Currently allocated     1.20E+01 Mbytes, locked:    0 /  16
[tb_pin] Currently allocated     0.00E+00 Mbytes, locked:    0 /   0

     iteration # 72     ecut=    45.00 Ry     beta= 0.40
     Davidson diagonalization with overlap

---- Real-time Memory Report at c_bands before calling an iterative solver
          2839 MiB given to the printing process from OS
          1923 MiB allocation reported by mallinfo(arena+hblkhd)
         37740 MiB available memory on the node where the printing process lives
     GPU memory used/free/total (MiB): 2096 / 14184 / 16280
------------------
     ethr =  9.49E-09,  avg # of iterations =  4.3

     total cpu time spent up to now is      623.1 secs

     total energy              =   -2309.97987993 Ry
     estimated scf accuracy    <       0.00001434 Ry

     total magnetization       =     3.70 Bohr mag/cell
     absolute magnetization    =     5.19 Bohr mag/cell
[tb_dev] Currently allocated     1.20E+01 Mbytes, locked:    0 /  16
[tb_pin] Currently allocated     0.00E+00 Mbytes, locked:    0 /   0

     iteration # 73     ecut=    45.00 Ry     beta= 0.40
     Davidson diagonalization with overlap

---- Real-time Memory Report at c_bands before calling an iterative solver
          2843 MiB given to the printing process from OS
          1928 MiB allocation reported by mallinfo(arena+hblkhd)
         37738 MiB available memory on the node where the printing process lives
     GPU memory used/free/total (MiB): 2096 / 14184 / 16280
------------------
     ethr =  9.49E-09,  avg # of iterations =  2.0

     total cpu time spent up to now is      628.9 secs

     total energy              =   -2309.97988303 Ry
     estimated scf accuracy    <       0.00001487 Ry

     total magnetization       =     3.71 Bohr mag/cell
     absolute magnetization    =     5.21 Bohr mag/cell
[tb_dev] Currently allocated     1.20E+01 Mbytes, locked:    0 /  16
[tb_pin] Currently allocated     0.00E+00 Mbytes, locked:    0 /   0

     iteration # 74     ecut=    45.00 Ry     beta= 0.40
     Davidson diagonalization with overlap

---- Real-time Memory Report at c_bands before calling an iterative solver
          2852 MiB given to the printing process from OS
          1932 MiB allocation reported by mallinfo(arena+hblkhd)
         37734 MiB available memory on the node where the printing process lives
     GPU memory used/free/total (MiB): 2096 / 14184 / 16280
------------------
     ethr =  9.49E-09,  avg # of iterations =  2.0

     total cpu time spent up to now is      634.8 secs

     total energy              =   -2309.97986430 Ry
     estimated scf accuracy    <       0.00001346 Ry

     total magnetization       =     3.68 Bohr mag/cell
     absolute magnetization    =     5.18 Bohr mag/cell
[tb_dev] Currently allocated     1.20E+01 Mbytes, locked:    0 /  16
[tb_pin] Currently allocated     0.00E+00 Mbytes, locked:    0 /   0

     iteration # 75     ecut=    45.00 Ry     beta= 0.40
     Davidson diagonalization with overlap

---- Real-time Memory Report at c_bands before calling an iterative solver
          2856 MiB given to the printing process from OS
          1936 MiB allocation reported by mallinfo(arena+hblkhd)
         37732 MiB available memory on the node where the printing process lives
     GPU memory used/free/total (MiB): 2096 / 14184 / 16280
------------------
     ethr =  9.49E-09,  avg # of iterations =  2.8

     total cpu time spent up to now is      641.3 secs

     total energy              =   -2309.97987668 Ry
     estimated scf accuracy    <       0.00001558 Ry

     total magnetization       =     3.73 Bohr mag/cell
     absolute magnetization    =     5.23 Bohr mag/cell
[tb_dev] Currently allocated     1.20E+01 Mbytes, locked:    0 /  16
[tb_pin] Currently allocated     0.00E+00 Mbytes, locked:    0 /   0

     iteration # 76     ecut=    45.00 Ry     beta= 0.40
     Davidson diagonalization with overlap

---- Real-time Memory Report at c_bands before calling an iterative solver
          2860 MiB given to the printing process from OS
          1940 MiB allocation reported by mallinfo(arena+hblkhd)
         37728 MiB available memory on the node where the printing process lives
     GPU memory used/free/total (MiB): 2096 / 14184 / 16280
------------------
     ethr =  9.49E-09,  avg # of iterations =  3.0

     total cpu time spent up to now is      648.1 secs

     total energy              =   -2309.97970295 Ry
     estimated scf accuracy    <       0.00001365 Ry

     total magnetization       =     3.68 Bohr mag/cell
     absolute magnetization    =     5.18 Bohr mag/cell
[tb_dev] Currently allocated     1.20E+01 Mbytes, locked:    0 /  16
[tb_pin] Currently allocated     0.00E+00 Mbytes, locked:    0 /   0

     iteration # 77     ecut=    45.00 Ry     beta= 0.40
     Davidson diagonalization with overlap

---- Real-time Memory Report at c_bands before calling an iterative solver
          2864 MiB given to the printing process from OS
          1944 MiB allocation reported by mallinfo(arena+hblkhd)
         37723 MiB available memory on the node where the printing process lives
     GPU memory used/free/total (MiB): 2096 / 14184 / 16280
------------------
     ethr =  9.49E-09,  avg # of iterations =  6.3

     total cpu time spent up to now is      658.2 secs

     total energy              =   -2309.97980687 Ry
     estimated scf accuracy    <       0.00002729 Ry

     total magnetization       =     3.82 Bohr mag/cell
     absolute magnetization    =     5.36 Bohr mag/cell
[tb_dev] Currently allocated     1.20E+01 Mbytes, locked:    0 /  16
[tb_pin] Currently allocated     0.00E+00 Mbytes, locked:    0 /   0

     iteration # 78     ecut=    45.00 Ry     beta= 0.40
     Davidson diagonalization with overlap

---- Real-time Memory Report at c_bands before calling an iterative solver
          2868 MiB given to the printing process from OS
          1949 MiB allocation reported by mallinfo(arena+hblkhd)
         37718 MiB available memory on the node where the printing process lives
     GPU memory used/free/total (MiB): 2096 / 14184 / 16280
------------------
     ethr =  9.49E-09,  avg # of iterations =  4.8

     total cpu time spent up to now is      666.9 secs

     total energy              =   -2309.97982597 Ry
     estimated scf accuracy    <       0.00004310 Ry

     total magnetization       =     3.88 Bohr mag/cell
     absolute magnetization    =     5.43 Bohr mag/cell
[tb_dev] Currently allocated     1.20E+01 Mbytes, locked:    0 /  16
[tb_pin] Currently allocated     0.00E+00 Mbytes, locked:    0 /   0

     iteration # 79     ecut=    45.00 Ry     beta= 0.40
     Davidson diagonalization with overlap

---- Real-time Memory Report at c_bands before calling an iterative solver
          2874 MiB given to the printing process from OS
          1953 MiB allocation reported by mallinfo(arena+hblkhd)
         37715 MiB available memory on the node where the printing process lives
     GPU memory used/free/total (MiB): 2096 / 14184 / 16280
------------------
     ethr =  9.49E-09,  avg # of iterations =  4.7

     total cpu time spent up to now is      675.5 secs

     total energy              =   -2309.97815451 Ry
     estimated scf accuracy    <       0.00002535 Ry

     total magnetization       =     3.82 Bohr mag/cell
     absolute magnetization    =     5.35 Bohr mag/cell
[tb_dev] Currently allocated     1.20E+01 Mbytes, locked:    0 /  16
[tb_pin] Currently allocated     0.00E+00 Mbytes, locked:    0 /   0

     iteration # 80     ecut=    45.00 Ry     beta= 0.40
     Davidson diagonalization with overlap

---- Real-time Memory Report at c_bands before calling an iterative solver
          2880 MiB given to the printing process from OS
          1957 MiB allocation reported by mallinfo(arena+hblkhd)
         37708 MiB available memory on the node where the printing process lives
     GPU memory used/free/total (MiB): 2096 / 14184 / 16280
------------------
     ethr =  9.49E-09,  avg # of iterations =  8.4

     total cpu time spent up to now is      688.6 secs

     total energy              =   -2309.97517072 Ry
     estimated scf accuracy    <       0.00021833 Ry

     total magnetization       =     3.23 Bohr mag/cell
     absolute magnetization    =     4.65 Bohr mag/cell

     End of self-consistent calculation

     convergence NOT achieved after  80 iterations: stopping

     Writing config to output data dir ./out/aiida.save/
 
     init_run     :     22.35s CPU      7.15s WALL (       1 calls)
     electrons    :    976.05s CPU    680.56s WALL (       1 calls)

     Called by init_run:
     wfcinit      :      3.85s CPU      4.83s WALL (       1 calls)
                                        4.83s GPU  (       1 calls)
     wfcinit:atom :      0.08s CPU      0.12s WALL (      84 calls)
                                        0.12s GPU  (      84 calls)
     wfcinit:wfcr :      2.31s CPU      2.90s WALL (      84 calls)
                                        2.90s GPU  (      84 calls)
     potinit      :      6.23s CPU      0.61s WALL (       1 calls)
     hinit0       :      8.17s CPU      1.07s WALL (       1 calls)

     Called by electrons:
     c_bands      :    636.96s CPU    580.52s WALL (      80 calls)
     sum_band     :     68.26s CPU     74.40s WALL (      80 calls)
     v_of_rho     :     27.58s CPU      2.50s WALL (      81 calls)
     v_h          :      4.10s CPU      0.36s WALL (      81 calls)
     v_xc         :     23.47s CPU      2.14s WALL (      81 calls)
     newd         :     57.52s CPU      5.54s WALL (      81 calls)
                                        5.54s GPU  (      81 calls)
     PAW_pot      :    147.60s CPU     13.73s WALL (      81 calls)
     mix_rho      :     33.83s CPU      3.66s WALL (      80 calls)

     Called by c_bands:
     init_us_2    :     24.18s CPU     24.79s WALL (   13524 calls)
     init_us_2:gp :     23.92s CPU     24.55s WALL (   13524 calls)
     cegterg      :    571.52s CPU    525.98s WALL (    6720 calls)

     Called by sum_band:
     sum_band:wei :      0.46s CPU      0.47s WALL (      80 calls)
                                        0.46s GPU  (      80 calls)
     sum_band:loo :     60.68s CPU     66.68s WALL (      80 calls)
                                       66.68s GPU  (      80 calls)
     sum_band:buf :     17.95s CPU     18.67s WALL (    6720 calls)
                                       18.63s GPU  (    6720 calls)
     sum_band:ini :     10.01s CPU     12.14s WALL (    6720 calls)
                                       12.10s GPU  (    6720 calls)
     sum_band:cal :      0.20s CPU      2.43s WALL (    6720 calls)
                                        2.03s GPU  (    6720 calls)
     sum_band:bec :      2.09s CPU      2.27s WALL (    6720 calls)
                                        2.23s GPU  (    6720 calls)
     addusdens    :      5.00s CPU      5.13s WALL (      80 calls)
                                        5.13s GPU  (      80 calls)
     addusd:skk   :      0.03s CPU      0.04s WALL (     240 calls)
                                        0.04s GPU  (     240 calls)

     Called by *egterg:
     cdiaghg      :    251.24s CPU    246.03s WALL (   37346 calls)
                                      245.77s GPU  (   37346 calls)
     cegterg:over :     12.64s CPU     11.56s WALL (   30626 calls)
     cegterg:upda :     23.12s CPU     20.39s WALL (   30626 calls)
     cegterg:last :     10.52s CPU      9.46s WALL (   16117 calls)
     h_psi        :    242.76s CPU    213.06s WALL (   37430 calls)
                                      212.64s GPU  (   37430 calls)
     s_psi        :      6.74s CPU     13.53s WALL (   37430 calls)
                                       12.65s GPU  (   37430 calls)
     g_psi        :      0.26s CPU      1.36s WALL (   30626 calls)
                                        1.16s GPU  (   30626 calls)

     Called by h_psi:
     h_psi:calbec :      1.43s CPU      8.73s WALL (   37430 calls)
                                        8.49s GPU  (   37430 calls)
     vloc_psi     :    211.29s CPU    185.70s WALL (   37430 calls)
                                      185.47s GPU  (   37430 calls)
     add_vuspsi   :     10.50s CPU     15.39s WALL (   37430 calls)
                                       15.16s GPU  (   37430 calls)

     General routines
     calbec       :      1.17s CPU      1.06s WALL (   44150 calls)
     fft          :      2.55s CPU      0.49s WALL (    2023 calls)
                                        0.40s GPU  (    1861 calls)
     ffts         :      0.05s CPU      0.04s WALL (     322 calls)
                                        0.01s GPU  (     160 calls)
     fftw         :      5.82s CPU    142.61s WALL (  251480 calls)
                                      141.25s GPU  (  251480 calls)
     interpolate  :      3.87s CPU      0.35s WALL (     162 calls)
     davcio       :      0.62s CPU      0.51s WALL (     102 calls)
 
     Parallel routines

     PAW routines
     PAW_pot      :    147.60s CPU     13.73s WALL (      81 calls)
     PAW_symme    :      0.09s CPU      0.02s WALL (     161 calls)
 
     PWSCF        :  16m42.04s CPU  11m29.24s WALL

 
   This run was terminated on:  18:19:36  22Oct2023            

=------------------------------------------------------------------------------=
   JOB DONE.
=------------------------------------------------------------------------------=
