
     Program PWSCF v.7.2 starts on 23Oct2023 at 20:44: 5 

     This program is part of the open-source Quantum ESPRESSO suite
     for quantum simulation of materials; please cite
         "P. Giannozzi et al., J. Phys.:Condens. Matter 21 395502 (2009);
         "P. Giannozzi et al., J. Phys.:Condens. Matter 29 465901 (2017);
         "P. Giannozzi et al., J. Chem. Phys. 152 154105 (2020);
          URL http://www.quantum-espresso.org", 
     in publications or presentations arising from this work. More details at
     http://www.quantum-espresso.org/quote

     Parallel version (MPI & OpenMP), running on      12 processor cores
     Number of MPI processes:                 1
     Threads/MPI process:                    12

     MPI processes distributed on     1 nodes
     60418 MiB available memory on the printing compute node when the environment starts
 
     Reading input from aiida.in

     Current dimensions of program PWSCF are:
     Max number of different atomic species (ntypx) = 10
     Max number of k-points (npk) =  40000
     Max angular momentum in pseudopotentials (lmaxx) =  4
     file Fe.pbesol-spn-kjpaw_psl.0.2.1.UPF: wavefunction(s)  3D renormalized
     file O.pbesol-n-kjpaw_psl.0.1.UPF: wavefunction(s)  2P renormalized
     Message from routine setup:
     using ibrav=0 with symmetry is DISCOURAGED, use correct ibrav instead
 
     Subspace diagonalization in iterative solution of the eigenvalue problem:
     a serial algorithm will be used

 
     G-vector sticks info
     --------------------
     sticks:   dense  smooth     PW     G-vecs:    dense   smooth      PW
     Sum        8817    2933    833               803171   154661   23127
 
     Using Slab Decomposition
 


     bravais-lattice index     =            0
     lattice parameter (alat)  =      10.1640  a.u.
     unit-cell volume          =    1340.2773 (a.u.)^3
     number of atoms/cell      =           14
     number of atomic types    =            3
     number of electrons       =       104.00
     number of Kohn-Sham states=           62
     kinetic-energy cutoff     =      90.0000  Ry
     charge density cutoff     =    1080.0000  Ry
     scf convergence threshold =      2.8E-09
     mixing beta               =       0.2000
     number of iterations used =            8  plain     mixing
     Exchange-correlation= SLA  PW   PSX  PSC
                           (   1   4  10   8   0   0   0)

     GPU acceleration is ACTIVE.


     GPU used by master process:

        Device Number: 0
        Device name: Tesla P100-PCIE-16GB
        Compute capability : 60
        Ratio of single to double precision performance  : 2
        Memory Clock Rate (KHz): 715000
        Memory Bus Width (bits): 4096
        Peak Memory Bandwidth (GB/s): 732.16

     celldm(1)=  10.164017  celldm(2)=   0.000000  celldm(3)=   0.000000
     celldm(4)=   0.000000  celldm(5)=   0.000000  celldm(6)=   0.000000

     crystal axes: (cart. coord. in units of alat)
               a(1) = (   0.663839   0.747876   0.000000 )  
               a(2) = (  -0.663839   0.747876   0.000000 )  
               a(3) = (  -0.640121   0.000000   1.285513 )  

     reciprocal axes: (cart. coord. in units 2 pi/alat)
               b(1) = (  0.753195  0.668560  0.375053 )  
               b(2) = ( -0.753195  0.668560 -0.375053 )  
               b(3) = (  0.000000 -0.000000  0.777900 )  


     PseudoPot. # 1 for Fe read from file:
     ./pseudo/Fe.pbesol-spn-kjpaw_psl.0.2.1.UPF
     MD5 check sum: 4d7ec5aa2156491519a4322664fbbf52
     Pseudo is Projector augmented-wave + core cor, Zval = 16.0
     Generated using "atomic" code by A. Dal Corso  v.6.0 svn rev. 13079
     Shape of augmentation charge: PSQ
     Using radial grid of 1191 points,  6 beta functions with: 
                l(1) =   0
                l(2) =   0
                l(3) =   1
                l(4) =   1
                l(5) =   2
                l(6) =   2
     Q(r) pseudized with 0 coefficients 


     PseudoPot. # 2 for O  read from file:
     ./pseudo/O.pbesol-n-kjpaw_psl.0.1.UPF
     MD5 check sum: 81d73d1479e654e5638b0319f0d6c2c7
     Pseudo is Projector augmented-wave + core cor, Zval =  6.0
     Generated using "atomic" code by A. Dal Corso  v.6.0 svn rev. 13079
     Shape of augmentation charge: BESSEL
     Using radial grid of 1095 points,  4 beta functions with: 
                l(1) =   0
                l(2) =   0
                l(3) =   1
                l(4) =   1
     Q(r) pseudized with 0 coefficients 


     PseudoPot. # 3 for Se read from file:
     ./pseudo/se_pbesol_v1.uspp.F.UPF
     MD5 check sum: a3b4745ad650bb7419ce2e0d5f176975
     Pseudo is Ultrasoft + core correction, Zval =  6.0
     Generated by new atomic code, or converted to UPF format
     Using radial grid of  877 points,  6 beta functions with: 
                l(1) =   0
                l(2) =   0
                l(3) =   1
                l(4) =   1
                l(5) =   2
                l(6) =   2
     Q(r) pseudized with  8 coefficients,  rinner =    1.300   1.300   1.300
                                                       1.300   1.300

     atomic species   valence    mass     pseudopotential
        Fe            16.00    55.84500     Fe( 1.00)
        O              6.00    15.99940     O ( 1.00)
        Se             6.00    78.96000     Se( 1.00)

     Starting magnetic structure 
     atomic species   magnetization
        Fe           0.313
        O            0.100
        Se           0.100

      4 Sym. Ops., with inversion, found ( 2 have fractional translation)


                                    s                        frac. trans.

      isym =  1     identity                                     

 cryst.   s( 1) = (     1          0          0      )
                  (     0          1          0      )
                  (     0          0          1      )

 cart.    s( 1) = (  1.0000000 -0.0000000 -0.0000000 )
                  (  0.0000000  1.0000000 -0.0000000 )
                  (  0.0000000  0.0000000  1.0000000 )


      isym =  2     180 deg rotation - cart. axis [0,1,0]        

 cryst.   s( 2) = (     0          1          0      )    f =(  0.0000000 )
                  (     1          0          0      )       ( -0.0000000 )
                  (     0          0         -1      )       ( -0.5000000 )

 cart.    s( 2) = ( -1.0000000 -0.0000000  0.0000000 )    f =(  0.3200604 )
                  ( -0.0000000  1.0000000  0.0000000 )       (  0.0000000 )
                  (  0.0000000  0.0000000 -1.0000000 )       ( -0.6427565 )


      isym =  3     inversion                                    

 cryst.   s( 3) = (    -1          0          0      )
                  (     0         -1          0      )
                  (     0          0         -1      )

 cart.    s( 3) = ( -1.0000000  0.0000000  0.0000000 )
                  ( -0.0000000 -1.0000000  0.0000000 )
                  (  0.0000000  0.0000000 -1.0000000 )


      isym =  4     inv. 180 deg rotation - cart. axis [0,1,0]   

 cryst.   s( 4) = (     0         -1          0      )    f =(  0.0000000 )
                  (    -1          0          0      )       ( -0.0000000 )
                  (     0          0          1      )       ( -0.5000000 )

 cart.    s( 4) = (  1.0000000  0.0000000 -0.0000000 )    f =(  0.3200604 )
                  (  0.0000000 -1.0000000 -0.0000000 )       (  0.0000000 )
                  (  0.0000000  0.0000000  1.0000000 )       ( -0.6427565 )


   Cartesian axes

     site n.     atom                  positions (alat units)
         1           Fe  tau(   1) = (   0.6756975   1.1218138   0.6427565  )
         2           Fe  tau(   2) = (   0.9957579   0.3739379   0.0000000  )
         3           Se  tau(   3) = (   0.5038084   0.6134078   0.3213782  )
         4           Se  tau(   4) = (   0.1837479   0.8823439   0.9641347  )
         5           O   tau(   5) = (   0.3755634   0.4399006   0.5341306  )
         6           O   tau(   6) = (   0.0555029   1.0558511   1.1768871  )
         7           O   tau(   7) = (   0.6320534   0.4399006   0.1086258  )
         8           O   tau(   8) = (   0.3119929   1.0558511   0.7513823  )
         9           O   tau(   9) = (   0.0561047   0.0402357   0.4467157  )
        10           O   tau(  10) = (  -0.2639558   1.4555160   1.0894722  )
        11           O   tau(  11) = (   0.9515121   0.0402357   0.1960407  )
        12           O   tau(  12) = (   0.6314516   1.4555160   0.8387972  )
        13           O   tau(  13) = (   0.5038084   1.3243386   0.3213782  )
        14           O   tau(  14) = (   0.1837479   0.1714131   0.9641347  )

   Crystallographic axes

     site n.     atom                  positions (cryst. coord.)
         1           Fe  tau(   1) = (  1.5000000  0.0000000  0.5000000  )
         2           Fe  tau(   2) = (  1.0000000 -0.5000000  0.0000000  )
         3           Se  tau(   3) = (  0.9101000 -0.0899000  0.2500000  )
         4           Se  tau(   4) = (  1.0899000  0.0899000  0.7500000  )
         5           O   tau(   5) = (  0.7773000 -0.1891000  0.4155000  )
         6           O   tau(   6) = (  1.1891000  0.2227000  0.9155000  )
         7           O   tau(   7) = (  0.8109000 -0.2227000  0.0845000  )
         8           O   tau(   8) = (  1.2227000  0.1891000  0.5845000  )
         9           O   tau(   9) = (  0.2367000 -0.1829000  0.3475000  )
        10           O   tau(  10) = (  1.1829000  0.7633000  0.8475000  )
        11           O   tau(  11) = (  0.8171000 -0.7633000  0.1525000  )
        12           O   tau(  12) = (  1.7633000  0.1829000  0.6525000  )
        13           O   tau(  13) = (  1.3854000  0.3854000  0.2500000  )
        14           O   tau(  14) = (  0.6146000 -0.3854000  0.7500000  )

     number of k points=   160  Marzari-Vanderbilt smearing, width (Ry)=  0.0100
                       cart. coord. in units 2pi/alat
        k(    1) = (   0.0000000   0.0000000   0.0000000), wk =   0.0017637
        k(    2) = (   0.0000000   0.0000000   0.1111285), wk =   0.0035273
        k(    3) = (   0.0000000   0.0000000   0.2222570), wk =   0.0035273
        k(    4) = (   0.0000000   0.0000000   0.3333856), wk =   0.0035273
        k(    5) = (  -0.0836883   0.0742845  -0.0416726), wk =   0.0070547
        k(    6) = (  -0.0836883   0.0742845   0.0694559), wk =   0.0070547
        k(    7) = (  -0.0836883   0.0742845   0.1805844), wk =   0.0070547
        k(    8) = (  -0.0836883   0.0742845   0.2917130), wk =   0.0070547
        k(    9) = (  -0.0836883   0.0742845  -0.3750581), wk =   0.0070547
        k(   10) = (  -0.0836883   0.0742845  -0.2639296), wk =   0.0070547
        k(   11) = (  -0.0836883   0.0742845  -0.1528011), wk =   0.0070547
        k(   12) = (  -0.1673767   0.1485689  -0.0833452), wk =   0.0070547
        k(   13) = (  -0.1673767   0.1485689   0.0277833), wk =   0.0070547
        k(   14) = (  -0.1673767   0.1485689   0.1389118), wk =   0.0070547
        k(   15) = (  -0.1673767   0.1485689   0.2500404), wk =   0.0070547
        k(   16) = (  -0.1673767   0.1485689  -0.4167307), wk =   0.0070547
        k(   17) = (  -0.1673767   0.1485689  -0.3056022), wk =   0.0070547
        k(   18) = (  -0.1673767   0.1485689  -0.1944737), wk =   0.0070547
        k(   19) = (  -0.2510650   0.2228534  -0.1250178), wk =   0.0070547
        k(   20) = (  -0.2510650   0.2228534  -0.0138893), wk =   0.0070547
        k(   21) = (  -0.2510650   0.2228534   0.0972392), wk =   0.0070547
        k(   22) = (  -0.2510650   0.2228534   0.2083678), wk =   0.0070547
        k(   23) = (  -0.2510650   0.2228534  -0.4584033), wk =   0.0070547
        k(   24) = (  -0.2510650   0.2228534  -0.3472748), wk =   0.0070547
        k(   25) = (  -0.2510650   0.2228534  -0.2361463), wk =   0.0070547
        k(   26) = (  -0.3347534   0.2971378  -0.1666904), wk =   0.0070547
        k(   27) = (  -0.3347534   0.2971378  -0.0555619), wk =   0.0070547
        k(   28) = (  -0.3347534   0.2971378   0.0555666), wk =   0.0070547
        k(   29) = (  -0.3347534   0.2971378   0.1666952), wk =   0.0070547
        k(   30) = (  -0.3347534   0.2971378  -0.5000759), wk =   0.0070547
        k(   31) = (  -0.3347534   0.2971378  -0.3889474), wk =   0.0070547
        k(   32) = (  -0.3347534   0.2971378  -0.2778189), wk =   0.0070547
        k(   33) = (   0.0000000   0.1485689  -0.0000000), wk =   0.0035273
        k(   34) = (   0.0000000   0.1485689   0.1111285), wk =   0.0070547
        k(   35) = (   0.0000000   0.1485689   0.2222570), wk =   0.0070547
        k(   36) = (   0.0000000   0.1485689   0.3333856), wk =   0.0070547
        k(   37) = (  -0.0836883   0.2228534  -0.0416726), wk =   0.0070547
        k(   38) = (  -0.0836883   0.2228534   0.0694559), wk =   0.0070547
        k(   39) = (  -0.0836883   0.2228534   0.1805844), wk =   0.0070547
        k(   40) = (  -0.0836883   0.2228534   0.2917130), wk =   0.0070547
        k(   41) = (  -0.0836883   0.2228534  -0.3750581), wk =   0.0070547
        k(   42) = (  -0.0836883   0.2228534  -0.2639296), wk =   0.0070547
        k(   43) = (  -0.0836883   0.2228534  -0.1528011), wk =   0.0070547
        k(   44) = (  -0.1673767   0.2971378  -0.0833452), wk =   0.0070547
        k(   45) = (  -0.1673767   0.2971378   0.0277833), wk =   0.0070547
        k(   46) = (  -0.1673767   0.2971378   0.1389118), wk =   0.0070547
        k(   47) = (  -0.1673767   0.2971378   0.2500404), wk =   0.0070547
        k(   48) = (  -0.1673767   0.2971378  -0.4167307), wk =   0.0070547
        k(   49) = (  -0.1673767   0.2971378  -0.3056022), wk =   0.0070547
        k(   50) = (  -0.1673767   0.2971378  -0.1944737), wk =   0.0070547
        k(   51) = (  -0.2510650   0.3714223  -0.1250178), wk =   0.0070547
        k(   52) = (  -0.2510650   0.3714223  -0.0138893), wk =   0.0070547
        k(   53) = (  -0.2510650   0.3714223   0.0972392), wk =   0.0070547
        k(   54) = (  -0.2510650   0.3714223   0.2083678), wk =   0.0070547
        k(   55) = (  -0.2510650   0.3714223  -0.4584033), wk =   0.0070547
        k(   56) = (  -0.2510650   0.3714223  -0.3472748), wk =   0.0070547
        k(   57) = (  -0.2510650   0.3714223  -0.2361463), wk =   0.0070547
        k(   58) = (   0.4184417  -0.2228534   0.2083630), wk =   0.0070547
        k(   59) = (   0.4184417  -0.2228534   0.3194915), wk =   0.0070547
        k(   60) = (   0.4184417  -0.2228534   0.4306200), wk =   0.0070547
        k(   61) = (   0.4184417  -0.2228534   0.5417485), wk =   0.0070547
        k(   62) = (   0.4184417  -0.2228534  -0.1250226), wk =   0.0070547
        k(   63) = (   0.4184417  -0.2228534  -0.0138941), wk =   0.0070547
        k(   64) = (   0.4184417  -0.2228534   0.0972345), wk =   0.0070547
        k(   65) = (   0.3347534  -0.1485689   0.1666904), wk =   0.0070547
        k(   66) = (   0.3347534  -0.1485689   0.2778189), wk =   0.0070547
        k(   67) = (   0.3347534  -0.1485689   0.3889474), wk =   0.0070547
        k(   68) = (   0.3347534  -0.1485689   0.5000759), wk =   0.0070547
        k(   69) = (   0.3347534  -0.1485689  -0.1666952), wk =   0.0070547
        k(   70) = (   0.3347534  -0.1485689  -0.0555666), wk =   0.0070547
        k(   71) = (   0.3347534  -0.1485689   0.0555619), wk =   0.0070547
        k(   72) = (   0.2510650  -0.0742845   0.1250178), wk =   0.0070547
        k(   73) = (   0.2510650  -0.0742845   0.2361463), wk =   0.0070547
        k(   74) = (   0.2510650  -0.0742845   0.3472748), wk =   0.0070547
        k(   75) = (   0.2510650  -0.0742845   0.4584033), wk =   0.0070547
        k(   76) = (   0.2510650  -0.0742845  -0.2083678), wk =   0.0070547
        k(   77) = (   0.2510650  -0.0742845  -0.0972392), wk =   0.0070547
        k(   78) = (   0.2510650  -0.0742845   0.0138893), wk =   0.0070547
        k(   79) = (   0.1673767  -0.0000000   0.0833452), wk =   0.0035273
        k(   80) = (   0.1673767  -0.0000000   0.1944737), wk =   0.0035273
        k(   81) = (   0.1673767  -0.0000000   0.3056022), wk =   0.0035273
        k(   82) = (   0.1673767  -0.0000000   0.4167307), wk =   0.0035273
        k(   83) = (   0.1673767  -0.0000000  -0.2500404), wk =   0.0035273
        k(   84) = (   0.1673767  -0.0000000  -0.1389118), wk =   0.0035273
        k(   85) = (   0.1673767  -0.0000000  -0.0277833), wk =   0.0035273
        k(   86) = (   0.0000000   0.2971378  -0.0000000), wk =   0.0035273
        k(   87) = (   0.0000000   0.2971378   0.1111285), wk =   0.0070547
        k(   88) = (   0.0000000   0.2971378   0.2222570), wk =   0.0070547
        k(   89) = (   0.0000000   0.2971378   0.3333856), wk =   0.0070547
        k(   90) = (  -0.0836883   0.3714223  -0.0416726), wk =   0.0070547
        k(   91) = (  -0.0836883   0.3714223   0.0694559), wk =   0.0070547
        k(   92) = (  -0.0836883   0.3714223   0.1805844), wk =   0.0070547
        k(   93) = (  -0.0836883   0.3714223   0.2917130), wk =   0.0070547
        k(   94) = (  -0.0836883   0.3714223  -0.3750581), wk =   0.0070547
        k(   95) = (  -0.0836883   0.3714223  -0.2639296), wk =   0.0070547
        k(   96) = (  -0.0836883   0.3714223  -0.1528011), wk =   0.0070547
        k(   97) = (  -0.1673767   0.4457068  -0.0833452), wk =   0.0070547
        k(   98) = (  -0.1673767   0.4457068   0.0277833), wk =   0.0070547
        k(   99) = (  -0.1673767   0.4457068   0.1389118), wk =   0.0070547
        k(  100) = (  -0.1673767   0.4457068   0.2500404), wk =   0.0070547
        k(  101) = (  -0.1673767   0.4457068  -0.4167307), wk =   0.0070547
        k(  102) = (  -0.1673767   0.4457068  -0.3056022), wk =   0.0070547
        k(  103) = (  -0.1673767   0.4457068  -0.1944737), wk =   0.0070547
        k(  104) = (   0.5021301  -0.1485689   0.2500356), wk =   0.0070547
        k(  105) = (   0.5021301  -0.1485689   0.3611641), wk =   0.0070547
        k(  106) = (   0.5021301  -0.1485689   0.4722926), wk =   0.0070547
        k(  107) = (   0.5021301  -0.1485689   0.5834211), wk =   0.0070547
        k(  108) = (   0.5021301  -0.1485689  -0.0833500), wk =   0.0070547
        k(  109) = (   0.5021301  -0.1485689   0.0277785), wk =   0.0070547
        k(  110) = (   0.5021301  -0.1485689   0.1389071), wk =   0.0070547
        k(  111) = (   0.4184417  -0.0742845   0.2083630), wk =   0.0070547
        k(  112) = (   0.4184417  -0.0742845   0.3194915), wk =   0.0070547
        k(  113) = (   0.4184417  -0.0742845   0.4306200), wk =   0.0070547
        k(  114) = (   0.4184417  -0.0742845   0.5417485), wk =   0.0070547
        k(  115) = (   0.4184417  -0.0742845  -0.1250226), wk =   0.0070547
        k(  116) = (   0.4184417  -0.0742845  -0.0138941), wk =   0.0070547
        k(  117) = (   0.4184417  -0.0742845   0.0972345), wk =   0.0070547
        k(  118) = (   0.3347534  -0.0000000   0.1666904), wk =   0.0035273
        k(  119) = (   0.3347534  -0.0000000   0.2778189), wk =   0.0035273
        k(  120) = (   0.3347534  -0.0000000   0.3889474), wk =   0.0035273
        k(  121) = (   0.3347534  -0.0000000   0.5000759), wk =   0.0035273
        k(  122) = (   0.3347534  -0.0000000  -0.1666952), wk =   0.0035273
        k(  123) = (   0.3347534  -0.0000000  -0.0555666), wk =   0.0035273
        k(  124) = (   0.3347534  -0.0000000   0.0555619), wk =   0.0035273
        k(  125) = (  -0.0000000   0.4457068   0.0000000), wk =   0.0035273
        k(  126) = (  -0.0000000   0.4457068   0.1111285), wk =   0.0070547
        k(  127) = (  -0.0000000   0.4457068   0.2222570), wk =   0.0070547
        k(  128) = (  -0.0000000   0.4457068   0.3333856), wk =   0.0070547
        k(  129) = (  -0.0836883   0.5199912  -0.0416726), wk =   0.0070547
        k(  130) = (  -0.0836883   0.5199912   0.0694559), wk =   0.0070547
        k(  131) = (  -0.0836883   0.5199912   0.1805844), wk =   0.0070547
        k(  132) = (  -0.0836883   0.5199912   0.2917130), wk =   0.0070547
        k(  133) = (  -0.0836883   0.5199912  -0.3750581), wk =   0.0070547
        k(  134) = (  -0.0836883   0.5199912  -0.2639296), wk =   0.0070547
        k(  135) = (  -0.0836883   0.5199912  -0.1528011), wk =   0.0070547
        k(  136) = (   0.5858184  -0.0742845   0.2917082), wk =   0.0070547
        k(  137) = (   0.5858184  -0.0742845   0.4028367), wk =   0.0070547
        k(  138) = (   0.5858184  -0.0742845   0.5139652), wk =   0.0070547
        k(  139) = (   0.5858184  -0.0742845   0.6250937), wk =   0.0070547
        k(  140) = (   0.5858184  -0.0742845  -0.0416774), wk =   0.0070547
        k(  141) = (   0.5858184  -0.0742845   0.0694511), wk =   0.0070547
        k(  142) = (   0.5858184  -0.0742845   0.1805797), wk =   0.0070547
        k(  143) = (   0.5021301  -0.0000000   0.2500356), wk =   0.0035273
        k(  144) = (   0.5021301  -0.0000000   0.3611641), wk =   0.0035273
        k(  145) = (   0.5021301  -0.0000000   0.4722926), wk =   0.0035273
        k(  146) = (   0.5021301  -0.0000000   0.5834211), wk =   0.0035273
        k(  147) = (   0.5021301  -0.0000000  -0.0833500), wk =   0.0035273
        k(  148) = (   0.5021301  -0.0000000   0.0277785), wk =   0.0035273
        k(  149) = (   0.5021301  -0.0000000   0.1389071), wk =   0.0035273
        k(  150) = (   0.0000000   0.5942757  -0.0000000), wk =   0.0035273
        k(  151) = (   0.0000000   0.5942757   0.1111285), wk =   0.0070547
        k(  152) = (   0.0000000   0.5942757   0.2222570), wk =   0.0070547
        k(  153) = (   0.0000000   0.5942757   0.3333856), wk =   0.0070547
        k(  154) = (   0.6695068  -0.0000000   0.3333808), wk =   0.0035273
        k(  155) = (   0.6695068  -0.0000000   0.4445093), wk =   0.0035273
        k(  156) = (   0.6695068  -0.0000000   0.5556378), wk =   0.0035273
        k(  157) = (   0.6695068  -0.0000000   0.6667663), wk =   0.0035273
        k(  158) = (   0.6695068  -0.0000000  -0.0000048), wk =   0.0035273
        k(  159) = (   0.6695068  -0.0000000   0.1111237), wk =   0.0035273
        k(  160) = (   0.6695068  -0.0000000   0.2222523), wk =   0.0035273

                       cryst. coord.
        k(    1) = (   0.0000000   0.0000000   0.0000000), wk =   0.0017637
        k(    2) = (   0.0000000   0.0000000   0.1428571), wk =   0.0035273
        k(    3) = (   0.0000000   0.0000000   0.2857143), wk =   0.0035273
        k(    4) = (   0.0000000   0.0000000   0.4285714), wk =   0.0035273
        k(    5) = (  -0.0000000   0.1111111   0.0000000), wk =   0.0070547
        k(    6) = (  -0.0000000   0.1111111   0.1428571), wk =   0.0070547
        k(    7) = (  -0.0000000   0.1111111   0.2857143), wk =   0.0070547
        k(    8) = (  -0.0000000   0.1111111   0.4285714), wk =   0.0070547
        k(    9) = (  -0.0000000   0.1111111  -0.4285714), wk =   0.0070547
        k(   10) = (  -0.0000000   0.1111111  -0.2857143), wk =   0.0070547
        k(   11) = (  -0.0000000   0.1111111  -0.1428571), wk =   0.0070547
        k(   12) = (  -0.0000000   0.2222222   0.0000000), wk =   0.0070547
        k(   13) = (  -0.0000000   0.2222222   0.1428571), wk =   0.0070547
        k(   14) = (  -0.0000000   0.2222222   0.2857143), wk =   0.0070547
        k(   15) = (  -0.0000000   0.2222222   0.4285714), wk =   0.0070547
        k(   16) = (  -0.0000000   0.2222222  -0.4285714), wk =   0.0070547
        k(   17) = (  -0.0000000   0.2222222  -0.2857143), wk =   0.0070547
        k(   18) = (  -0.0000000   0.2222222  -0.1428571), wk =   0.0070547
        k(   19) = (   0.0000000   0.3333333  -0.0000000), wk =   0.0070547
        k(   20) = (   0.0000000   0.3333333   0.1428571), wk =   0.0070547
        k(   21) = (   0.0000000   0.3333333   0.2857143), wk =   0.0070547
        k(   22) = (   0.0000000   0.3333333   0.4285714), wk =   0.0070547
        k(   23) = (   0.0000000   0.3333333  -0.4285714), wk =   0.0070547
        k(   24) = (   0.0000000   0.3333333  -0.2857143), wk =   0.0070547
        k(   25) = (   0.0000000   0.3333333  -0.1428571), wk =   0.0070547
        k(   26) = (  -0.0000000   0.4444444   0.0000000), wk =   0.0070547
        k(   27) = (  -0.0000000   0.4444444   0.1428571), wk =   0.0070547
        k(   28) = (  -0.0000000   0.4444444   0.2857143), wk =   0.0070547
        k(   29) = (  -0.0000000   0.4444444   0.4285714), wk =   0.0070547
        k(   30) = (  -0.0000000   0.4444444  -0.4285714), wk =   0.0070547
        k(   31) = (  -0.0000000   0.4444444  -0.2857143), wk =   0.0070547
        k(   32) = (  -0.0000000   0.4444444  -0.1428571), wk =   0.0070547
        k(   33) = (   0.1111111   0.1111111  -0.0000000), wk =   0.0035273
        k(   34) = (   0.1111111   0.1111111   0.1428571), wk =   0.0070547
        k(   35) = (   0.1111111   0.1111111   0.2857143), wk =   0.0070547
        k(   36) = (   0.1111111   0.1111111   0.4285714), wk =   0.0070547
        k(   37) = (   0.1111111   0.2222222  -0.0000000), wk =   0.0070547
        k(   38) = (   0.1111111   0.2222222   0.1428571), wk =   0.0070547
        k(   39) = (   0.1111111   0.2222222   0.2857143), wk =   0.0070547
        k(   40) = (   0.1111111   0.2222222   0.4285714), wk =   0.0070547
        k(   41) = (   0.1111111   0.2222222  -0.4285714), wk =   0.0070547
        k(   42) = (   0.1111111   0.2222222  -0.2857143), wk =   0.0070547
        k(   43) = (   0.1111111   0.2222222  -0.1428571), wk =   0.0070547
        k(   44) = (   0.1111111   0.3333333   0.0000000), wk =   0.0070547
        k(   45) = (   0.1111111   0.3333333   0.1428571), wk =   0.0070547
        k(   46) = (   0.1111111   0.3333333   0.2857143), wk =   0.0070547
        k(   47) = (   0.1111111   0.3333333   0.4285714), wk =   0.0070547
        k(   48) = (   0.1111111   0.3333333  -0.4285714), wk =   0.0070547
        k(   49) = (   0.1111111   0.3333333  -0.2857143), wk =   0.0070547
        k(   50) = (   0.1111111   0.3333333  -0.1428571), wk =   0.0070547
        k(   51) = (   0.1111111   0.4444444  -0.0000000), wk =   0.0070547
        k(   52) = (   0.1111111   0.4444444   0.1428571), wk =   0.0070547
        k(   53) = (   0.1111111   0.4444444   0.2857143), wk =   0.0070547
        k(   54) = (   0.1111111   0.4444444   0.4285714), wk =   0.0070547
        k(   55) = (   0.1111111   0.4444444  -0.4285714), wk =   0.0070547
        k(   56) = (   0.1111111   0.4444444  -0.2857143), wk =   0.0070547
        k(   57) = (   0.1111111   0.4444444  -0.1428571), wk =   0.0070547
        k(   58) = (   0.1111111  -0.4444444   0.0000000), wk =   0.0070547
        k(   59) = (   0.1111111  -0.4444444   0.1428571), wk =   0.0070547
        k(   60) = (   0.1111111  -0.4444444   0.2857143), wk =   0.0070547
        k(   61) = (   0.1111111  -0.4444444   0.4285714), wk =   0.0070547
        k(   62) = (   0.1111111  -0.4444444  -0.4285714), wk =   0.0070547
        k(   63) = (   0.1111111  -0.4444444  -0.2857143), wk =   0.0070547
        k(   64) = (   0.1111111  -0.4444444  -0.1428571), wk =   0.0070547
        k(   65) = (   0.1111111  -0.3333333  -0.0000000), wk =   0.0070547
        k(   66) = (   0.1111111  -0.3333333   0.1428571), wk =   0.0070547
        k(   67) = (   0.1111111  -0.3333333   0.2857143), wk =   0.0070547
        k(   68) = (   0.1111111  -0.3333333   0.4285714), wk =   0.0070547
        k(   69) = (   0.1111111  -0.3333333  -0.4285714), wk =   0.0070547
        k(   70) = (   0.1111111  -0.3333333  -0.2857143), wk =   0.0070547
        k(   71) = (   0.1111111  -0.3333333  -0.1428571), wk =   0.0070547
        k(   72) = (   0.1111111  -0.2222222   0.0000000), wk =   0.0070547
        k(   73) = (   0.1111111  -0.2222222   0.1428571), wk =   0.0070547
        k(   74) = (   0.1111111  -0.2222222   0.2857143), wk =   0.0070547
        k(   75) = (   0.1111111  -0.2222222   0.4285714), wk =   0.0070547
        k(   76) = (   0.1111111  -0.2222222  -0.4285714), wk =   0.0070547
        k(   77) = (   0.1111111  -0.2222222  -0.2857143), wk =   0.0070547
        k(   78) = (   0.1111111  -0.2222222  -0.1428571), wk =   0.0070547
        k(   79) = (   0.1111111  -0.1111111   0.0000000), wk =   0.0035273
        k(   80) = (   0.1111111  -0.1111111   0.1428571), wk =   0.0035273
        k(   81) = (   0.1111111  -0.1111111   0.2857143), wk =   0.0035273
        k(   82) = (   0.1111111  -0.1111111   0.4285714), wk =   0.0035273
        k(   83) = (   0.1111111  -0.1111111  -0.4285714), wk =   0.0035273
        k(   84) = (   0.1111111  -0.1111111  -0.2857143), wk =   0.0035273
        k(   85) = (   0.1111111  -0.1111111  -0.1428571), wk =   0.0035273
        k(   86) = (   0.2222222   0.2222222  -0.0000000), wk =   0.0035273
        k(   87) = (   0.2222222   0.2222222   0.1428571), wk =   0.0070547
        k(   88) = (   0.2222222   0.2222222   0.2857143), wk =   0.0070547
        k(   89) = (   0.2222222   0.2222222   0.4285714), wk =   0.0070547
        k(   90) = (   0.2222222   0.3333333  -0.0000000), wk =   0.0070547
        k(   91) = (   0.2222222   0.3333333   0.1428571), wk =   0.0070547
        k(   92) = (   0.2222222   0.3333333   0.2857143), wk =   0.0070547
        k(   93) = (   0.2222222   0.3333333   0.4285714), wk =   0.0070547
        k(   94) = (   0.2222222   0.3333333  -0.4285714), wk =   0.0070547
        k(   95) = (   0.2222222   0.3333333  -0.2857143), wk =   0.0070547
        k(   96) = (   0.2222222   0.3333333  -0.1428571), wk =   0.0070547
        k(   97) = (   0.2222222   0.4444444  -0.0000000), wk =   0.0070547
        k(   98) = (   0.2222222   0.4444444   0.1428571), wk =   0.0070547
        k(   99) = (   0.2222222   0.4444444   0.2857143), wk =   0.0070547
        k(  100) = (   0.2222222   0.4444444   0.4285714), wk =   0.0070547
        k(  101) = (   0.2222222   0.4444444  -0.4285714), wk =   0.0070547
        k(  102) = (   0.2222222   0.4444444  -0.2857143), wk =   0.0070547
        k(  103) = (   0.2222222   0.4444444  -0.1428571), wk =   0.0070547
        k(  104) = (   0.2222222  -0.4444444   0.0000000), wk =   0.0070547
        k(  105) = (   0.2222222  -0.4444444   0.1428571), wk =   0.0070547
        k(  106) = (   0.2222222  -0.4444444   0.2857143), wk =   0.0070547
        k(  107) = (   0.2222222  -0.4444444   0.4285714), wk =   0.0070547
        k(  108) = (   0.2222222  -0.4444444  -0.4285714), wk =   0.0070547
        k(  109) = (   0.2222222  -0.4444444  -0.2857143), wk =   0.0070547
        k(  110) = (   0.2222222  -0.4444444  -0.1428571), wk =   0.0070547
        k(  111) = (   0.2222222  -0.3333333   0.0000000), wk =   0.0070547
        k(  112) = (   0.2222222  -0.3333333   0.1428571), wk =   0.0070547
        k(  113) = (   0.2222222  -0.3333333   0.2857143), wk =   0.0070547
        k(  114) = (   0.2222222  -0.3333333   0.4285714), wk =   0.0070547
        k(  115) = (   0.2222222  -0.3333333  -0.4285714), wk =   0.0070547
        k(  116) = (   0.2222222  -0.3333333  -0.2857143), wk =   0.0070547
        k(  117) = (   0.2222222  -0.3333333  -0.1428571), wk =   0.0070547
        k(  118) = (   0.2222222  -0.2222222  -0.0000000), wk =   0.0035273
        k(  119) = (   0.2222222  -0.2222222   0.1428571), wk =   0.0035273
        k(  120) = (   0.2222222  -0.2222222   0.2857143), wk =   0.0035273
        k(  121) = (   0.2222222  -0.2222222   0.4285714), wk =   0.0035273
        k(  122) = (   0.2222222  -0.2222222  -0.4285714), wk =   0.0035273
        k(  123) = (   0.2222222  -0.2222222  -0.2857143), wk =   0.0035273
        k(  124) = (   0.2222222  -0.2222222  -0.1428571), wk =   0.0035273
        k(  125) = (   0.3333333   0.3333333   0.0000000), wk =   0.0035273
        k(  126) = (   0.3333333   0.3333333   0.1428571), wk =   0.0070547
        k(  127) = (   0.3333333   0.3333333   0.2857143), wk =   0.0070547
        k(  128) = (   0.3333333   0.3333333   0.4285714), wk =   0.0070547
        k(  129) = (   0.3333333   0.4444444   0.0000000), wk =   0.0070547
        k(  130) = (   0.3333333   0.4444444   0.1428571), wk =   0.0070547
        k(  131) = (   0.3333333   0.4444444   0.2857143), wk =   0.0070547
        k(  132) = (   0.3333333   0.4444444   0.4285714), wk =   0.0070547
        k(  133) = (   0.3333333   0.4444444  -0.4285714), wk =   0.0070547
        k(  134) = (   0.3333333   0.4444444  -0.2857143), wk =   0.0070547
        k(  135) = (   0.3333333   0.4444444  -0.1428571), wk =   0.0070547
        k(  136) = (   0.3333333  -0.4444444   0.0000000), wk =   0.0070547
        k(  137) = (   0.3333333  -0.4444444   0.1428571), wk =   0.0070547
        k(  138) = (   0.3333333  -0.4444444   0.2857143), wk =   0.0070547
        k(  139) = (   0.3333333  -0.4444444   0.4285714), wk =   0.0070547
        k(  140) = (   0.3333333  -0.4444444  -0.4285714), wk =   0.0070547
        k(  141) = (   0.3333333  -0.4444444  -0.2857143), wk =   0.0070547
        k(  142) = (   0.3333333  -0.4444444  -0.1428571), wk =   0.0070547
        k(  143) = (   0.3333333  -0.3333333  -0.0000000), wk =   0.0035273
        k(  144) = (   0.3333333  -0.3333333   0.1428571), wk =   0.0035273
        k(  145) = (   0.3333333  -0.3333333   0.2857143), wk =   0.0035273
        k(  146) = (   0.3333333  -0.3333333   0.4285714), wk =   0.0035273
        k(  147) = (   0.3333333  -0.3333333  -0.4285714), wk =   0.0035273
        k(  148) = (   0.3333333  -0.3333333  -0.2857143), wk =   0.0035273
        k(  149) = (   0.3333333  -0.3333333  -0.1428571), wk =   0.0035273
        k(  150) = (   0.4444444   0.4444444  -0.0000000), wk =   0.0035273
        k(  151) = (   0.4444444   0.4444444   0.1428571), wk =   0.0070547
        k(  152) = (   0.4444444   0.4444444   0.2857143), wk =   0.0070547
        k(  153) = (   0.4444444   0.4444444   0.4285714), wk =   0.0070547
        k(  154) = (   0.4444444  -0.4444444  -0.0000000), wk =   0.0035273
        k(  155) = (   0.4444444  -0.4444444   0.1428571), wk =   0.0035273
        k(  156) = (   0.4444444  -0.4444444   0.2857143), wk =   0.0035273
        k(  157) = (   0.4444444  -0.4444444   0.4285714), wk =   0.0035273
        k(  158) = (   0.4444444  -0.4444444  -0.4285714), wk =   0.0035273
        k(  159) = (   0.4444444  -0.4444444  -0.2857143), wk =   0.0035273
        k(  160) = (   0.4444444  -0.4444444  -0.1428571), wk =   0.0035273

     Dense  grid:   803171 G-vectors     FFT dimensions: ( 108, 108, 160)

     Smooth grid:   154661 G-vectors     FFT dimensions: (  64,  64,  90)

     Dynamical RAM for                 wfc:      18.28 MB

     Dynamical RAM for     wfc (w. buffer):    5868.32 MB

     Dynamical RAM for           str. fact:      36.77 MB

     Dynamical RAM for           local pot:       0.00 MB

     Dynamical RAM for          nlocal pot:      44.82 MB

     Dynamical RAM for                qrad:       7.91 MB

     Dynamical RAM for          rho,v,vnew:     158.96 MB

     Dynamical RAM for               rhoin:      52.99 MB

     Dynamical RAM for            rho*nmix:     392.17 MB

     Dynamical RAM for           G-vectors:      47.14 MB

     Dynamical RAM for          h,s,v(r/c):       0.70 MB

     Dynamical RAM for          <psi|beta>:       0.14 MB

     Dynamical RAM for                 psi:      36.56 MB

     Dynamical RAM for                hpsi:      36.56 MB

     Dynamical RAM for                spsi:      36.56 MB

     Dynamical RAM for      wfcinit/wfcrot:      36.65 MB

     Dynamical RAM for           addusdens:    2414.32 MB

     Dynamical RAM for          addusforce:    2634.99 MB

     Dynamical RAM for         addusstress:    2481.72 MB

     Estimated static dynamical RAM per process >       6.20 GB

     Estimated max dynamical RAM per process >       9.16 GB

     Atomic positions and unit cell read from directory:
     ./out/aiida.save/
 

     Check: negative core charge=   -0.000002
     Generating pointlists ...
     new r_m :   0.1589 (alat units)  1.6153 (a.u.) for type    1
     new r_m :   0.1250 (alat units)  1.2704 (a.u.) for type    2
     new r_m :   0.1250 (alat units)  1.2704 (a.u.) for type    3

     The initial density is read from file :
     ./out/aiida.save/charge-density


     negative rho (up, down):  0.000E+00 2.289E-04
     Starting wfcs from file
     Checking if some PAW data can be deallocated... 

     total cpu time spent up to now is       13.1 secs

     per-process dynamical memory:   908.3 Mb

     Self-consistent Calculation
[tb_dev] Currently allocated     1.07E-04 Mbytes, locked:    0 /   2
[tb_pin] Currently allocated     0.00E+00 Mbytes, locked:    0 /   0

     iteration #  1     ecut=    90.00 Ry     beta= 0.20
     Davidson diagonalization with overlap

---- Real-time Memory Report at c_bands before calling an iterative solver
          1387 MiB given to the printing process from OS
           938 MiB allocation reported by mallinfo(arena+hblkhd)
         58468 MiB available memory on the node where the printing process lives
     GPU memory used/free/total (MiB): 1928 / 14352 / 16280
------------------
     ethr =  1.00E-05,  avg # of iterations =  3.5

     negative rho (up, down):  0.000E+00 2.448E-04

     total cpu time spent up to now is       59.7 secs

     total energy              =   -1151.05038676 Ry
     estimated scf accuracy    <       0.00589123 Ry

     total magnetization       =     8.00 Bohr mag/cell
     absolute magnetization    =     9.04 Bohr mag/cell
[tb_dev] Currently allocated     1.61E+01 Mbytes, locked:    0 /  11
[tb_pin] Currently allocated     0.00E+00 Mbytes, locked:    0 /   0

     iteration #  2     ecut=    90.00 Ry     beta= 0.20
     Davidson diagonalization with overlap

---- Real-time Memory Report at c_bands before calling an iterative solver
          7924 MiB given to the printing process from OS
         -1010 MiB allocation reported by mallinfo(arena+hblkhd)
         45180 MiB available memory on the node where the printing process lives
     GPU memory used/free/total (MiB): 5622 / 10658 / 16280
------------------
     ethr =  5.66E-06,  avg # of iterations =  1.3

     negative rho (up, down):  0.000E+00 2.465E-04

     total cpu time spent up to now is       87.6 secs

     total energy              =   -1151.05054320 Ry
     estimated scf accuracy    <       0.00649609 Ry

     total magnetization       =     8.04 Bohr mag/cell
     absolute magnetization    =     9.02 Bohr mag/cell
[tb_dev] Currently allocated     1.61E+01 Mbytes, locked:    0 /  11
[tb_pin] Currently allocated     0.00E+00 Mbytes, locked:    0 /   0

     iteration #  3     ecut=    90.00 Ry     beta= 0.20
     Davidson diagonalization with overlap

---- Real-time Memory Report at c_bands before calling an iterative solver
          8072 MiB given to the printing process from OS
          -942 MiB allocation reported by mallinfo(arena+hblkhd)
         45141 MiB available memory on the node where the printing process lives
     GPU memory used/free/total (MiB): 5622 / 10658 / 16280
------------------
     ethr =  5.66E-06,  avg # of iterations =  1.0

     negative rho (up, down):  0.000E+00 2.851E-04

     total cpu time spent up to now is      114.9 secs

     total energy              =   -1151.05198379 Ry
     estimated scf accuracy    <       0.00350236 Ry

     total magnetization       =     8.06 Bohr mag/cell
     absolute magnetization    =     9.06 Bohr mag/cell
[tb_dev] Currently allocated     1.61E+01 Mbytes, locked:    0 /  11
[tb_pin] Currently allocated     0.00E+00 Mbytes, locked:    0 /   0

     iteration #  4     ecut=    90.00 Ry     beta= 0.20
     Davidson diagonalization with overlap

---- Real-time Memory Report at c_bands before calling an iterative solver
          8157 MiB given to the printing process from OS
          -908 MiB allocation reported by mallinfo(arena+hblkhd)
         45107 MiB available memory on the node where the printing process lives
     GPU memory used/free/total (MiB): 5622 / 10658 / 16280
------------------
     ethr =  3.37E-06,  avg # of iterations =  2.0

     negative rho (up, down):  0.000E+00 2.992E-04

     total cpu time spent up to now is      144.8 secs

     total energy              =   -1151.05341123 Ry
     estimated scf accuracy    <       0.00089232 Ry

     total magnetization       =     8.22 Bohr mag/cell
     absolute magnetization    =     9.10 Bohr mag/cell
[tb_dev] Currently allocated     1.61E+01 Mbytes, locked:    0 /  11
[tb_pin] Currently allocated     0.00E+00 Mbytes, locked:    0 /   0

     iteration #  5     ecut=    90.00 Ry     beta= 0.20
     Davidson diagonalization with overlap

---- Real-time Memory Report at c_bands before calling an iterative solver
          8218 MiB given to the printing process from OS
          -873 MiB allocation reported by mallinfo(arena+hblkhd)
         45073 MiB available memory on the node where the printing process lives
     GPU memory used/free/total (MiB): 5622 / 10658 / 16280
------------------
     ethr =  8.58E-07,  avg # of iterations =  2.0

     negative rho (up, down):  0.000E+00 3.060E-04

     total cpu time spent up to now is      174.9 secs

     total energy              =   -1151.05376947 Ry
     estimated scf accuracy    <       0.00062828 Ry

     total magnetization       =     8.25 Bohr mag/cell
     absolute magnetization    =     9.07 Bohr mag/cell
[tb_dev] Currently allocated     1.61E+01 Mbytes, locked:    0 /  11
[tb_pin] Currently allocated     0.00E+00 Mbytes, locked:    0 /   0

     iteration #  6     ecut=    90.00 Ry     beta= 0.20
     Davidson diagonalization with overlap

---- Real-time Memory Report at c_bands before calling an iterative solver
          8253 MiB given to the printing process from OS
          -837 MiB allocation reported by mallinfo(arena+hblkhd)
         45037 MiB available memory on the node where the printing process lives
     GPU memory used/free/total (MiB): 5622 / 10658 / 16280
------------------
     ethr =  6.04E-07,  avg # of iterations =  2.0

     negative rho (up, down):  0.000E+00 3.050E-04

     total cpu time spent up to now is      205.1 secs

     total energy              =   -1151.05380092 Ry
     estimated scf accuracy    <       0.00032116 Ry

     total magnetization       =     8.32 Bohr mag/cell
     absolute magnetization    =     9.06 Bohr mag/cell
[tb_dev] Currently allocated     1.61E+01 Mbytes, locked:    0 /  11
[tb_pin] Currently allocated     0.00E+00 Mbytes, locked:    0 /   0

     iteration #  7     ecut=    90.00 Ry     beta= 0.20
     Davidson diagonalization with overlap

---- Real-time Memory Report at c_bands before calling an iterative solver
          8285 MiB given to the printing process from OS
          -805 MiB allocation reported by mallinfo(arena+hblkhd)
         45005 MiB available memory on the node where the printing process lives
     GPU memory used/free/total (MiB): 5622 / 10658 / 16280
------------------
     ethr =  3.09E-07,  avg # of iterations =  1.0

     negative rho (up, down):  0.000E+00 3.071E-04

     total cpu time spent up to now is      232.5 secs

     total energy              =   -1151.05401789 Ry
     estimated scf accuracy    <       0.00032136 Ry

     total magnetization       =     8.30 Bohr mag/cell
     absolute magnetization    =     9.06 Bohr mag/cell
[tb_dev] Currently allocated     1.61E+01 Mbytes, locked:    0 /  11
[tb_pin] Currently allocated     0.00E+00 Mbytes, locked:    0 /   0

     iteration #  8     ecut=    90.00 Ry     beta= 0.20
     Davidson diagonalization with overlap

---- Real-time Memory Report at c_bands before calling an iterative solver
          8317 MiB given to the printing process from OS
          -773 MiB allocation reported by mallinfo(arena+hblkhd)
         44976 MiB available memory on the node where the printing process lives
     GPU memory used/free/total (MiB): 5622 / 10658 / 16280
------------------
     ethr =  3.09E-07,  avg # of iterations =  3.1

     negative rho (up, down):  0.000E+00 3.012E-04

     total cpu time spent up to now is      266.2 secs

     total energy              =   -1151.05400576 Ry
     estimated scf accuracy    <       0.00023189 Ry

     total magnetization       =     8.44 Bohr mag/cell
     absolute magnetization    =     9.07 Bohr mag/cell
[tb_dev] Currently allocated     1.61E+01 Mbytes, locked:    0 /  11
[tb_pin] Currently allocated     0.00E+00 Mbytes, locked:    0 /   0

     iteration #  9     ecut=    90.00 Ry     beta= 0.20
     Davidson diagonalization with overlap

---- Real-time Memory Report at c_bands before calling an iterative solver
          8354 MiB given to the printing process from OS
          -736 MiB allocation reported by mallinfo(arena+hblkhd)
         44939 MiB available memory on the node where the printing process lives
     GPU memory used/free/total (MiB): 5622 / 10658 / 16280
------------------
     ethr =  2.23E-07,  avg # of iterations =  5.2

     negative rho (up, down):  0.000E+00 3.035E-04

     total cpu time spent up to now is      309.0 secs

     total energy              =   -1151.05539378 Ry
     estimated scf accuracy    <       0.00018995 Ry

     total magnetization       =     8.75 Bohr mag/cell
     absolute magnetization    =     9.14 Bohr mag/cell
[tb_dev] Currently allocated     1.61E+01 Mbytes, locked:    0 /  11
[tb_pin] Currently allocated     0.00E+00 Mbytes, locked:    0 /   0

     iteration # 10     ecut=    90.00 Ry     beta= 0.20
     Davidson diagonalization with overlap

---- Real-time Memory Report at c_bands before calling an iterative solver
          8386 MiB given to the printing process from OS
          -704 MiB allocation reported by mallinfo(arena+hblkhd)
         44906 MiB available memory on the node where the printing process lives
     GPU memory used/free/total (MiB): 5622 / 10658 / 16280
------------------
     ethr =  1.83E-07,  avg # of iterations =  4.1

     negative rho (up, down):  0.000E+00 2.894E-04

     total cpu time spent up to now is      347.3 secs

     total energy              =   -1151.04609778 Ry
     estimated scf accuracy    <       0.00029844 Ry

     total magnetization       =     9.00 Bohr mag/cell
     absolute magnetization    =     9.26 Bohr mag/cell
[tb_dev] Currently allocated     1.61E+01 Mbytes, locked:    0 /  11
[tb_pin] Currently allocated     0.00E+00 Mbytes, locked:    0 /   0

     iteration # 11     ecut=    90.00 Ry     beta= 0.20
     Davidson diagonalization with overlap

---- Real-time Memory Report at c_bands before calling an iterative solver
          8414 MiB given to the printing process from OS
          -682 MiB allocation reported by mallinfo(arena+hblkhd)
         44884 MiB available memory on the node where the printing process lives
     GPU memory used/free/total (MiB): 5622 / 10658 / 16280
------------------
     ethr =  1.83E-07,  avg # of iterations =  6.8

     negative rho (up, down):  0.000E+00 2.886E-04

     total cpu time spent up to now is      399.1 secs

     total energy              =   -1151.05344443 Ry
     estimated scf accuracy    <       0.00033454 Ry

     total magnetization       =     8.26 Bohr mag/cell
     absolute magnetization    =     9.06 Bohr mag/cell
[tb_dev] Currently allocated     1.61E+01 Mbytes, locked:    0 /  11
[tb_pin] Currently allocated     0.00E+00 Mbytes, locked:    0 /   0

     iteration # 12     ecut=    90.00 Ry     beta= 0.20
     Davidson diagonalization with overlap

---- Real-time Memory Report at c_bands before calling an iterative solver
          8436 MiB given to the printing process from OS
          -659 MiB allocation reported by mallinfo(arena+hblkhd)
         44861 MiB available memory on the node where the printing process lives
     GPU memory used/free/total (MiB): 5622 / 10658 / 16280
------------------
     ethr =  1.83E-07,  avg # of iterations =  5.0

     negative rho (up, down):  0.000E+00 3.076E-04

     total cpu time spent up to now is      441.7 secs

     total energy              =   -1151.03674708 Ry
     estimated scf accuracy    <       0.00017187 Ry

     total magnetization       =     8.52 Bohr mag/cell
     absolute magnetization    =     9.06 Bohr mag/cell
[tb_dev] Currently allocated     1.61E+01 Mbytes, locked:    0 /  11
[tb_pin] Currently allocated     0.00E+00 Mbytes, locked:    0 /   0

     iteration # 13     ecut=    90.00 Ry     beta= 0.20
     Davidson diagonalization with overlap

---- Real-time Memory Report at c_bands before calling an iterative solver
          8458 MiB given to the printing process from OS
          -637 MiB allocation reported by mallinfo(arena+hblkhd)
         44838 MiB available memory on the node where the printing process lives
     GPU memory used/free/total (MiB): 5622 / 10658 / 16280
------------------
     ethr =  1.65E-07,  avg # of iterations =  7.5

     negative rho (up, down):  0.000E+00 3.111E-04

     total cpu time spent up to now is      500.2 secs

     total energy              =   -1151.06085597 Ry
     estimated scf accuracy    <       0.00306090 Ry

     total magnetization       =    10.24 Bohr mag/cell
     absolute magnetization    =    10.30 Bohr mag/cell
[tb_dev] Currently allocated     1.61E+01 Mbytes, locked:    0 /  11
[tb_pin] Currently allocated     0.00E+00 Mbytes, locked:    0 /   0

     iteration # 14     ecut=    90.00 Ry     beta= 0.20
     Davidson diagonalization with overlap

---- Real-time Memory Report at c_bands before calling an iterative solver
          8481 MiB given to the printing process from OS
          -614 MiB allocation reported by mallinfo(arena+hblkhd)
         44815 MiB available memory on the node where the printing process lives
     GPU memory used/free/total (MiB): 5622 / 10658 / 16280
------------------
     ethr =  1.65E-07,  avg # of iterations =  1.0

     negative rho (up, down):  0.000E+00 3.080E-04

     total cpu time spent up to now is      527.6 secs

     total energy              =   -1151.06034842 Ry
     estimated scf accuracy    <       0.00304627 Ry

     total magnetization       =    10.27 Bohr mag/cell
     absolute magnetization    =    10.33 Bohr mag/cell
[tb_dev] Currently allocated     1.61E+01 Mbytes, locked:    0 /  11
[tb_pin] Currently allocated     0.00E+00 Mbytes, locked:    0 /   0

     iteration # 15     ecut=    90.00 Ry     beta= 0.20
     Davidson diagonalization with overlap

---- Real-time Memory Report at c_bands before calling an iterative solver
          8507 MiB given to the printing process from OS
          -592 MiB allocation reported by mallinfo(arena+hblkhd)
         44794 MiB available memory on the node where the printing process lives
     GPU memory used/free/total (MiB): 5622 / 10658 / 16280
------------------
     ethr =  1.65E-07,  avg # of iterations =  2.0

     negative rho (up, down):  0.000E+00 3.154E-04

     total cpu time spent up to now is      557.9 secs

     total energy              =   -1151.06118192 Ry
     estimated scf accuracy    <       0.00284233 Ry

     total magnetization       =    10.18 Bohr mag/cell
     absolute magnetization    =    10.25 Bohr mag/cell
[tb_dev] Currently allocated     1.61E+01 Mbytes, locked:    0 /  11
[tb_pin] Currently allocated     0.00E+00 Mbytes, locked:    0 /   0

     iteration # 16     ecut=    90.00 Ry     beta= 0.20
     Davidson diagonalization with overlap

---- Real-time Memory Report at c_bands before calling an iterative solver
          8529 MiB given to the printing process from OS
          -570 MiB allocation reported by mallinfo(arena+hblkhd)
         44772 MiB available memory on the node where the printing process lives
     GPU memory used/free/total (MiB): 5622 / 10658 / 16280
------------------
     ethr =  1.65E-07,  avg # of iterations =  3.5

     negative rho (up, down):  0.000E+00 3.160E-04

     total cpu time spent up to now is      593.5 secs

     total energy              =   -1151.04444321 Ry
     estimated scf accuracy    <       0.00336421 Ry

     total magnetization       =    10.41 Bohr mag/cell
     absolute magnetization    =    10.47 Bohr mag/cell
[tb_dev] Currently allocated     1.61E+01 Mbytes, locked:    0 /  11
[tb_pin] Currently allocated     0.00E+00 Mbytes, locked:    0 /   0

     iteration # 17     ecut=    90.00 Ry     beta= 0.20
     Davidson diagonalization with overlap

---- Real-time Memory Report at c_bands before calling an iterative solver
          8552 MiB given to the printing process from OS
          -547 MiB allocation reported by mallinfo(arena+hblkhd)
         44749 MiB available memory on the node where the printing process lives
     GPU memory used/free/total (MiB): 5622 / 10658 / 16280
------------------
     ethr =  1.65E-07,  avg # of iterations =  7.5

     negative rho (up, down):  0.000E+00 3.626E-04

     total cpu time spent up to now is      648.9 secs

     total energy              =   -1151.03992238 Ry
     estimated scf accuracy    <       0.00043459 Ry

     total magnetization       =     9.10 Bohr mag/cell
     absolute magnetization    =     9.33 Bohr mag/cell
[tb_dev] Currently allocated     1.61E+01 Mbytes, locked:    0 /  11
[tb_pin] Currently allocated     0.00E+00 Mbytes, locked:    0 /   0

     iteration # 18     ecut=    90.00 Ry     beta= 0.20
     Davidson diagonalization with overlap

---- Real-time Memory Report at c_bands before calling an iterative solver
          8575 MiB given to the printing process from OS
          -525 MiB allocation reported by mallinfo(arena+hblkhd)
         44726 MiB available memory on the node where the printing process lives
     GPU memory used/free/total (MiB): 5622 / 10658 / 16280
------------------
     ethr =  1.65E-07,  avg # of iterations =  7.6

     negative rho (up, down):  0.000E+00 3.627E-04

     total cpu time spent up to now is      706.9 secs

     total energy              =   -1151.06306006 Ry
     estimated scf accuracy    <       0.00354080 Ry

     total magnetization       =    10.92 Bohr mag/cell
     absolute magnetization    =    10.96 Bohr mag/cell
[tb_dev] Currently allocated     1.61E+01 Mbytes, locked:    0 /  11
[tb_pin] Currently allocated     0.00E+00 Mbytes, locked:    0 /   0

     iteration # 19     ecut=    90.00 Ry     beta= 0.20
     Davidson diagonalization with overlap

---- Real-time Memory Report at c_bands before calling an iterative solver
          8602 MiB given to the printing process from OS
          -502 MiB allocation reported by mallinfo(arena+hblkhd)
         44704 MiB available memory on the node where the printing process lives
     GPU memory used/free/total (MiB): 5622 / 10658 / 16280
------------------
     ethr =  1.65E-07,  avg # of iterations =  3.3

     negative rho (up, down):  0.000E+00 3.154E-04

     total cpu time spent up to now is      741.9 secs

     total energy              =   -1151.05946539 Ry
     estimated scf accuracy    <       0.00221165 Ry

     total magnetization       =    10.73 Bohr mag/cell
     absolute magnetization    =    10.77 Bohr mag/cell
[tb_dev] Currently allocated     1.61E+01 Mbytes, locked:    0 /  11
[tb_pin] Currently allocated     0.00E+00 Mbytes, locked:    0 /   0

     iteration # 20     ecut=    90.00 Ry     beta= 0.20
     Davidson diagonalization with overlap

---- Real-time Memory Report at c_bands before calling an iterative solver
          8624 MiB given to the printing process from OS
          -480 MiB allocation reported by mallinfo(arena+hblkhd)
         44682 MiB available memory on the node where the printing process lives
     GPU memory used/free/total (MiB): 5622 / 10658 / 16280
------------------
     ethr =  1.65E-07,  avg # of iterations =  4.0

     negative rho (up, down):  0.000E+00 2.554E-04

     total cpu time spent up to now is      784.0 secs

     total energy              =   -1151.00944099 Ry
     estimated scf accuracy    <       0.00291835 Ry

     total magnetization       =    10.27 Bohr mag/cell
     absolute magnetization    =    10.33 Bohr mag/cell
[tb_dev] Currently allocated     1.61E+01 Mbytes, locked:    0 /  11
[tb_pin] Currently allocated     0.00E+00 Mbytes, locked:    0 /   0

     iteration # 21     ecut=    90.00 Ry     beta= 0.20
     Davidson diagonalization with overlap

---- Real-time Memory Report at c_bands before calling an iterative solver
          8652 MiB given to the printing process from OS
          -457 MiB allocation reported by mallinfo(arena+hblkhd)
         44660 MiB available memory on the node where the printing process lives
     GPU memory used/free/total (MiB): 5622 / 10658 / 16280
------------------
     ethr =  1.65E-07,  avg # of iterations =  7.1

     negative rho (up, down):  0.000E+00 1.776E-04

     total cpu time spent up to now is      845.0 secs

     total energy              =   -1151.02169832 Ry
     estimated scf accuracy    <       0.00213724 Ry

     total magnetization       =     8.22 Bohr mag/cell
     absolute magnetization    =     9.07 Bohr mag/cell
[tb_dev] Currently allocated     1.61E+01 Mbytes, locked:    0 /  11
[tb_pin] Currently allocated     0.00E+00 Mbytes, locked:    0 /   0

     iteration # 22     ecut=    90.00 Ry     beta= 0.20
     Davidson diagonalization with overlap

---- Real-time Memory Report at c_bands before calling an iterative solver
          8674 MiB given to the printing process from OS
          -435 MiB allocation reported by mallinfo(arena+hblkhd)
         44638 MiB available memory on the node where the printing process lives
     GPU memory used/free/total (MiB): 5622 / 10658 / 16280
------------------
     ethr =  1.65E-07,  avg # of iterations =  7.1

     negative rho (up, down):  0.000E+00 2.031E-04

     total cpu time spent up to now is      904.4 secs

     total energy              =   -1151.01137421 Ry
     estimated scf accuracy    <       0.43642048 Ry

     total magnetization       =     6.06 Bohr mag/cell
     absolute magnetization    =     8.82 Bohr mag/cell
[tb_dev] Currently allocated     1.61E+01 Mbytes, locked:    0 /  11
[tb_pin] Currently allocated     0.00E+00 Mbytes, locked:    0 /   0

     iteration # 23     ecut=    90.00 Ry     beta= 0.20
     Davidson diagonalization with overlap

---- Real-time Memory Report at c_bands before calling an iterative solver
          8697 MiB given to the printing process from OS
          -412 MiB allocation reported by mallinfo(arena+hblkhd)
         44615 MiB available memory on the node where the printing process lives
     GPU memory used/free/total (MiB): 5622 / 10658 / 16280
------------------
     ethr =  1.65E-07,  avg # of iterations =  6.9

     negative rho (up, down):  0.000E+00 1.931E-04

     total cpu time spent up to now is      958.5 secs

     total energy              =   -1151.04894005 Ry
     estimated scf accuracy    <       0.01049745 Ry

     total magnetization       =     7.97 Bohr mag/cell
     absolute magnetization    =     8.97 Bohr mag/cell
[tb_dev] Currently allocated     1.61E+01 Mbytes, locked:    0 /  11
[tb_pin] Currently allocated     0.00E+00 Mbytes, locked:    0 /   0

     iteration # 24     ecut=    90.00 Ry     beta= 0.20
     Davidson diagonalization with overlap

---- Real-time Memory Report at c_bands before calling an iterative solver
          8724 MiB given to the printing process from OS
          -390 MiB allocation reported by mallinfo(arena+hblkhd)
         44581 MiB available memory on the node where the printing process lives
     GPU memory used/free/total (MiB): 5622 / 10658 / 16280
------------------
     ethr =  1.65E-07,  avg # of iterations =  2.0

     negative rho (up, down):  0.000E+00 1.755E-04

     total cpu time spent up to now is      989.1 secs

     total energy              =   -1151.04046647 Ry
     estimated scf accuracy    <       0.01293219 Ry

     total magnetization       =     7.96 Bohr mag/cell
     absolute magnetization    =     8.94 Bohr mag/cell
[tb_dev] Currently allocated     1.61E+01 Mbytes, locked:    0 /  11
[tb_pin] Currently allocated     0.00E+00 Mbytes, locked:    0 /   0

     iteration # 25     ecut=    90.00 Ry     beta= 0.20
     Davidson diagonalization with overlap

---- Real-time Memory Report at c_bands before calling an iterative solver
          8747 MiB given to the printing process from OS
          -368 MiB allocation reported by mallinfo(arena+hblkhd)
         44558 MiB available memory on the node where the printing process lives
     GPU memory used/free/total (MiB): 5622 / 10658 / 16280
------------------
     ethr =  1.65E-07,  avg # of iterations =  6.0

     negative rho (up, down):  0.000E+00 1.780E-04

     total cpu time spent up to now is     1037.6 secs

     total energy              =   -1151.04604480 Ry
     estimated scf accuracy    <       0.09756562 Ry

     total magnetization       =     7.24 Bohr mag/cell
     absolute magnetization    =     8.66 Bohr mag/cell
[tb_dev] Currently allocated     1.61E+01 Mbytes, locked:    0 /  11
[tb_pin] Currently allocated     0.00E+00 Mbytes, locked:    0 /   0

     iteration # 26     ecut=    90.00 Ry     beta= 0.20
     Davidson diagonalization with overlap

---- Real-time Memory Report at c_bands before calling an iterative solver
          8773 MiB given to the printing process from OS
          -345 MiB allocation reported by mallinfo(arena+hblkhd)
         44534 MiB available memory on the node where the printing process lives
     GPU memory used/free/total (MiB): 5622 / 10658 / 16280
------------------
     ethr =  1.65E-07,  avg # of iterations =  2.1

     negative rho (up, down):  0.000E+00 4.206E-04

     total cpu time spent up to now is     1069.9 secs

     total energy              =   -1150.89141092 Ry
     estimated scf accuracy    <       0.06793754 Ry

     total magnetization       =     7.44 Bohr mag/cell
     absolute magnetization    =     8.73 Bohr mag/cell
[tb_dev] Currently allocated     1.61E+01 Mbytes, locked:    0 /  11
[tb_pin] Currently allocated     0.00E+00 Mbytes, locked:    0 /   0

     iteration # 27     ecut=    90.00 Ry     beta= 0.20
     Davidson diagonalization with overlap

---- Real-time Memory Report at c_bands before calling an iterative solver
          8795 MiB given to the printing process from OS
          -323 MiB allocation reported by mallinfo(arena+hblkhd)
         44504 MiB available memory on the node where the printing process lives
     GPU memory used/free/total (MiB): 5622 / 10658 / 16280
------------------
     c_bands:  1 eigenvalues not converged
     c_bands:  1 eigenvalues not converged
     ethr =  1.65E-07,  avg # of iterations = 11.0

     negative rho (up, down):  0.000E+00 3.881E-04

     total cpu time spent up to now is     1152.8 secs

     total energy              =   -1151.04440404 Ry
     estimated scf accuracy    <       0.00464190 Ry

     total magnetization       =    11.43 Bohr mag/cell
     absolute magnetization    =    11.47 Bohr mag/cell
[tb_dev] Currently allocated     1.61E+01 Mbytes, locked:    0 /  11
[tb_pin] Currently allocated     0.00E+00 Mbytes, locked:    0 /   0

     iteration # 28     ecut=    90.00 Ry     beta= 0.20
     Davidson diagonalization with overlap

---- Real-time Memory Report at c_bands before calling an iterative solver
          8817 MiB given to the printing process from OS
          -300 MiB allocation reported by mallinfo(arena+hblkhd)
         44488 MiB available memory on the node where the printing process lives
     GPU memory used/free/total (MiB): 5622 / 10658 / 16280
------------------
     ethr =  1.65E-07,  avg # of iterations =  7.5

     negative rho (up, down):  0.000E+00 3.495E-04

     total cpu time spent up to now is     1209.6 secs

     total energy              =   -1151.05515466 Ry
     estimated scf accuracy    <       0.00222150 Ry

     total magnetization       =     9.96 Bohr mag/cell
     absolute magnetization    =    10.04 Bohr mag/cell
[tb_dev] Currently allocated     1.61E+01 Mbytes, locked:    0 /  11
[tb_pin] Currently allocated     0.00E+00 Mbytes, locked:    0 /   0

     iteration # 29     ecut=    90.00 Ry     beta= 0.20
     Davidson diagonalization with overlap

---- Real-time Memory Report at c_bands before calling an iterative solver
          8817 MiB given to the printing process from OS
          -264 MiB allocation reported by mallinfo(arena+hblkhd)
         44453 MiB available memory on the node where the printing process lives
     GPU memory used/free/total (MiB): 5622 / 10658 / 16280
------------------
     ethr =  1.65E-07,  avg # of iterations =  6.8

     negative rho (up, down):  0.000E+00 3.926E-04

     total cpu time spent up to now is     1262.2 secs

     total energy              =   -1151.04331004 Ry
     estimated scf accuracy    <       0.00517796 Ry

     total magnetization       =    10.91 Bohr mag/cell
     absolute magnetization    =    10.95 Bohr mag/cell
[tb_dev] Currently allocated     1.61E+01 Mbytes, locked:    0 /  11
[tb_pin] Currently allocated     0.00E+00 Mbytes, locked:    0 /   0

     iteration # 30     ecut=    90.00 Ry     beta= 0.20
     Davidson diagonalization with overlap

---- Real-time Memory Report at c_bands before calling an iterative solver
          8835 MiB given to the printing process from OS
          -241 MiB allocation reported by mallinfo(arena+hblkhd)
         44421 MiB available memory on the node where the printing process lives
     GPU memory used/free/total (MiB): 5622 / 10658 / 16280
------------------
     ethr =  1.65E-07,  avg # of iterations =  7.7

     negative rho (up, down):  0.000E+00 4.359E-04

     total cpu time spent up to now is     1322.4 secs

     total energy              =   -1151.06227452 Ry
     estimated scf accuracy    <       0.12929566 Ry

     total magnetization       =    12.01 Bohr mag/cell
     absolute magnetization    =    12.04 Bohr mag/cell
[tb_dev] Currently allocated     1.61E+01 Mbytes, locked:    0 /  11
[tb_pin] Currently allocated     0.00E+00 Mbytes, locked:    0 /   0

     iteration # 31     ecut=    90.00 Ry     beta= 0.20
     Davidson diagonalization with overlap

---- Real-time Memory Report at c_bands before calling an iterative solver
          8857 MiB given to the printing process from OS
          -219 MiB allocation reported by mallinfo(arena+hblkhd)
         44398 MiB available memory on the node where the printing process lives
     GPU memory used/free/total (MiB): 5622 / 10658 / 16280
------------------
     ethr =  1.65E-07,  avg # of iterations =  6.4

     negative rho (up, down):  0.000E+00 3.160E-04

     total cpu time spent up to now is     1375.5 secs

     total energy              =   -1150.87584062 Ry
     estimated scf accuracy    <       0.22134618 Ry

     total magnetization       =    12.00 Bohr mag/cell
     absolute magnetization    =    12.04 Bohr mag/cell
[tb_dev] Currently allocated     1.61E+01 Mbytes, locked:    0 /  11
[tb_pin] Currently allocated     0.00E+00 Mbytes, locked:    0 /   0

     iteration # 32     ecut=    90.00 Ry     beta= 0.20
     Davidson diagonalization with overlap

---- Real-time Memory Report at c_bands before calling an iterative solver
          8880 MiB given to the printing process from OS
          -196 MiB allocation reported by mallinfo(arena+hblkhd)
         44380 MiB available memory on the node where the printing process lives
     GPU memory used/free/total (MiB): 5622 / 10658 / 16280
------------------
     ethr =  1.65E-07,  avg # of iterations = 10.7

     negative rho (up, down):  0.000E+00 3.115E-04

     total cpu time spent up to now is     1457.6 secs

     total energy              =   -1151.05281990 Ry
     estimated scf accuracy    <       0.00075208 Ry

     total magnetization       =     8.25 Bohr mag/cell
     absolute magnetization    =     9.09 Bohr mag/cell
[tb_dev] Currently allocated     1.61E+01 Mbytes, locked:    0 /  11
[tb_pin] Currently allocated     0.00E+00 Mbytes, locked:    0 /   0

     iteration # 33     ecut=    90.00 Ry     beta= 0.20
     Davidson diagonalization with overlap

---- Real-time Memory Report at c_bands before calling an iterative solver
          8903 MiB given to the printing process from OS
          -174 MiB allocation reported by mallinfo(arena+hblkhd)
         44358 MiB available memory on the node where the printing process lives
     GPU memory used/free/total (MiB): 5622 / 10658 / 16280
------------------
     ethr =  1.65E-07,  avg # of iterations =  2.5

     negative rho (up, down):  0.000E+00 3.438E-04

     total cpu time spent up to now is     1489.8 secs

     total energy              =   -1151.05102370 Ry
     estimated scf accuracy    <       0.00079086 Ry

     total magnetization       =     8.22 Bohr mag/cell
     absolute magnetization    =     9.11 Bohr mag/cell
[tb_dev] Currently allocated     1.61E+01 Mbytes, locked:    0 /  11
[tb_pin] Currently allocated     0.00E+00 Mbytes, locked:    0 /   0

     iteration # 34     ecut=    90.00 Ry     beta= 0.20
     Davidson diagonalization with overlap

---- Real-time Memory Report at c_bands before calling an iterative solver
          8926 MiB given to the printing process from OS
          -151 MiB allocation reported by mallinfo(arena+hblkhd)
         44336 MiB available memory on the node where the printing process lives
     GPU memory used/free/total (MiB): 5622 / 10658 / 16280
------------------
     ethr =  1.65E-07,  avg # of iterations =  6.3

     negative rho (up, down):  0.000E+00 3.397E-04

     total cpu time spent up to now is     1538.5 secs

     total energy              =   -1151.05283691 Ry
     estimated scf accuracy    <       0.00152017 Ry

     total magnetization       =     8.76 Bohr mag/cell
     absolute magnetization    =     9.20 Bohr mag/cell
[tb_dev] Currently allocated     1.61E+01 Mbytes, locked:    0 /  11
[tb_pin] Currently allocated     0.00E+00 Mbytes, locked:    0 /   0

     iteration # 35     ecut=    90.00 Ry     beta= 0.20
     Davidson diagonalization with overlap

---- Real-time Memory Report at c_bands before calling an iterative solver
          8946 MiB given to the printing process from OS
          -129 MiB allocation reported by mallinfo(arena+hblkhd)
         44316 MiB available memory on the node where the printing process lives
     GPU memory used/free/total (MiB): 5622 / 10658 / 16280
------------------
     ethr =  1.65E-07,  avg # of iterations =  5.6

     negative rho (up, down):  0.000E+00 3.367E-04

     total cpu time spent up to now is     1586.0 secs

     total energy              =   -1151.05662841 Ry
     estimated scf accuracy    <       0.00097555 Ry

     total magnetization       =     9.47 Bohr mag/cell
     absolute magnetization    =     9.60 Bohr mag/cell
[tb_dev] Currently allocated     1.61E+01 Mbytes, locked:    0 /  11
[tb_pin] Currently allocated     0.00E+00 Mbytes, locked:    0 /   0

     iteration # 36     ecut=    90.00 Ry     beta= 0.20
     Davidson diagonalization with overlap

---- Real-time Memory Report at c_bands before calling an iterative solver
          8969 MiB given to the printing process from OS
           -94 MiB allocation reported by mallinfo(arena+hblkhd)
         44281 MiB available memory on the node where the printing process lives
     GPU memory used/free/total (MiB): 5622 / 10658 / 16280
------------------
     ethr =  1.65E-07,  avg # of iterations =  2.0

     negative rho (up, down):  0.000E+00 3.291E-04

     total cpu time spent up to now is     1616.8 secs

     total energy              =   -1151.05669851 Ry
     estimated scf accuracy    <       0.00086827 Ry

     total magnetization       =     9.34 Bohr mag/cell
     absolute magnetization    =     9.51 Bohr mag/cell
[tb_dev] Currently allocated     1.61E+01 Mbytes, locked:    0 /  11
[tb_pin] Currently allocated     0.00E+00 Mbytes, locked:    0 /   0

     iteration # 37     ecut=    90.00 Ry     beta= 0.20
     Davidson diagonalization with overlap

---- Real-time Memory Report at c_bands before calling an iterative solver
          8992 MiB given to the printing process from OS
           -72 MiB allocation reported by mallinfo(arena+hblkhd)
         44258 MiB available memory on the node where the printing process lives
     GPU memory used/free/total (MiB): 5622 / 10658 / 16280
------------------
     ethr =  1.65E-07,  avg # of iterations =  5.2

     negative rho (up, down):  0.000E+00 3.626E-04

     total cpu time spent up to now is     1659.7 secs

     total energy              =   -1151.05994988 Ry
     estimated scf accuracy    <       0.00172283 Ry

     total magnetization       =     9.93 Bohr mag/cell
     absolute magnetization    =    10.01 Bohr mag/cell
[tb_dev] Currently allocated     1.61E+01 Mbytes, locked:    0 /  11
[tb_pin] Currently allocated     0.00E+00 Mbytes, locked:    0 /   0

     iteration # 38     ecut=    90.00 Ry     beta= 0.20
     Davidson diagonalization with overlap

---- Real-time Memory Report at c_bands before calling an iterative solver
          9014 MiB given to the printing process from OS
           -49 MiB allocation reported by mallinfo(arena+hblkhd)
         44236 MiB available memory on the node where the printing process lives
     GPU memory used/free/total (MiB): 5622 / 10658 / 16280
------------------
     ethr =  1.65E-07,  avg # of iterations =  4.1

     negative rho (up, down):  0.000E+00 2.615E-04

     total cpu time spent up to now is     1701.4 secs

     total energy              =   -1151.04391649 Ry
     estimated scf accuracy    <       0.00218625 Ry

     total magnetization       =    10.40 Bohr mag/cell
     absolute magnetization    =    10.46 Bohr mag/cell
[tb_dev] Currently allocated     1.61E+01 Mbytes, locked:    0 /  11
[tb_pin] Currently allocated     0.00E+00 Mbytes, locked:    0 /   0

     iteration # 39     ecut=    90.00 Ry     beta= 0.20
     Davidson diagonalization with overlap

---- Real-time Memory Report at c_bands before calling an iterative solver
          9036 MiB given to the printing process from OS
           -27 MiB allocation reported by mallinfo(arena+hblkhd)
         44215 MiB available memory on the node where the printing process lives
     GPU memory used/free/total (MiB): 5622 / 10658 / 16280
------------------
     ethr =  1.65E-07,  avg # of iterations =  6.3

     negative rho (up, down):  0.000E+00 2.483E-04

     total cpu time spent up to now is     1754.1 secs

     total energy              =   -1151.05217269 Ry
     estimated scf accuracy    <       0.00193701 Ry

     total magnetization       =     8.98 Bohr mag/cell
     absolute magnetization    =     9.24 Bohr mag/cell
[tb_dev] Currently allocated     1.61E+01 Mbytes, locked:    0 /  11
[tb_pin] Currently allocated     0.00E+00 Mbytes, locked:    0 /   0

     iteration # 40     ecut=    90.00 Ry     beta= 0.20
     Davidson diagonalization with overlap

---- Real-time Memory Report at c_bands before calling an iterative solver
          9059 MiB given to the printing process from OS
            -4 MiB allocation reported by mallinfo(arena+hblkhd)
         44184 MiB available memory on the node where the printing process lives
     GPU memory used/free/total (MiB): 5622 / 10658 / 16280
------------------
     ethr =  1.65E-07,  avg # of iterations =  5.0

     negative rho (up, down):  0.000E+00 2.464E-04

     total cpu time spent up to now is     1798.5 secs

     total energy              =   -1151.04994790 Ry
     estimated scf accuracy    <       0.00153520 Ry

     total magnetization       =     8.52 Bohr mag/cell
     absolute magnetization    =     9.04 Bohr mag/cell
[tb_dev] Currently allocated     1.61E+01 Mbytes, locked:    0 /  11
[tb_pin] Currently allocated     0.00E+00 Mbytes, locked:    0 /   0

     iteration # 41     ecut=    90.00 Ry     beta= 0.20
     Davidson diagonalization with overlap

---- Real-time Memory Report at c_bands before calling an iterative solver
          9082 MiB given to the printing process from OS
            -8 MiB allocation reported by mallinfo(arena+hblkhd)
         44174 MiB available memory on the node where the printing process lives
     GPU memory used/free/total (MiB): 5622 / 10658 / 16280
------------------
     ethr =  1.65E-07,  avg # of iterations =  5.7

     negative rho (up, down):  0.000E+00 2.485E-04

     total cpu time spent up to now is     1845.2 secs

     total energy              =   -1151.05275317 Ry
     estimated scf accuracy    <       0.00211366 Ry

     total magnetization       =     8.22 Bohr mag/cell
     absolute magnetization    =     9.06 Bohr mag/cell
[tb_dev] Currently allocated     1.61E+01 Mbytes, locked:    0 /  11
[tb_pin] Currently allocated     0.00E+00 Mbytes, locked:    0 /   0

     iteration # 42     ecut=    90.00 Ry     beta= 0.20
     Davidson diagonalization with overlap

---- Real-time Memory Report at c_bands before calling an iterative solver
          9104 MiB given to the printing process from OS
            38 MiB allocation reported by mallinfo(arena+hblkhd)
         44154 MiB available memory on the node where the printing process lives
     GPU memory used/free/total (MiB): 5622 / 10658 / 16280
------------------
     ethr =  1.65E-07,  avg # of iterations =  1.0

     negative rho (up, down):  0.000E+00 2.424E-04

     total cpu time spent up to now is     1872.6 secs

     total energy              =   -1151.05188758 Ry
     estimated scf accuracy    <       0.00190881 Ry

     total magnetization       =     8.22 Bohr mag/cell
     absolute magnetization    =     9.06 Bohr mag/cell
[tb_dev] Currently allocated     1.61E+01 Mbytes, locked:    0 /  11
[tb_pin] Currently allocated     0.00E+00 Mbytes, locked:    0 /   0

     iteration # 43     ecut=    90.00 Ry     beta= 0.20
     Davidson diagonalization with overlap

---- Real-time Memory Report at c_bands before calling an iterative solver
          9127 MiB given to the printing process from OS
            60 MiB allocation reported by mallinfo(arena+hblkhd)
         44132 MiB available memory on the node where the printing process lives
     GPU memory used/free/total (MiB): 5622 / 10658 / 16280
------------------
     ethr =  1.65E-07,  avg # of iterations =  2.6

     negative rho (up, down):  0.000E+00 2.489E-04

     total cpu time spent up to now is     1905.0 secs

     total energy              =   -1151.05297574 Ry
     estimated scf accuracy    <       0.00293820 Ry

     total magnetization       =     8.18 Bohr mag/cell
     absolute magnetization    =     9.07 Bohr mag/cell
[tb_dev] Currently allocated     1.61E+01 Mbytes, locked:    0 /  11
[tb_pin] Currently allocated     0.00E+00 Mbytes, locked:    0 /   0

     iteration # 44     ecut=    90.00 Ry     beta= 0.20
     Davidson diagonalization with overlap

---- Real-time Memory Report at c_bands before calling an iterative solver
          9150 MiB given to the printing process from OS
            82 MiB allocation reported by mallinfo(arena+hblkhd)
         44112 MiB available memory on the node where the printing process lives
     GPU memory used/free/total (MiB): 5622 / 10658 / 16280
------------------
     ethr =  1.65E-07,  avg # of iterations =  3.5

     negative rho (up, down):  0.000E+00 2.584E-04

     total cpu time spent up to now is     1941.2 secs

     total energy              =   -1151.05361737 Ry
     estimated scf accuracy    <       0.00152253 Ry

     total magnetization       =     8.25 Bohr mag/cell
     absolute magnetization    =     9.03 Bohr mag/cell
[tb_dev] Currently allocated     1.61E+01 Mbytes, locked:    0 /  11
[tb_pin] Currently allocated     0.00E+00 Mbytes, locked:    0 /   0

     iteration # 45     ecut=    90.00 Ry     beta= 0.20
     Davidson diagonalization with overlap

---- Real-time Memory Report at c_bands before calling an iterative solver
          9173 MiB given to the printing process from OS
           105 MiB allocation reported by mallinfo(arena+hblkhd)
         44089 MiB available memory on the node where the printing process lives
[...]
     GPU memory used/free/total (MiB): 5622 / 10658 / 16280
------------------
     ethr =  1.65E-07,  avg # of iterations =  4.0

     negative rho (up, down):  0.000E+00 2.654E-04

     total cpu time spent up to now is     2771.9 secs

     total energy              =   -1151.04575169 Ry
     estimated scf accuracy    <       0.01729725 Ry

     total magnetization       =     7.92 Bohr mag/cell
     absolute magnetization    =     9.05 Bohr mag/cell
[tb_dev] Currently allocated     1.61E+01 Mbytes, locked:    0 /  11
[tb_pin] Currently allocated     0.00E+00 Mbytes, locked:    0 /   0

     iteration # 66     ecut=    90.00 Ry     beta= 0.20
     Davidson diagonalization with overlap

---- Real-time Memory Report at c_bands before calling an iterative solver
          9683 MiB given to the printing process from OS
           602 MiB allocation reported by mallinfo(arena+hblkhd)
         43586 MiB available memory on the node where the printing process lives
     GPU memory used/free/total (MiB): 5622 / 10658 / 16280
------------------
     ethr =  1.65E-07,  avg # of iterations =  6.7

     negative rho (up, down):  0.000E+00 2.642E-04

     total cpu time spent up to now is     2824.7 secs

     total energy              =   -1151.05247608 Ry
     estimated scf accuracy    <       0.00095136 Ry

     total magnetization       =     8.27 Bohr mag/cell
     absolute magnetization    =     9.04 Bohr mag/cell
[tb_dev] Currently allocated     1.61E+01 Mbytes, locked:    0 /  11
[tb_pin] Currently allocated     0.00E+00 Mbytes, locked:    0 /   0

     iteration # 67     ecut=    90.00 Ry     beta= 0.20
     Davidson diagonalization with overlap

---- Real-time Memory Report at c_bands before calling an iterative solver
          9705 MiB given to the printing process from OS
           624 MiB allocation reported by mallinfo(arena+hblkhd)
         43563 MiB available memory on the node where the printing process lives
     GPU memory used/free/total (MiB): 5622 / 10658 / 16280
------------------
     ethr =  1.65E-07,  avg # of iterations =  3.6

     negative rho (up, down):  0.000E+00 2.839E-04

     total cpu time spent up to now is     2860.7 secs

     total energy              =   -1151.04915154 Ry
     estimated scf accuracy    <       0.00178533 Ry

     total magnetization       =     8.22 Bohr mag/cell
     absolute magnetization    =     9.09 Bohr mag/cell
[tb_dev] Currently allocated     1.61E+01 Mbytes, locked:    0 /  11
[tb_pin] Currently allocated     0.00E+00 Mbytes, locked:    0 /   0

     iteration # 68     ecut=    90.00 Ry     beta= 0.20
     Davidson diagonalization with overlap

---- Real-time Memory Report at c_bands before calling an iterative solver
          9727 MiB given to the printing process from OS
           652 MiB allocation reported by mallinfo(arena+hblkhd)
         43535 MiB available memory on the node where the printing process lives
     GPU memory used/free/total (MiB): 5622 / 10658 / 16280
------------------
     ethr =  1.65E-07,  avg # of iterations =  7.1

     negative rho (up, down):  0.000E+00 2.864E-04

     total cpu time spent up to now is     2914.9 secs

     total energy              =   -1151.05601665 Ry
     estimated scf accuracy    <       0.00067132 Ry

     total magnetization       =     8.92 Bohr mag/cell
     absolute magnetization    =     9.21 Bohr mag/cell
[tb_dev] Currently allocated     1.61E+01 Mbytes, locked:    0 /  11
[tb_pin] Currently allocated     0.00E+00 Mbytes, locked:    0 /   0

     iteration # 69     ecut=    90.00 Ry     beta= 0.20
     Davidson diagonalization with overlap

---- Real-time Memory Report at c_bands before calling an iterative solver
          9755 MiB given to the printing process from OS
           675 MiB allocation reported by mallinfo(arena+hblkhd)
         43513 MiB available memory on the node where the printing process lives
     GPU memory used/free/total (MiB): 5622 / 10658 / 16280
------------------
     ethr =  1.65E-07,  avg # of iterations =  3.8

     negative rho (up, down):  0.000E+00 2.845E-04

     total cpu time spent up to now is     2951.5 secs

     total energy              =   -1151.05589016 Ry
     estimated scf accuracy    <       0.00092909 Ry

     total magnetization       =     9.11 Bohr mag/cell
     absolute magnetization    =     9.33 Bohr mag/cell
[tb_dev] Currently allocated     1.61E+01 Mbytes, locked:    0 /  11
[tb_pin] Currently allocated     0.00E+00 Mbytes, locked:    0 /   0

     iteration # 70     ecut=    90.00 Ry     beta= 0.20
     Davidson diagonalization with overlap

---- Real-time Memory Report at c_bands before calling an iterative solver
          9777 MiB given to the printing process from OS
           702 MiB allocation reported by mallinfo(arena+hblkhd)
         43487 MiB available memory on the node where the printing process lives
     GPU memory used/free/total (MiB): 5622 / 10658 / 16280
------------------
     ethr =  1.65E-07,  avg # of iterations =  2.1

     negative rho (up, down):  0.000E+00 2.847E-04

     total cpu time spent up to now is     2982.4 secs

     total energy              =   -1151.05626809 Ry
     estimated scf accuracy    <       0.00076997 Ry

     total magnetization       =     9.00 Bohr mag/cell
     absolute magnetization    =     9.25 Bohr mag/cell
[tb_dev] Currently allocated     1.61E+01 Mbytes, locked:    0 /  11
[tb_pin] Currently allocated     0.00E+00 Mbytes, locked:    0 /   0

     iteration # 71     ecut=    90.00 Ry     beta= 0.20
     Davidson diagonalization with overlap

---- Real-time Memory Report at c_bands before calling an iterative solver
          9805 MiB given to the printing process from OS
           725 MiB allocation reported by mallinfo(arena+hblkhd)
         43465 MiB available memory on the node where the printing process lives
     GPU memory used/free/total (MiB): 5622 / 10658 / 16280
------------------
     ethr =  1.65E-07,  avg # of iterations =  2.1

     negative rho (up, down):  0.000E+00 2.844E-04

     total cpu time spent up to now is     3013.6 secs

     total energy              =   -1151.05623178 Ry
     estimated scf accuracy    <       0.00095705 Ry

     total magnetization       =     9.14 Bohr mag/cell
     absolute magnetization    =     9.34 Bohr mag/cell
[tb_dev] Currently allocated     1.61E+01 Mbytes, locked:    0 /  11
[tb_pin] Currently allocated     0.00E+00 Mbytes, locked:    0 /   0

     iteration # 72     ecut=    90.00 Ry     beta= 0.20
     Davidson diagonalization with overlap

---- Real-time Memory Report at c_bands before calling an iterative solver
          9828 MiB given to the printing process from OS
           747 MiB allocation reported by mallinfo(arena+hblkhd)
         43442 MiB available memory on the node where the printing process lives
     GPU memory used/free/total (MiB): 5622 / 10658 / 16280
------------------
     ethr =  1.65E-07,  avg # of iterations =  2.0

     negative rho (up, down):  0.000E+00 2.885E-04

     total cpu time spent up to now is     3043.8 secs

     total energy              =   -1151.05658034 Ry
     estimated scf accuracy    <       0.00089308 Ry

     total magnetization       =     9.08 Bohr mag/cell
     absolute magnetization    =     9.30 Bohr mag/cell
[tb_dev] Currently allocated     1.61E+01 Mbytes, locked:    0 /  11
[tb_pin] Currently allocated     0.00E+00 Mbytes, locked:    0 /   0

     iteration # 73     ecut=    90.00 Ry     beta= 0.20
     Davidson diagonalization with overlap

---- Real-time Memory Report at c_bands before calling an iterative solver
          9850 MiB given to the printing process from OS
           775 MiB allocation reported by mallinfo(arena+hblkhd)
         43414 MiB available memory on the node where the printing process lives
     GPU memory used/free/total (MiB): 5622 / 10658 / 16280
------------------
     ethr =  1.65E-07,  avg # of iterations =  3.0

     negative rho (up, down):  0.000E+00 2.690E-04

     total cpu time spent up to now is     3078.2 secs

     total energy              =   -1151.04970043 Ry
     estimated scf accuracy    <       0.00114479 Ry

     total magnetization       =     9.27 Bohr mag/cell
     absolute magnetization    =     9.44 Bohr mag/cell
[tb_dev] Currently allocated     1.61E+01 Mbytes, locked:    0 /  11
[tb_pin] Currently allocated     0.00E+00 Mbytes, locked:    0 /   0

     iteration # 74     ecut=    90.00 Ry     beta= 0.20
     Davidson diagonalization with overlap

---- Real-time Memory Report at c_bands before calling an iterative solver
          9878 MiB given to the printing process from OS
           798 MiB allocation reported by mallinfo(arena+hblkhd)
         43368 MiB available memory on the node where the printing process lives
     GPU memory used/free/total (MiB): 5622 / 10658 / 16280
------------------
     ethr =  1.65E-07,  avg # of iterations =  6.6

     negative rho (up, down):  0.000E+00 2.632E-04

     total cpu time spent up to now is     3128.3 secs

     total energy              =   -1151.04881466 Ry
     estimated scf accuracy    <       0.00081010 Ry

     total magnetization       =     8.56 Bohr mag/cell
     absolute magnetization    =     9.06 Bohr mag/cell
[tb_dev] Currently allocated     1.61E+01 Mbytes, locked:    0 /  11
[tb_pin] Currently allocated     0.00E+00 Mbytes, locked:    0 /   0

     iteration # 75     ecut=    90.00 Ry     beta= 0.20
     Davidson diagonalization with overlap

---- Real-time Memory Report at c_bands before calling an iterative solver
          9900 MiB given to the printing process from OS
           824 MiB allocation reported by mallinfo(arena+hblkhd)
         43355 MiB available memory on the node where the printing process lives
     GPU memory used/free/total (MiB): 5622 / 10658 / 16280
------------------
     ethr =  1.65E-07,  avg # of iterations =  5.8

     negative rho (up, down):  0.000E+00 2.742E-04

     total cpu time spent up to now is     3176.1 secs

     total energy              =   -1151.05161820 Ry
     estimated scf accuracy    <       0.00201840 Ry

     total magnetization       =     8.20 Bohr mag/cell
     absolute magnetization    =     9.08 Bohr mag/cell
[tb_dev] Currently allocated     1.61E+01 Mbytes, locked:    0 /  11
[tb_pin] Currently allocated     0.00E+00 Mbytes, locked:    0 /   0

     iteration # 76     ecut=    90.00 Ry     beta= 0.20
     Davidson diagonalization with overlap

---- Real-time Memory Report at c_bands before calling an iterative solver
          9927 MiB given to the printing process from OS
           847 MiB allocation reported by mallinfo(arena+hblkhd)
         43337 MiB available memory on the node where the printing process lives
     GPU memory used/free/total (MiB): 5622 / 10658 / 16280
------------------
     ethr =  1.65E-07,  avg # of iterations =  6.0

     negative rho (up, down):  0.000E+00 2.709E-04

     total cpu time spent up to now is     3224.6 secs

     total energy              =   -1151.05461300 Ry
     estimated scf accuracy    <       0.00072890 Ry

     total magnetization       =     8.62 Bohr mag/cell
     absolute magnetization    =     9.09 Bohr mag/cell
[tb_dev] Currently allocated     1.61E+01 Mbytes, locked:    0 /  11
[tb_pin] Currently allocated     0.00E+00 Mbytes, locked:    0 /   0

     iteration # 77     ecut=    90.00 Ry     beta= 0.20
     Davidson diagonalization with overlap

---- Real-time Memory Report at c_bands before calling an iterative solver
          9949 MiB given to the printing process from OS
           873 MiB allocation reported by mallinfo(arena+hblkhd)
         43312 MiB available memory on the node where the printing process lives
     GPU memory used/free/total (MiB): 5622 / 10658 / 16280
------------------
     ethr =  1.65E-07,  avg # of iterations =  2.0

     negative rho (up, down):  0.000E+00 2.661E-04

     total cpu time spent up to now is     3255.0 secs

     total energy              =   -1151.05403389 Ry
     estimated scf accuracy    <       0.00052999 Ry

     total magnetization       =     8.54 Bohr mag/cell
     absolute magnetization    =     9.05 Bohr mag/cell
[tb_dev] Currently allocated     1.61E+01 Mbytes, locked:    0 /  11
[tb_pin] Currently allocated     0.00E+00 Mbytes, locked:    0 /   0

     iteration # 78     ecut=    90.00 Ry     beta= 0.20
     Davidson diagonalization with overlap

---- Real-time Memory Report at c_bands before calling an iterative solver
          9976 MiB given to the printing process from OS
           896 MiB allocation reported by mallinfo(arena+hblkhd)
         43289 MiB available memory on the node where the printing process lives
     GPU memory used/free/total (MiB): 5622 / 10658 / 16280
------------------
     ethr =  1.65E-07,  avg # of iterations =  3.4

     negative rho (up, down):  0.000E+00 2.664E-04

     total cpu time spent up to now is     3289.8 secs

     total energy              =   -1151.05424309 Ry
     estimated scf accuracy    <       0.00063121 Ry

     total magnetization       =     8.41 Bohr mag/cell
     absolute magnetization    =     9.03 Bohr mag/cell
[tb_dev] Currently allocated     1.61E+01 Mbytes, locked:    0 /  11
[tb_pin] Currently allocated     0.00E+00 Mbytes, locked:    0 /   0

     iteration # 79     ecut=    90.00 Ry     beta= 0.20
     Davidson diagonalization with overlap

---- Real-time Memory Report at c_bands before calling an iterative solver
          9999 MiB given to the printing process from OS
           923 MiB allocation reported by mallinfo(arena+hblkhd)
         43263 MiB available memory on the node where the printing process lives
     GPU memory used/free/total (MiB): 5622 / 10658 / 16280
------------------
     ethr =  1.65E-07,  avg # of iterations =  1.0

     negative rho (up, down):  0.000E+00 2.643E-04

     total cpu time spent up to now is     3317.2 secs

     total energy              =   -1151.05429957 Ry
     estimated scf accuracy    <       0.00062804 Ry

     total magnetization       =     8.40 Bohr mag/cell
     absolute magnetization    =     9.03 Bohr mag/cell
[tb_dev] Currently allocated     1.61E+01 Mbytes, locked:    0 /  11
[tb_pin] Currently allocated     0.00E+00 Mbytes, locked:    0 /   0

     iteration # 80     ecut=    90.00 Ry     beta= 0.20
     Davidson diagonalization with overlap

---- Real-time Memory Report at c_bands before calling an iterative solver
         10026 MiB given to the printing process from OS
           946 MiB allocation reported by mallinfo(arena+hblkhd)
         43241 MiB available memory on the node where the printing process lives
     GPU memory used/free/total (MiB): 5622 / 10658 / 16280
------------------
     ethr =  1.65E-07,  avg # of iterations =  1.9

     negative rho (up, down):  0.000E+00 2.660E-04

     total cpu time spent up to now is     3347.1 secs

     total energy              =   -1151.05406841 Ry
     estimated scf accuracy    <       0.00068502 Ry

     total magnetization       =     8.43 Bohr mag/cell
     absolute magnetization    =     9.03 Bohr mag/cell

     End of self-consistent calculation

     convergence NOT achieved after  80 iterations: stopping

     Writing config to output data dir ./out/aiida.save/
 
     init_run     :     42.53s CPU     12.28s WALL (       1 calls)
     electrons    :   4628.10s CPU   3334.16s WALL (       1 calls)

     Called by init_run:
     wfcinit      :      1.69s CPU      1.70s WALL (       1 calls)
                                        1.70s GPU  (       1 calls)
     potinit      :     20.62s CPU      2.15s WALL (       1 calls)
     hinit0       :     12.78s CPU      6.68s WALL (       1 calls)

     Called by electrons:
     c_bands      :   2535.78s CPU   2735.46s WALL (      80 calls)
     sum_band     :    414.31s CPU    435.63s WALL (      80 calls)
     v_of_rho     :    116.45s CPU     11.65s WALL (      81 calls)
     v_h          :     26.01s CPU      2.58s WALL (      81 calls)
     v_xc         :     90.43s CPU      9.07s WALL (      81 calls)
     newd         :    178.19s CPU     22.12s WALL (      81 calls)
                                       22.12s GPU  (      81 calls)
     PAW_pot      :   1268.90s CPU    116.44s WALL (      81 calls)
     mix_rho      :     95.04s CPU      9.87s WALL (      80 calls)

     Called by c_bands:
     init_us_2    :     76.76s CPU    101.59s WALL (   51200 calls)
     init_us_2:gp :     75.78s CPU    100.63s WALL (   51200 calls)
     cegterg      :   2184.23s CPU   2326.39s WALL (   25600 calls)

     Called by sum_band:
     sum_band:wei :      1.57s CPU      1.58s WALL (      80 calls)
                                        1.57s GPU  (      80 calls)
     sum_band:loo :    383.77s CPU    404.47s WALL (      80 calls)
                                      404.47s GPU  (      80 calls)
     sum_band:buf :    147.11s CPU    150.05s WALL (   25600 calls)
                                      149.88s GPU  (   25600 calls)
     sum_band:ini :     37.42s CPU     44.05s WALL (   25600 calls)
                                       43.88s GPU  (   25600 calls)
     sum_band:cal :      1.02s CPU     18.55s WALL (   25600 calls)
                                       11.18s GPU  (   25600 calls)
     sum_band:bec :      9.39s CPU     10.02s WALL (   25600 calls)
                                        9.85s GPU  (   25600 calls)
     addusdens    :     18.99s CPU     19.17s WALL (      80 calls)
                                       19.17s GPU  (      80 calls)
     addusd:skk   :      0.10s CPU      0.10s WALL (     240 calls)
                                        0.09s GPU  (     240 calls)

     Called by *egterg:
     cdiaghg      :    642.86s CPU    745.20s WALL (  136566 calls)
                                      744.28s GPU  (  136566 calls)
     cegterg:over :     59.55s CPU     62.12s WALL (  111286 calls)
     cegterg:upda :     78.87s CPU     82.87s WALL (  111286 calls)
     cegterg:last :     54.06s CPU     55.33s WALL (   65876 calls)
     h_psi        :   1205.85s CPU   1235.29s WALL (  136886 calls)
                                     1232.59s GPU  (  136886 calls)
     s_psi        :     25.22s CPU     70.95s WALL (  136886 calls)
                                       64.43s GPU  (  136886 calls)
     g_psi        :      0.78s CPU      8.35s WALL (  111286 calls)
                                        7.62s GPU  (  111286 calls)

     Called by h_psi:
     h_psi:calbec :      4.89s CPU     50.40s WALL (  136886 calls)
                                       49.52s GPU  (  136886 calls)
     vloc_psi     :   1060.14s CPU   1085.57s WALL (  136886 calls)
                                     1084.71s GPU  (  136886 calls)
     add_vuspsi   :     42.85s CPU     83.03s WALL (  136886 calls)
                                       82.15s GPU  (  136886 calls)

     General routines
     calbec       :      4.44s CPU      4.60s WALL (  162486 calls)
     fft          :      5.64s CPU      1.30s WALL (    2023 calls)
                                        0.95s GPU  (    1861 calls)
     ffts         :      0.51s CPU      0.10s WALL (     322 calls)
                                        0.02s GPU  (     160 calls)
     fftw         :     15.13s CPU    871.50s WALL (  799178 calls)
                                      863.58s GPU  (  799178 calls)
     interpolate  :     18.85s CPU      1.67s WALL (     162 calls)
     davcio       :      0.28s CPU      8.65s WALL (     658 calls)
 
     Parallel routines

     PAW routines
     PAW_pot      :   1268.90s CPU    116.44s WALL (      81 calls)
     PAW_symme    :      0.22s CPU      0.03s WALL (     160 calls)
 
     PWSCF        :      1h17m CPU  55m53.96s WALL

 
   This run was terminated on:  21:39:59  23Oct2023            

=------------------------------------------------------------------------------=
   JOB DONE.
=------------------------------------------------------------------------------=
