
     Program PWSCF v.7.2 starts on 30Nov2023 at  4:27:46 
        Git branch: develop
        Last git commit: 9055681be6fc8200e6fffe76ed5fda34c2696339
        Last git commit date: Wed Nov 8 16:29:39 2023 +0000
        Last git commit subject: Merge branch 'calbec_fix' into 'develop'

     This program is part of the open-source Quantum ESPRESSO suite
     for quantum simulation of materials; please cite
         "P. Giannozzi et al., J. Phys.:Condens. Matter 21 395502 (2009);
         "P. Giannozzi et al., J. Phys.:Condens. Matter 29 465901 (2017);
         "P. Giannozzi et al., J. Chem. Phys. 152 154105 (2020);
          URL http://www.quantum-espresso.org", 
     in publications or presentations arising from this work. More details at
     http://www.quantum-espresso.org/quote

     Parallel version (MPI), running on    56 processors

     MPI processes distributed on     1 nodes
     489059 MiB available memory on the printing compute node when the environment starts

     Reading input from aiida.in

     Current dimensions of program PWSCF are:
     Max number of different atomic species (ntypx) = 10
     Max number of k-points (npk) =  40000
     Max angular momentum in pseudopotentials (lmaxx) =  4
     file In.pbesol-dn-rrkjus_psl.0.2.2.UPF: wavefunction(s)  5S renormalized
     Message from routine setup:
     using ibrav=0 with symmetry is DISCOURAGED, use correct ibrav instead

     K-points division:     npool     =       7
     R & G space division:  proc/nbgrp/npool/nimage =       8
     Subspace diagonalization in iterative solution of the eigenvalue problem:
     a serial algorithm will be used


     Parallelization info
     --------------------
     sticks:   dense  smooth     PW     G-vecs:    dense   smooth      PW
     Min         239     119     36                 6919     2448     410
     Max         240     120     37                 6922     2452     412
     Sum        1915     955    295                55369    19603    3287

     Using Slab Decomposition



     bravais-lattice index     =            0
     lattice parameter (alat)  =       8.3381  a.u.
     unit-cell volume          =     409.9118 (a.u.)^3
     number of atoms/cell      =            4
     number of atomic types    =            4
     number of electrons       =        52.00
     number of Kohn-Sham states=           35
     kinetic-energy cutoff     =      50.0000  Ry
     charge density cutoff     =     400.0000  Ry
     scf convergence threshold =      8.0E-10
     mixing beta               =       0.4000
     number of iterations used =            8  plain     mixing
     Exchange-correlation= SLA  PW   PSX  PSC
                           (   1   4  10   8   0   0   0)

     celldm(1)=   8.338126  celldm(2)=   0.000000  celldm(3)=   0.000000
     celldm(4)=   0.000000  celldm(5)=   0.000000  celldm(6)=   0.000000

     crystal axes: (cart. coord. in units of alat)
               a(1) = (   0.000000   0.707107   0.707107 )  
               a(2) = (   0.707107   0.000000   0.707107 )  
               a(3) = (   0.707107   0.707107   0.000000 )  

     reciprocal axes: (cart. coord. in units 2 pi/alat)
               b(1) = ( -0.707107  0.707107  0.707107 )  
               b(2) = (  0.707107 -0.707107  0.707107 )  
               b(3) = (  0.707107  0.707107 -0.707107 )  


     PseudoPot. # 1 for Cr read from file:
     ./pseudo/cr_pbesol_v1.5.uspp.F.UPF
     MD5 check sum: a621641e0be27168676a837af8893d0f
     Pseudo is Ultrasoft + core correction, Zval = 14.0
     Generated by new atomic code, or converted to UPF format
     Using radial grid of  857 points,  6 beta functions with: 
                l(1) =   0
                l(2) =   0
                l(3) =   1
                l(4) =   1
                l(5) =   2
                l(6) =   2
     Q(r) pseudized with  8 coefficients,  rinner =    0.950   0.950   0.950
                                                       0.950   0.950

     PseudoPot. # 2 for In read from file:
     ./pseudo/In.pbesol-dn-rrkjus_psl.0.2.2.UPF
     MD5 check sum: 2a3399a31491503da6b8c7d8e01e9843
     Pseudo is Ultrasoft + core correction, Zval = 13.0
     Generated using "atomic" code by A. Dal Corso  v.6.0 svn rev. 13079
     Using radial grid of 1241 points,  6 beta functions with: 
                l(1) =   0
                l(2) =   0
                l(3) =   1
                l(4) =   1
                l(5) =   2
                l(6) =   2
     Q(r) pseudized with 0 coefficients 


     PseudoPot. # 3 for Ti read from file:
     ./pseudo/ti_pbesol_v1.4.uspp.F.UPF
     MD5 check sum: 193cf2c0c3c6a4da613d69453fa7e3e9
     Pseudo is Ultrasoft + core correction, Zval = 12.0
     Generated by new atomic code, or converted to UPF format
     Using radial grid of  851 points,  6 beta functions with: 
                l(1) =   0
                l(2) =   0
                l(3) =   1
                l(4) =   1
                l(5) =   2
                l(6) =   2
     Q(r) pseudized with  6 coefficients,  rinner =    1.000   1.000   1.000
                                                       1.000   1.000

     PseudoPot. # 4 for V  read from file:
     ./pseudo/v_pbesol_v1.4.uspp.F.UPF
     MD5 check sum: 72fa7d0034c41d8adc50bbc8c632b9f9
     Pseudo is Ultrasoft + core correction, Zval = 13.0
     Generated by new atomic code, or converted to UPF format
     Using radial grid of  853 points,  6 beta functions with: 
                l(1) =   0
                l(2) =   0
                l(3) =   1
                l(4) =   1
                l(5) =   2
                l(6) =   2
     Q(r) pseudized with  8 coefficients,  rinner =    1.100   1.100   1.100
                                                       1.100   1.100

     atomic species   valence    mass     pseudopotential
     Cr               14.00    51.99610     Cr( 1.00)
     In               13.00   114.81800     In( 1.00)
     Ti               12.00    47.86700     Ti( 1.00)
     V                13.00    50.94150     V ( 1.00)

     Starting magnetic structure 
     atomic species   magnetization
     Cr              0.357
     In              0.100
     Ti              0.417
     V               0.385

     24 Sym. Ops. (no inversion) found


                                    s                        frac. trans.

      isym =  1     identity                                     

 cryst.   s( 1) = (     1          0          0      )
                  (     0          1          0      )
                  (     0          0          1      )

 cart.    s( 1) = (  1.0000000 -0.0000000  0.0000000 )
                  ( -0.0000000  1.0000000  0.0000000 )
                  ( -0.0000000  0.0000000  1.0000000 )


      isym =  2     180 deg rotation - cart. axis [0,0,1]        

 cryst.   s( 2) = (     0          1         -1      )
                  (     1          0         -1      )
                  (     0          0         -1      )

 cart.    s( 2) = ( -1.0000000  0.0000000  0.0000000 )
                  (  0.0000000 -1.0000000  0.0000000 )
                  (  0.0000000 -0.0000000  1.0000000 )


      isym =  3     180 deg rotation - cart. axis [0,1,0]        

 cryst.   s( 3) = (     0         -1          1      )
                  (     0         -1          0      )
                  (     1         -1          0      )

 cart.    s( 3) = ( -1.0000000 -0.0000000 -0.0000000 )
                  (  0.0000000  1.0000000 -0.0000000 )
                  (  0.0000000  0.0000000 -1.0000000 )


      isym =  4     180 deg rotation - cart. axis [1,0,0]        

 cryst.   s( 4) = (    -1          0          0      )
                  (    -1          0          1      )
                  (    -1          1          0      )

 cart.    s( 4) = (  1.0000000  0.0000000 -0.0000000 )
                  ( -0.0000000 -1.0000000 -0.0000000 )
                  ( -0.0000000 -0.0000000 -1.0000000 )


      isym =  5     120 deg rotation - cart. axis [-1,-1,-1]     

 cryst.   s( 5) = (     0          0          1      )
                  (     1          0          0      )
                  (     0          1          0      )

 cart.    s( 5) = (  0.0000000  1.0000000 -0.0000000 )
                  (  0.0000000 -0.0000000  1.0000000 )
                  (  1.0000000 -0.0000000  0.0000000 )


      isym =  6     120 deg rotation - cart. axis [-1,1,1]       

 cryst.   s( 6) = (     1         -1          0      )
                  (     0         -1          1      )
                  (     0         -1          0      )

 cart.    s( 6) = ( -0.0000000 -1.0000000 -0.0000000 )
                  ( -0.0000000  0.0000000  1.0000000 )
                  ( -1.0000000  0.0000000  0.0000000 )


      isym =  7     120 deg rotation - cart. axis [1,1,-1]       

 cryst.   s( 7) = (    -1          1          0      )
                  (    -1          0          0      )
                  (    -1          0          1      )

 cart.    s( 7) = ( -0.0000000  1.0000000  0.0000000 )
                  ( -0.0000000 -0.0000000 -1.0000000 )
                  ( -1.0000000 -0.0000000 -0.0000000 )


      isym =  8     120 deg rotation - cart. axis [1,-1,1]       

 cryst.   s( 8) = (     0          0         -1      )
                  (     0          1         -1      )
                  (     1          0         -1      )

 cart.    s( 8) = (  0.0000000 -1.0000000  0.0000000 )
                  (  0.0000000  0.0000000 -1.0000000 )
                  (  1.0000000  0.0000000 -0.0000000 )


      isym =  9     120 deg rotation - cart. axis [1,1,1]        

 cryst.   s( 9) = (     0          1          0      )
                  (     0          0          1      )
                  (     1          0          0      )

 cart.    s( 9) = ( -0.0000000  0.0000000  1.0000000 )
                  (  1.0000000  0.0000000 -0.0000000 )
                  (  0.0000000  1.0000000 -0.0000000 )


      isym = 10     120 deg rotation - cart. axis [-1,1,-1]      

 cryst.   s(10) = (    -1          0          1      )
                  (    -1          1          0      )
                  (    -1          0          0      )

 cart.    s(10) = (  0.0000000 -0.0000000  1.0000000 )
                  ( -1.0000000 -0.0000000 -0.0000000 )
                  ( -0.0000000 -1.0000000 -0.0000000 )


      isym = 11     120 deg rotation - cart. axis [1,-1,-1]      

 cryst.   s(11) = (     1          0         -1      )
                  (     0          0         -1      )
                  (     0          1         -1      )

 cart.    s(11) = (  0.0000000  0.0000000 -1.0000000 )
                  ( -1.0000000  0.0000000  0.0000000 )
                  ( -0.0000000  1.0000000  0.0000000 )


      isym = 12     120 deg rotation - cart. axis [-1,-1,1]      

 cryst.   s(12) = (     0         -1          0      )
                  (     1         -1          0      )
                  (     0         -1          1      )

 cart.    s(12) = ( -0.0000000 -0.0000000 -1.0000000 )
                  (  1.0000000 -0.0000000  0.0000000 )
                  (  0.0000000 -1.0000000  0.0000000 )


      isym = 13     inv. 180 deg rotation - cart. axis [1,1,0]   

 cryst.   s(13) = (     1          0         -1      )
                  (     0          1         -1      )
                  (     0          0         -1      )

 cart.    s(13) = (  0.0000000 -1.0000000  0.0000000 )
                  ( -1.0000000  0.0000000  0.0000000 )
                  ( -0.0000000  0.0000000  1.0000000 )


      isym = 14     inv. 180 deg rotation - cart. axis [1,-1,0]  

 cryst.   s(14) = (     0          1          0      )
                  (     1          0          0      )
                  (     0          0          1      )

 cart.    s(14) = ( -0.0000000  1.0000000  0.0000000 )
                  (  1.0000000 -0.0000000  0.0000000 )
                  (  0.0000000 -0.0000000  1.0000000 )


      isym = 15     inv.  90 deg rotation - cart. axis [0,0,-1]  

 cryst.   s(15) = (     0         -1          0      )
                  (     0         -1          1      )
                  (     1         -1          0      )

 cart.    s(15) = ( -0.0000000 -1.0000000 -0.0000000 )
                  (  1.0000000  0.0000000 -0.0000000 )
                  (  0.0000000  0.0000000 -1.0000000 )


      isym = 16     inv.  90 deg rotation - cart. axis [0,0,1]   

 cryst.   s(16) = (    -1          0          1      )
                  (    -1          0          0      )
                  (    -1          1          0      )

 cart.    s(16) = (  0.0000000  1.0000000 -0.0000000 )
                  ( -1.0000000 -0.0000000 -0.0000000 )
                  ( -0.0000000 -0.0000000 -1.0000000 )


      isym = 17     inv. 180 deg rotation - cart. axis [1,0,1]   

 cryst.   s(17) = (     1         -1          0      )
                  (     0         -1          0      )
                  (     0         -1          1      )

 cart.    s(17) = ( -0.0000000 -0.0000000 -1.0000000 )
                  ( -0.0000000  1.0000000  0.0000000 )
                  ( -1.0000000  0.0000000  0.0000000 )


      isym = 18     inv. 180 deg rotation - cart. axis [-1,0,1]  

 cryst.   s(18) = (     0          0          1      )
                  (     0          1          0      )
                  (     1          0          0      )

 cart.    s(18) = (  0.0000000 -0.0000000  1.0000000 )
                  (  0.0000000  1.0000000 -0.0000000 )
                  (  1.0000000  0.0000000 -0.0000000 )


      isym = 19     inv.  90 deg rotation - cart. axis [0,1,0]   

 cryst.   s(19) = (     0          0         -1      )
                  (     1          0         -1      )
                  (     0          1         -1      )

 cart.    s(19) = (  0.0000000  0.0000000 -1.0000000 )
                  (  0.0000000 -1.0000000  0.0000000 )
                  (  1.0000000 -0.0000000  0.0000000 )


      isym = 20     inv.  90 deg rotation - cart. axis [0,-1,0]  

 cryst.   s(20) = (    -1          1          0      )
                  (    -1          0          1      )
                  (    -1          0          0      )

 cart.    s(20) = ( -0.0000000  0.0000000  1.0000000 )
                  ( -0.0000000 -1.0000000 -0.0000000 )
                  ( -1.0000000 -0.0000000 -0.0000000 )


      isym = 21     inv. 180 deg rotation - cart. axis [0,1,1]   

 cryst.   s(21) = (    -1          0          0      )
                  (    -1          1          0      )
                  (    -1          0          1      )

 cart.    s(21) = (  1.0000000 -0.0000000  0.0000000 )
                  ( -0.0000000 -0.0000000 -1.0000000 )
                  ( -0.0000000 -1.0000000 -0.0000000 )


      isym = 22     inv. 180 deg rotation - cart. axis [0,1,-1]  

 cryst.   s(22) = (     1          0          0      )
                  (     0          0          1      )
                  (     0          1          0      )

 cart.    s(22) = (  1.0000000  0.0000000 -0.0000000 )
                  ( -0.0000000  0.0000000  1.0000000 )
                  ( -0.0000000  1.0000000  0.0000000 )


      isym = 23     inv.  90 deg rotation - cart. axis [-1,0,0]  

 cryst.   s(23) = (     0          1         -1      )
                  (     0          0         -1      )
                  (     1          0         -1      )

 cart.    s(23) = ( -1.0000000  0.0000000  0.0000000 )
                  (  0.0000000  0.0000000 -1.0000000 )
                  (  0.0000000  1.0000000 -0.0000000 )


      isym = 24     inv.  90 deg rotation - cart. axis [1,0,0]   

 cryst.   s(24) = (     0         -1          1      )
                  (     1         -1          0      )
                  (     0         -1          0      )

 cart.    s(24) = ( -1.0000000 -0.0000000 -0.0000000 )
                  (  0.0000000 -0.0000000  1.0000000 )
                  (  0.0000000 -1.0000000  0.0000000 )


   Cartesian axes

     site n.     atom                  positions (alat units)
         1        Ti     tau(   1) = (   0.3535534   0.3535534   0.3535534  )
         2        V      tau(   2) = (   0.7071068   0.0000000   0.0000000  )
         3        Cr     tau(   3) = (   0.0000000   0.0000000   0.0000000  )
         4        In     tau(   4) = (   0.3535534   0.3535534   1.0606602  )

   Crystallographic axes

     site n.     atom                  positions (cryst. coord.)
         1        Ti     tau(   1) = (  0.2500000  0.2500000  0.2500000  )
         2        V      tau(   2) = ( -0.5000000  0.5000000  0.5000000  )
         3        Cr     tau(   3) = (  0.0000000  0.0000000  0.0000000  )
         4        In     tau(   4) = (  0.7500000  0.7500000 -0.2500000  )

     number of k points=    72  Marzari-Vanderbilt smearing, width (Ry)=  0.0200
                       cart. coord. in units 2pi/alat
        k(    1) = (   0.0000000   0.0000000   0.0000000), wk =   0.0005787
        k(    2) = (   0.0589256   0.0589256  -0.0589256), wk =   0.0046296
        k(    3) = (   0.1178511   0.1178511  -0.1178511), wk =   0.0046296
        k(    4) = (   0.1767767   0.1767767  -0.1767767), wk =   0.0046296
        k(    5) = (   0.2357023   0.2357023  -0.2357023), wk =   0.0046296
        k(    6) = (   0.2946278   0.2946278  -0.2946278), wk =   0.0046296
        k(    7) = (  -0.3535534  -0.3535534   0.3535534), wk =   0.0023148
        k(    8) = (   0.1178511   0.0000000  -0.0000000), wk =   0.0034722
        k(    9) = (   0.1767767   0.0589256  -0.0589256), wk =   0.0138889
        k(   10) = (   0.2357023   0.1178511  -0.1178511), wk =   0.0138889
        k(   11) = (   0.2946278   0.1767767  -0.1767767), wk =   0.0138889
        k(   12) = (   0.3535534   0.2357023  -0.2357023), wk =   0.0138889
        k(   13) = (  -0.2946278  -0.4124790   0.4124790), wk =   0.0138889
        k(   14) = (  -0.2357023  -0.3535534   0.3535534), wk =   0.0138889
        k(   15) = (  -0.1767767  -0.2946278   0.2946278), wk =   0.0138889
        k(   16) = (  -0.1178511  -0.2357023   0.2357023), wk =   0.0138889
        k(   17) = (  -0.0589256  -0.1767767   0.1767767), wk =   0.0138889
        k(   18) = (  -0.0000000  -0.1178511   0.1178511), wk =   0.0069444
        k(   19) = (   0.2357023   0.0000000  -0.0000000), wk =   0.0034722
        k(   20) = (   0.2946278   0.0589256  -0.0589256), wk =   0.0138889
        k(   21) = (   0.3535534   0.1178511  -0.1178511), wk =   0.0138889
        k(   22) = (   0.4124790   0.1767767  -0.1767767), wk =   0.0138889
        k(   23) = (  -0.2357023  -0.4714045   0.4714045), wk =   0.0138889
        k(   24) = (  -0.1767767  -0.4124790   0.4124790), wk =   0.0138889
        k(   25) = (  -0.1178511  -0.3535534   0.3535534), wk =   0.0138889
        k(   26) = (  -0.0589256  -0.2946278   0.2946278), wk =   0.0138889
        k(   27) = (   0.0000000  -0.2357023   0.2357023), wk =   0.0069444
        k(   28) = (   0.3535534   0.0000000   0.0000000), wk =   0.0034722
        k(   29) = (   0.4124790   0.0589256  -0.0589256), wk =   0.0138889
        k(   30) = (   0.4714045   0.1178511  -0.1178511), wk =   0.0138889
        k(   31) = (  -0.1767767  -0.5303301   0.5303301), wk =   0.0138889
        k(   32) = (  -0.1178511  -0.4714045   0.4714045), wk =   0.0138889
        k(   33) = (  -0.0589256  -0.4124790   0.4124790), wk =   0.0138889
        k(   34) = (   0.0000000  -0.3535534   0.3535534), wk =   0.0069444
        k(   35) = (   0.4714045   0.0000000  -0.0000000), wk =   0.0034722
        k(   36) = (   0.5303301   0.0589256  -0.0589256), wk =   0.0138889
        k(   37) = (  -0.1178511  -0.5892557   0.5892557), wk =   0.0138889
        k(   38) = (  -0.0589256  -0.5303301   0.5303301), wk =   0.0138889
        k(   39) = (  -0.0000000  -0.4714045   0.4714045), wk =   0.0069444
        k(   40) = (   0.5892557   0.0000000  -0.0000000), wk =   0.0034722
        k(   41) = (  -0.0589256  -0.6481812   0.6481812), wk =   0.0138889
        k(   42) = (   0.0000000  -0.5892557   0.5892557), wk =   0.0069444
        k(   43) = (  -0.7071068   0.0000000   0.0000000), wk =   0.0017361
        k(   44) = (   0.2357023   0.1178511   0.0000000), wk =   0.0138889
        k(   45) = (   0.2946278   0.1767767  -0.0589256), wk =   0.0277778
        k(   46) = (   0.3535534   0.2357023  -0.1178511), wk =   0.0277778
        k(   47) = (  -0.2946278  -0.4124790   0.5303301), wk =   0.0277778
        k(   48) = (  -0.2357023  -0.3535534   0.4714045), wk =   0.0138889
        k(   49) = (   0.3535534   0.1178511   0.0000000), wk =   0.0138889
        k(   50) = (   0.4124790   0.1767767  -0.0589256), wk =   0.0277778
        k(   51) = (  -0.2357023  -0.4714045   0.5892557), wk =   0.0277778
        k(   52) = (  -0.1767767  -0.4124790   0.5303301), wk =   0.0277778
        k(   53) = (  -0.1178511  -0.3535534   0.4714045), wk =   0.0277778
        k(   54) = (  -0.0589256  -0.2946278   0.4124790), wk =   0.0277778
        k(   55) = (   0.0000000  -0.2357023   0.3535534), wk =   0.0138889
        k(   56) = (   0.4714045   0.1178511  -0.0000000), wk =   0.0138889
        k(   57) = (  -0.1767767  -0.5303301   0.6481812), wk =   0.0277778
        k(   58) = (  -0.1178511  -0.4714045   0.5892557), wk =   0.0277778
        k(   59) = (  -0.0589256  -0.4124790   0.5303301), wk =   0.0277778
        k(   60) = (  -0.0000000  -0.3535534   0.4714045), wk =   0.0138889
        k(   61) = (  -0.1178511  -0.5892557   0.7071068), wk =   0.0138889
        k(   62) = (  -0.0589256  -0.5303301   0.6481812), wk =   0.0277778
        k(   63) = (  -0.0000000  -0.4714045   0.5892557), wk =   0.0138889
        k(   64) = (  -0.7071068   0.1178511  -0.0000000), wk =   0.0069444
        k(   65) = (  -0.2357023  -0.4714045   0.7071068), wk =   0.0138889
        k(   66) = (  -0.1767767  -0.4124790   0.6481812), wk =   0.0277778
        k(   67) = (  -0.1178511  -0.3535534   0.5892557), wk =   0.0138889
        k(   68) = (  -0.1178511  -0.4714045   0.7071068), wk =   0.0138889
        k(   69) = (  -0.0589256  -0.4124790   0.6481812), wk =   0.0277778
        k(   70) = (   0.0000000  -0.3535534   0.5892557), wk =   0.0138889
        k(   71) = (  -0.7071068   0.2357023   0.0000000), wk =   0.0069444
        k(   72) = (  -0.7071068   0.3535534   0.0000000), wk =   0.0034722

                       cryst. coord.
        k(    1) = (   0.0000000   0.0000000   0.0000000), wk =   0.0005787
        k(    2) = (   0.0000000   0.0000000   0.0833333), wk =   0.0046296
        k(    3) = (   0.0000000   0.0000000   0.1666667), wk =   0.0046296
        k(    4) = (   0.0000000   0.0000000   0.2500000), wk =   0.0046296
        k(    5) = (   0.0000000   0.0000000   0.3333333), wk =   0.0046296
        k(    6) = (  -0.0000000  -0.0000000   0.4166667), wk =   0.0046296
        k(    7) = (  -0.0000000  -0.0000000  -0.5000000), wk =   0.0023148
        k(    8) = (  -0.0000000   0.0833333   0.0833333), wk =   0.0034722
        k(    9) = (   0.0000000   0.0833333   0.1666667), wk =   0.0138889
        k(   10) = (  -0.0000000   0.0833333   0.2500000), wk =   0.0138889
        k(   11) = (   0.0000000   0.0833333   0.3333333), wk =   0.0138889
        k(   12) = (  -0.0000000   0.0833333   0.4166667), wk =   0.0138889
        k(   13) = (  -0.0000000   0.0833333  -0.5000000), wk =   0.0138889
        k(   14) = (  -0.0000000   0.0833333  -0.4166667), wk =   0.0138889
        k(   15) = (  -0.0000000   0.0833333  -0.3333333), wk =   0.0138889
        k(   16) = (  -0.0000000   0.0833333  -0.2500000), wk =   0.0138889
        k(   17) = (  -0.0000000   0.0833333  -0.1666667), wk =   0.0138889
        k(   18) = (   0.0000000   0.0833333  -0.0833333), wk =   0.0069444
        k(   19) = (  -0.0000000   0.1666667   0.1666667), wk =   0.0034722
        k(   20) = (  -0.0000000   0.1666667   0.2500000), wk =   0.0138889
        k(   21) = (   0.0000000   0.1666667   0.3333333), wk =   0.0138889
        k(   22) = (  -0.0000000   0.1666667   0.4166667), wk =   0.0138889
        k(   23) = (  -0.0000000   0.1666667  -0.5000000), wk =   0.0138889
        k(   24) = (  -0.0000000   0.1666667  -0.4166667), wk =   0.0138889
        k(   25) = (  -0.0000000   0.1666667  -0.3333333), wk =   0.0138889
        k(   26) = (   0.0000000   0.1666667  -0.2500000), wk =   0.0138889
        k(   27) = (  -0.0000000   0.1666667  -0.1666667), wk =   0.0069444
        k(   28) = (   0.0000000   0.2500000   0.2500000), wk =   0.0034722
        k(   29) = (   0.0000000   0.2500000   0.3333333), wk =   0.0138889
        k(   30) = (  -0.0000000   0.2500000   0.4166667), wk =   0.0138889
        k(   31) = (   0.0000000   0.2500000  -0.5000000), wk =   0.0138889
        k(   32) = (  -0.0000000   0.2500000  -0.4166667), wk =   0.0138889
        k(   33) = (  -0.0000000   0.2500000  -0.3333333), wk =   0.0138889
        k(   34) = (  -0.0000000   0.2500000  -0.2500000), wk =   0.0069444
        k(   35) = (  -0.0000000   0.3333333   0.3333333), wk =   0.0034722
        k(   36) = (  -0.0000000   0.3333333   0.4166667), wk =   0.0138889
        k(   37) = (   0.0000000   0.3333333  -0.5000000), wk =   0.0138889
        k(   38) = (  -0.0000000   0.3333333  -0.4166667), wk =   0.0138889
        k(   39) = (   0.0000000   0.3333333  -0.3333333), wk =   0.0069444
        k(   40) = (   0.0000000   0.4166667   0.4166667), wk =   0.0034722
        k(   41) = (  -0.0000000   0.4166667  -0.5000000), wk =   0.0138889
        k(   42) = (   0.0000000   0.4166667  -0.4166667), wk =   0.0069444
        k(   43) = (   0.0000000  -0.5000000  -0.5000000), wk =   0.0017361
        k(   44) = (   0.0833333   0.1666667   0.2500000), wk =   0.0138889
        k(   45) = (   0.0833333   0.1666667   0.3333333), wk =   0.0277778
        k(   46) = (   0.0833333   0.1666667   0.4166667), wk =   0.0277778
        k(   47) = (   0.0833333   0.1666667  -0.5000000), wk =   0.0277778
        k(   48) = (   0.0833333   0.1666667  -0.4166667), wk =   0.0138889
        k(   49) = (   0.0833333   0.2500000   0.3333333), wk =   0.0138889
        k(   50) = (   0.0833333   0.2500000   0.4166667), wk =   0.0277778
        k(   51) = (   0.0833333   0.2500000  -0.5000000), wk =   0.0277778
        k(   52) = (   0.0833333   0.2500000  -0.4166667), wk =   0.0277778
        k(   53) = (   0.0833333   0.2500000  -0.3333333), wk =   0.0277778
        k(   54) = (   0.0833333   0.2500000  -0.2500000), wk =   0.0277778
        k(   55) = (   0.0833333   0.2500000  -0.1666667), wk =   0.0138889
        k(   56) = (   0.0833333   0.3333333   0.4166667), wk =   0.0138889
        k(   57) = (   0.0833333   0.3333333  -0.5000000), wk =   0.0277778
        k(   58) = (   0.0833333   0.3333333  -0.4166667), wk =   0.0277778
        k(   59) = (   0.0833333   0.3333333  -0.3333333), wk =   0.0277778
        k(   60) = (   0.0833333   0.3333333  -0.2500000), wk =   0.0138889
        k(   61) = (   0.0833333   0.4166667  -0.5000000), wk =   0.0138889
        k(   62) = (   0.0833333   0.4166667  -0.4166667), wk =   0.0277778
        k(   63) = (   0.0833333   0.4166667  -0.3333333), wk =   0.0138889
        k(   64) = (   0.0833333  -0.5000000  -0.4166667), wk =   0.0069444
        k(   65) = (   0.1666667   0.3333333  -0.5000000), wk =   0.0138889
        k(   66) = (   0.1666667   0.3333333  -0.4166667), wk =   0.0277778
        k(   67) = (   0.1666667   0.3333333  -0.3333333), wk =   0.0138889
        k(   68) = (   0.1666667   0.4166667  -0.4166667), wk =   0.0138889
        k(   69) = (   0.1666667   0.4166667  -0.3333333), wk =   0.0277778
        k(   70) = (   0.1666667   0.4166667  -0.2500000), wk =   0.0138889
        k(   71) = (   0.1666667  -0.5000000  -0.3333333), wk =   0.0069444
        k(   72) = (   0.2500000  -0.5000000  -0.2500000), wk =   0.0034722

     Dense  grid:    55369 G-vectors     FFT dimensions: (  54,  54,  54)

     Smooth grid:    19603 G-vectors     FFT dimensions: (  40,  40,  40)

     Dynamical RAM for                 wfc:       0.16 MB

     Dynamical RAM for     wfc (w. buffer):       3.58 MB

     Dynamical RAM for           str. fact:       0.42 MB

     Dynamical RAM for           local pot:       0.00 MB

     Dynamical RAM for          nlocal pot:       0.34 MB

     Dynamical RAM for                qrad:       6.42 MB

     Dynamical RAM for          rho,v,vnew:       1.57 MB

     Dynamical RAM for               rhoin:       0.52 MB

     Dynamical RAM for            rho*nmix:       3.38 MB

     Dynamical RAM for           G-vectors:       0.41 MB

     Dynamical RAM for          h,s,v(r/c):       0.06 MB

     Dynamical RAM for          <psi|beta>:       0.04 MB

     Dynamical RAM for      wfcinit/wfcrot:       0.40 MB

     Dynamical RAM for           addusdens:       3.02 MB

     Dynamical RAM for          addusforce:       2.93 MB

     Dynamical RAM for         addusstress:       3.14 MB

     Estimated static dynamical RAM per process >      14.73 MB

     Estimated max dynamical RAM per process >      21.25 MB

     Estimated total dynamical RAM >       1.00 GB

     Check: negative core charge=   -0.000004
     Generating pointlists ...
     new r_m :   0.2526 (alat units)  2.1062 (a.u.) for type    1
     new r_m :   0.2526 (alat units)  2.1062 (a.u.) for type    2
     new r_m :   0.2526 (alat units)  2.1062 (a.u.) for type    3
     new r_m :   0.2526 (alat units)  2.1062 (a.u.) for type    4

     The initial density is read from file :
     ./out/aiida.save/charge-density


     starting charge      51.9996, renormalised to      52.0000

     negative rho (up, down):  7.758E-04 2.427E-03
     Starting wfcs are   39 randomized atomic wfcs

     total cpu time spent up to now is        1.7 secs

     per-process dynamical memory:    26.2 Mb

     Self-consistent Calculation

     iteration #  1     ecut=    50.00 Ry     beta= 0.40
     ParO style diagonalization

---- Real-time Memory Report at c_bands before calling an iterative solver
            63 MiB given to the printing process from OS
            25 MiB allocation reported by mallinfo(arena+hblkhd)
        487715 MiB available memory on the node where the printing process lives
------------------
     ethr =  1.00E-05,  avg # of iterations = 12.2

     negative rho (up, down):  8.187E-04 2.381E-03

     total cpu time spent up to now is        4.7 secs

     total energy              =    -583.85670700 Ry
     estimated scf accuracy    <       0.00340035 Ry

     total magnetization       =     1.45 Bohr mag/cell
     absolute magnetization    =     2.99 Bohr mag/cell

     iteration #  2     ecut=    50.00 Ry     beta= 0.40
     ParO style diagonalization

---- Real-time Memory Report at c_bands before calling an iterative solver
            70 MiB given to the printing process from OS
            31 MiB allocation reported by mallinfo(arena+hblkhd)
        487434 MiB available memory on the node where the printing process lives
------------------
     ethr =  6.54E-06,  avg # of iterations =  4.8

     negative rho (up, down):  8.239E-04 2.367E-03

     total cpu time spent up to now is        6.0 secs

     total energy              =    -583.85780857 Ry
     estimated scf accuracy    <       0.02361999 Ry

     total magnetization       =     1.03 Bohr mag/cell
     absolute magnetization    =     3.36 Bohr mag/cell

     iteration #  3     ecut=    50.00 Ry     beta= 0.40
     ParO style diagonalization

---- Real-time Memory Report at c_bands before calling an iterative solver
            70 MiB given to the printing process from OS
            31 MiB allocation reported by mallinfo(arena+hblkhd)
        487429 MiB available memory on the node where the printing process lives
------------------
     ethr =  6.54E-06,  avg # of iterations =  4.3

     negative rho (up, down):  7.601E-04 2.399E-03

     total cpu time spent up to now is        7.2 secs

     total energy              =    -583.85131500 Ry
     estimated scf accuracy    <       0.00569051 Ry

     total magnetization       =     1.06 Bohr mag/cell
     absolute magnetization    =     3.39 Bohr mag/cell

     iteration #  4     ecut=    50.00 Ry     beta= 0.40
     ParO style diagonalization

---- Real-time Memory Report at c_bands before calling an iterative solver
            71 MiB given to the printing process from OS
            31 MiB allocation reported by mallinfo(arena+hblkhd)
        487425 MiB available memory on the node where the printing process lives
------------------
     ethr =  6.54E-06,  avg # of iterations =  4.8

     negative rho (up, down):  6.687E-04 2.444E-03

     total cpu time spent up to now is        8.4 secs

     total energy              =    -583.84398801 Ry
     estimated scf accuracy    <       0.01026948 Ry

     total magnetization       =     1.48 Bohr mag/cell
     absolute magnetization    =     2.86 Bohr mag/cell

     iteration #  5     ecut=    50.00 Ry     beta= 0.40
     ParO style diagonalization

---- Real-time Memory Report at c_bands before calling an iterative solver
            71 MiB given to the printing process from OS
            31 MiB allocation reported by mallinfo(arena+hblkhd)
        487420 MiB available memory on the node where the printing process lives
------------------
     ethr =  6.54E-06,  avg # of iterations =  5.4

     negative rho (up, down):  5.614E-04 2.460E-03

     total cpu time spent up to now is        9.9 secs

     total energy              =    -583.83881033 Ry
     estimated scf accuracy    <       0.00305515 Ry

     total magnetization       =     2.24 Bohr mag/cell
     absolute magnetization    =     2.65 Bohr mag/cell

     iteration #  6     ecut=    50.00 Ry     beta= 0.40
     ParO style diagonalization

---- Real-time Memory Report at c_bands before calling an iterative solver
            71 MiB given to the printing process from OS
            32 MiB allocation reported by mallinfo(arena+hblkhd)
        487416 MiB available memory on the node where the printing process lives
------------------
     ethr =  5.88E-06,  avg # of iterations =  5.4

     negative rho (up, down):  4.617E-04 2.660E-03

     total cpu time spent up to now is       11.5 secs

     total energy              =    -583.83750618 Ry
     estimated scf accuracy    <       0.00269281 Ry

     total magnetization       =     2.96 Bohr mag/cell
     absolute magnetization    =     3.12 Bohr mag/cell

     iteration #  7     ecut=    50.00 Ry     beta= 0.40
     ParO style diagonalization

---- Real-time Memory Report at c_bands before calling an iterative solver
            71 MiB given to the printing process from OS
            32 MiB allocation reported by mallinfo(arena+hblkhd)
        487414 MiB available memory on the node where the printing process lives
------------------
     ethr =  5.18E-06,  avg # of iterations =  5.6

     negative rho (up, down):  7.973E-04 2.532E-03

     total cpu time spent up to now is       13.2 secs

     total energy              =    -583.81592255 Ry
     estimated scf accuracy    <       0.00119768 Ry

     total magnetization       =     3.38 Bohr mag/cell
     absolute magnetization    =     3.53 Bohr mag/cell

     iteration #  8     ecut=    50.00 Ry     beta= 0.40
     ParO style diagonalization

---- Real-time Memory Report at c_bands before calling an iterative solver
            72 MiB given to the printing process from OS
            32 MiB allocation reported by mallinfo(arena+hblkhd)
        487411 MiB available memory on the node where the printing process lives
------------------
     ethr =  2.30E-06,  avg # of iterations =  8.1

     negative rho (up, down):  4.726E-04 2.213E-03

     total cpu time spent up to now is       15.3 secs

     total energy              =    -583.79744602 Ry
     estimated scf accuracy    <       0.00438956 Ry

     total magnetization       =     1.39 Bohr mag/cell
     absolute magnetization    =     3.14 Bohr mag/cell

     iteration #  9     ecut=    50.00 Ry     beta= 0.40
     ParO style diagonalization

---- Real-time Memory Report at c_bands before calling an iterative solver
            72 MiB given to the printing process from OS
            32 MiB allocation reported by mallinfo(arena+hblkhd)
        487410 MiB available memory on the node where the printing process lives
------------------
     ethr =  2.30E-06,  avg # of iterations =  8.3

     negative rho (up, down):  4.594E-04 2.319E-03

     total cpu time spent up to now is       17.4 secs

     total energy              =    -583.84146914 Ry
     estimated scf accuracy    <       0.00148576 Ry

     total magnetization       =     3.19 Bohr mag/cell
     absolute magnetization    =     3.33 Bohr mag/cell

     iteration # 10     ecut=    50.00 Ry     beta= 0.40
     ParO style diagonalization

---- Real-time Memory Report at c_bands before calling an iterative solver
            72 MiB given to the printing process from OS
            32 MiB allocation reported by mallinfo(arena+hblkhd)
        487408 MiB available memory on the node where the printing process lives
------------------
     ethr =  2.30E-06,  avg # of iterations =  2.9

     negative rho (up, down):  4.596E-04 2.151E-03

     total cpu time spent up to now is       18.4 secs

     total energy              =    -583.84059757 Ry
     estimated scf accuracy    <       0.00166252 Ry

     total magnetization       =     3.25 Bohr mag/cell
     absolute magnetization    =     3.39 Bohr mag/cell

     iteration # 11     ecut=    50.00 Ry     beta= 0.40
     ParO style diagonalization

---- Real-time Memory Report at c_bands before calling an iterative solver
            72 MiB given to the printing process from OS
            32 MiB allocation reported by mallinfo(arena+hblkhd)
        487408 MiB available memory on the node where the printing process lives
------------------
     ethr =  2.30E-06,  avg # of iterations =  4.8

     negative rho (up, down):  3.070E-04 3.289E-03

     total cpu time spent up to now is       19.7 secs

     total energy              =    -583.82070047 Ry
     estimated scf accuracy    <       0.00080775 Ry

     total magnetization       =     3.29 Bohr mag/cell
     absolute magnetization    =     3.42 Bohr mag/cell

     iteration # 12     ecut=    50.00 Ry     beta= 0.40
     ParO style diagonalization

---- Real-time Memory Report at c_bands before calling an iterative solver
            72 MiB given to the printing process from OS
            32 MiB allocation reported by mallinfo(arena+hblkhd)
        487407 MiB available memory on the node where the printing process lives
------------------
     ethr =  1.55E-06,  avg # of iterations =  7.6

     negative rho (up, down):  5.225E-04 1.951E-03

     total cpu time spent up to now is       21.7 secs

     total energy              =    -583.82677046 Ry
     estimated scf accuracy    <       0.00410833 Ry

     total magnetization       =     3.84 Bohr mag/cell
     absolute magnetization    =     3.97 Bohr mag/cell

     iteration # 13     ecut=    50.00 Ry     beta= 0.40
     ParO style diagonalization

---- Real-time Memory Report at c_bands before calling an iterative solver
            72 MiB given to the printing process from OS
            32 MiB allocation reported by mallinfo(arena+hblkhd)
        487407 MiB available memory on the node where the printing process lives
------------------
     ethr =  1.55E-06,  avg # of iterations =  8.2

     negative rho (up, down):  7.923E-04 2.345E-03

     total cpu time spent up to now is       23.8 secs

     total energy              =    -583.82493364 Ry
     estimated scf accuracy    <       0.00051922 Ry

     total magnetization       =     2.99 Bohr mag/cell
     absolute magnetization    =     3.13 Bohr mag/cell

     iteration # 14     ecut=    50.00 Ry     beta= 0.40
     ParO style diagonalization

---- Real-time Memory Report at c_bands before calling an iterative solver
            72 MiB given to the printing process from OS
            32 MiB allocation reported by mallinfo(arena+hblkhd)
        487406 MiB available memory on the node where the printing process lives
------------------
     ethr =  9.98E-07,  avg # of iterations =  8.7

     negative rho (up, down):  9.334E-04 2.646E-03

     total cpu time spent up to now is       26.0 secs

     total energy              =    -583.85942540 Ry
     estimated scf accuracy    <       0.00419142 Ry

     total magnetization       =     1.34 Bohr mag/cell
     absolute magnetization    =     3.09 Bohr mag/cell

     iteration # 15     ecut=    50.00 Ry     beta= 0.40
     ParO style diagonalization

---- Real-time Memory Report at c_bands before calling an iterative solver
            72 MiB given to the printing process from OS
            32 MiB allocation reported by mallinfo(arena+hblkhd)
        487406 MiB available memory on the node where the printing process lives
------------------
     ethr =  9.98E-07,  avg # of iterations =  7.3

     negative rho (up, down):  1.003E-03 2.709E-03

     total cpu time spent up to now is       27.9 secs

     total energy              =    -583.87467653 Ry
     estimated scf accuracy    <       0.01947741 Ry

     total magnetization       =     0.58 Bohr mag/cell
     absolute magnetization    =     4.27 Bohr mag/cell

     iteration # 16     ecut=    50.00 Ry     beta= 0.40
     ParO style diagonalization

---- Real-time Memory Report at c_bands before calling an iterative solver
            72 MiB given to the printing process from OS
            32 MiB allocation reported by mallinfo(arena+hblkhd)
        487397 MiB available memory on the node where the printing process lives
------------------
     ethr =  9.98E-07,  avg # of iterations =  5.8

     negative rho (up, down):  7.401E-04 2.310E-03

     total cpu time spent up to now is       29.6 secs

     total energy              =    -583.82385804 Ry
     estimated scf accuracy    <       0.03717238 Ry

     total magnetization       =     0.30 Bohr mag/cell
     absolute magnetization    =     4.75 Bohr mag/cell

     iteration # 17     ecut=    50.00 Ry     beta= 0.40
     ParO style diagonalization

---- Real-time Memory Report at c_bands before calling an iterative solver
            72 MiB given to the printing process from OS
            32 MiB allocation reported by mallinfo(arena+hblkhd)
        487397 MiB available memory on the node where the printing process lives
------------------
     ethr =  9.98E-07,  avg # of iterations =  8.4

     negative rho (up, down):  8.198E-04 2.446E-03

     total cpu time spent up to now is       31.8 secs

     total energy              =    -583.85462583 Ry
     estimated scf accuracy    <       0.00230688 Ry

     total magnetization       =     1.68 Bohr mag/cell
     absolute magnetization    =     2.65 Bohr mag/cell

     iteration # 18     ecut=    50.00 Ry     beta= 0.40
     ParO style diagonalization

---- Real-time Memory Report at c_bands before calling an iterative solver
            72 MiB given to the printing process from OS
            32 MiB allocation reported by mallinfo(arena+hblkhd)
        487397 MiB available memory on the node where the printing process lives
------------------
     ethr =  9.98E-07,  avg # of iterations =  6.0

     negative rho (up, down):  9.117E-04 2.575E-03

     total cpu time spent up to now is       33.5 secs

     total energy              =    -583.86260721 Ry
     estimated scf accuracy    <       0.00511167 Ry

     total magnetization       =     1.16 Bohr mag/cell
     absolute magnetization    =     3.36 Bohr mag/cell

     iteration # 19     ecut=    50.00 Ry     beta= 0.40
     ParO style diagonalization

---- Real-time Memory Report at c_bands before calling an iterative solver
            72 MiB given to the printing process from OS
            32 MiB allocation reported by mallinfo(arena+hblkhd)
        487395 MiB available memory on the node where the printing process lives
------------------
     ethr =  9.98E-07,  avg # of iterations =  6.5

     negative rho (up, down):  9.282E-04 2.610E-03

     total cpu time spent up to now is       35.4 secs

     total energy              =    -583.86826435 Ry
     estimated scf accuracy    <       0.01425773 Ry

     total magnetization       =     0.64 Bohr mag/cell
     absolute magnetization    =     4.13 Bohr mag/cell

     iteration # 20     ecut=    50.00 Ry     beta= 0.40
     ParO style diagonalization

---- Real-time Memory Report at c_bands before calling an iterative solver
            72 MiB given to the printing process from OS
            32 MiB allocation reported by mallinfo(arena+hblkhd)
        487395 MiB available memory on the node where the printing process lives
------------------
     ethr =  9.98E-07,  avg # of iterations =  4.0

     negative rho (up, down):  1.119E-03 2.858E-03

     total cpu time spent up to now is       36.6 secs

     total energy              =    -583.87829964 Ry
     estimated scf accuracy    <       0.01642340 Ry

     total magnetization       =     0.56 Bohr mag/cell
     absolute magnetization    =     4.27 Bohr mag/cell

     iteration # 21     ecut=    50.00 Ry     beta= 0.40
     ParO style diagonalization

---- Real-time Memory Report at c_bands before calling an iterative solver
            72 MiB given to the printing process from OS
            32 MiB allocation reported by mallinfo(arena+hblkhd)
        487395 MiB available memory on the node where the printing process lives
------------------
     ethr =  9.98E-07,  avg # of iterations =  7.9

     negative rho (up, down):  5.848E-04 2.104E-03

     total cpu time spent up to now is       38.6 secs

     total energy              =    -583.74788801 Ry
     estimated scf accuracy    <       0.08349579 Ry

     total magnetization       =     0.07 Bohr mag/cell
     absolute magnetization    =     5.36 Bohr mag/cell

     iteration # 22     ecut=    50.00 Ry     beta= 0.40
     ParO style diagonalization

---- Real-time Memory Report at c_bands before calling an iterative solver
            73 MiB given to the printing process from OS
            32 MiB allocation reported by mallinfo(arena+hblkhd)
        487395 MiB available memory on the node where the printing process lives
------------------
     ethr =  9.98E-07,  avg # of iterations =  9.6

     negative rho (up, down):  6.251E-04 2.169E-03

     total cpu time spent up to now is       40.9 secs

     total energy              =    -583.84718112 Ry
     estimated scf accuracy    <       0.00663382 Ry

     total magnetization       =     2.42 Bohr mag/cell
     absolute magnetization    =     2.66 Bohr mag/cell

     iteration # 23     ecut=    50.00 Ry     beta= 0.40
     ParO style diagonalization

---- Real-time Memory Report at c_bands before calling an iterative solver
            73 MiB given to the printing process from OS
            32 MiB allocation reported by mallinfo(arena+hblkhd)
        487395 MiB available memory on the node where the printing process lives
------------------
     ethr =  9.98E-07,  avg # of iterations =  5.2

     negative rho (up, down):  8.496E-04 2.499E-03

     total cpu time spent up to now is       42.4 secs

     total energy              =    -583.84005366 Ry
     estimated scf accuracy    <       0.00746553 Ry

     total magnetization       =     2.18 Bohr mag/cell
     absolute magnetization    =     2.53 Bohr mag/cell

     iteration # 24     ecut=    50.00 Ry     beta= 0.40
     ParO style diagonalization

---- Real-time Memory Report at c_bands before calling an iterative solver
            73 MiB given to the printing process from OS
            32 MiB allocation reported by mallinfo(arena+hblkhd)
        487395 MiB available memory on the node where the printing process lives
------------------
     ethr =  9.98E-07,  avg # of iterations =  8.4

     negative rho (up, down):  8.143E-04 2.480E-03

     total cpu time spent up to now is       44.6 secs

     total energy              =    -583.85835679 Ry
     estimated scf accuracy    <       0.00673254 Ry

     total magnetization       =     0.79 Bohr mag/cell
     absolute magnetization    =     3.80 Bohr mag/cell

     iteration # 25     ecut=    50.00 Ry     beta= 0.40
     ParO style diagonalization

---- Real-time Memory Report at c_bands before calling an iterative solver
            73 MiB given to the printing process from OS
            32 MiB allocation reported by mallinfo(arena+hblkhd)
        487395 MiB available memory on the node where the printing process lives
------------------
     ethr =  9.98E-07,  avg # of iterations =  5.0

     negative rho (up, down):  8.628E-04 2.560E-03

     total cpu time spent up to now is       46.0 secs

     total energy              =    -583.86190395 Ry
     estimated scf accuracy    <       0.00756418 Ry

     total magnetization       =     1.02 Bohr mag/cell
     absolute magnetization    =     3.48 Bohr mag/cell

     iteration # 26     ecut=    50.00 Ry     beta= 0.40
     ParO style diagonalization

---- Real-time Memory Report at c_bands before calling an iterative solver
            73 MiB given to the printing process from OS
            32 MiB allocation reported by mallinfo(arena+hblkhd)
        487395 MiB available memory on the node where the printing process lives
------------------
     ethr =  9.98E-07,  avg # of iterations =  5.3

     negative rho (up, down):  6.171E-04 2.150E-03

     total cpu time spent up to now is       47.5 secs

     total energy              =    -583.82318649 Ry
     estimated scf accuracy    <       0.00646533 Ry

     total magnetization       =     0.80 Bohr mag/cell
     absolute magnetization    =     3.85 Bohr mag/cell

     iteration # 27     ecut=    50.00 Ry     beta= 0.40
     ParO style diagonalization

---- Real-time Memory Report at c_bands before calling an iterative solver
            73 MiB given to the printing process from OS
            32 MiB allocation reported by mallinfo(arena+hblkhd)
        487395 MiB available memory on the node where the printing process lives
------------------
     ethr =  9.98E-07,  avg # of iterations =  8.5

     negative rho (up, down):  5.079E-04 1.865E-03

     total cpu time spent up to now is       49.7 secs

     total energy              =    -583.83060132 Ry
     estimated scf accuracy    <       0.00721147 Ry

     total magnetization       =     2.20 Bohr mag/cell
     absolute magnetization    =     2.53 Bohr mag/cell

     iteration # 28     ecut=    50.00 Ry     beta= 0.40
     ParO style diagonalization

---- Real-time Memory Report at c_bands before calling an iterative solver
            73 MiB given to the printing process from OS
            32 MiB allocation reported by mallinfo(arena+hblkhd)
        487395 MiB available memory on the node where the printing process lives
------------------
     ethr =  9.98E-07,  avg # of iterations =  7.9

     negative rho (up, down):  4.019E-04 2.398E-03

     total cpu time spent up to now is       51.8 secs

     total energy              =    -583.83419161 Ry
     estimated scf accuracy    <       0.00295388 Ry

     total magnetization       =     3.16 Bohr mag/cell
     absolute magnetization    =     3.29 Bohr mag/cell

     iteration # 29     ecut=    50.00 Ry     beta= 0.40
     ParO style diagonalization

---- Real-time Memory Report at c_bands before calling an iterative solver
            73 MiB given to the printing process from OS
            32 MiB allocation reported by mallinfo(arena+hblkhd)
        487390 MiB available memory on the node where the printing process lives
------------------
     ethr =  9.98E-07,  avg # of iterations =  7.3

     negative rho (up, down):  3.359E-04 3.026E-03

     total cpu time spent up to now is       53.7 secs

     total energy              =    -583.83146513 Ry
     estimated scf accuracy    <       0.00147032 Ry

     total magnetization       =     3.51 Bohr mag/cell
     absolute magnetization    =     3.63 Bohr mag/cell

     iteration # 30     ecut=    50.00 Ry     beta= 0.40
     ParO style diagonalization

---- Real-time Memory Report at c_bands before calling an iterative solver
            73 MiB given to the printing process from OS
            32 MiB allocation reported by mallinfo(arena+hblkhd)
        487389 MiB available memory on the node where the printing process lives
------------------
     ethr =  9.98E-07,  avg # of iterations =  6.4

     negative rho (up, down):  3.284E-04 3.143E-03

     total cpu time spent up to now is       55.6 secs

     total energy              =    -583.83206643 Ry
     estimated scf accuracy    <       0.00363887 Ry

     total magnetization       =     3.75 Bohr mag/cell
     absolute magnetization    =     3.87 Bohr mag/cell

     iteration # 31     ecut=    50.00 Ry     beta= 0.40
     ParO style diagonalization

---- Real-time Memory Report at c_bands before calling an iterative solver
            73 MiB given to the printing process from OS
            32 MiB allocation reported by mallinfo(arena+hblkhd)
        487389 MiB available memory on the node where the printing process lives
------------------
     ethr =  9.98E-07,  avg # of iterations =  4.1

     negative rho (up, down):  3.764E-04 2.737E-03

     total cpu time spent up to now is       56.7 secs

     total energy              =    -583.83506680 Ry
     estimated scf accuracy    <       0.00470564 Ry

     total magnetization       =     3.79 Bohr mag/cell
     absolute magnetization    =     3.91 Bohr mag/cell

     iteration # 32     ecut=    50.00 Ry     beta= 0.40
     ParO style diagonalization

---- Real-time Memory Report at c_bands before calling an iterative solver
            73 MiB given to the printing process from OS
            32 MiB allocation reported by mallinfo(arena+hblkhd)
        487389 MiB available memory on the node where the printing process lives
------------------
     ethr =  9.98E-07,  avg # of iterations =  5.4

     negative rho (up, down):  3.320E-04 3.138E-03

     total cpu time spent up to now is       58.3 secs

     total energy              =    -583.83141927 Ry
     estimated scf accuracy    <       0.00350825 Ry

     total magnetization       =     3.64 Bohr mag/cell
     absolute magnetization    =     3.76 Bohr mag/cell

     iteration # 33     ecut=    50.00 Ry     beta= 0.40
     ParO style diagonalization

---- Real-time Memory Report at c_bands before calling an iterative solver
            73 MiB given to the printing process from OS
            32 MiB allocation reported by mallinfo(arena+hblkhd)
        487389 MiB available memory on the node where the printing process lives
------------------
     ethr =  9.98E-07,  avg # of iterations =  5.5

     negative rho (up, down):  3.675E-04 2.808E-03

     total cpu time spent up to now is       59.9 secs

     total energy              =    -583.83463866 Ry
     estimated scf accuracy    <       0.00484258 Ry

     total magnetization       =     3.78 Bohr mag/cell
     absolute magnetization    =     3.90 Bohr mag/cell

     iteration # 34     ecut=    50.00 Ry     beta= 0.40
     ParO style diagonalization

---- Real-time Memory Report at c_bands before calling an iterative solver
            73 MiB given to the printing process from OS
            32 MiB allocation reported by mallinfo(arena+hblkhd)
        487389 MiB available memory on the node where the printing process lives
------------------
     ethr =  9.98E-07,  avg # of iterations =  5.2

     negative rho (up, down):  3.713E-04 2.777E-03

     total cpu time spent up to now is       61.4 secs

     total energy              =    -583.83534705 Ry
     estimated scf accuracy    <       0.00347752 Ry

     total magnetization       =     3.66 Bohr mag/cell
     absolute magnetization    =     3.78 Bohr mag/cell

     iteration # 35     ecut=    50.00 Ry     beta= 0.40
     ParO style diagonalization

---- Real-time Memory Report at c_bands before calling an iterative solver
            73 MiB given to the printing process from OS
            32 MiB allocation reported by mallinfo(arena+hblkhd)
        487389 MiB available memory on the node where the printing process lives
------------------
     ethr =  9.98E-07,  avg # of iterations =  2.4

     negative rho (up, down):  7.009E-04 2.311E-03

     total cpu time spent up to now is       62.1 secs

     total energy              =    -583.80671257 Ry
     estimated scf accuracy    <       0.00336903 Ry

     total magnetization       =     3.66 Bohr mag/cell
     absolute magnetization    =     3.78 Bohr mag/cell

     iteration # 36     ecut=    50.00 Ry     beta= 0.40
     ParO style diagonalization

---- Real-time Memory Report at c_bands before calling an iterative solver
            73 MiB given to the printing process from OS
            32 MiB allocation reported by mallinfo(arena+hblkhd)
        487389 MiB available memory on the node where the printing process lives
------------------
     ethr =  9.98E-07,  avg # of iterations =  9.2

     negative rho (up, down):  7.548E-04 2.356E-03

     total cpu time spent up to now is       64.3 secs

     total energy              =    -583.85124270 Ry
     estimated scf accuracy    <       0.00161406 Ry

     total magnetization       =     1.98 Bohr mag/cell
     absolute magnetization    =     2.55 Bohr mag/cell

     iteration # 37     ecut=    50.00 Ry     beta= 0.40
     ParO style diagonalization

---- Real-time Memory Report at c_bands before calling an iterative solver
            73 MiB given to the printing process from OS
            32 MiB allocation reported by mallinfo(arena+hblkhd)
        487389 MiB available memory on the node where the printing process lives
------------------
     ethr =  9.98E-07,  avg # of iterations =  5.5

     negative rho (up, down):  2.849E-04 3.885E-03

     total cpu time spent up to now is       65.9 secs

     total energy              =    -583.69153583 Ry
     estimated scf accuracy    <       0.00255377 Ry

     total magnetization       =     1.62 Bohr mag/cell
     absolute magnetization    =     2.75 Bohr mag/cell

     iteration # 38     ecut=    50.00 Ry     beta= 0.40
     ParO style diagonalization

---- Real-time Memory Report at c_bands before calling an iterative solver
            73 MiB given to the printing process from OS
            32 MiB allocation reported by mallinfo(arena+hblkhd)
        487389 MiB available memory on the node where the printing process lives
------------------
     ethr =  9.98E-07,  avg # of iterations = 10.3

     negative rho (up, down):  8.844E-03 5.338E-03

     total cpu time spent up to now is       68.5 secs

     total energy              =    -582.85711864 Ry
     estimated scf accuracy    <       0.00692770 Ry

     total magnetization       =     3.97 Bohr mag/cell
     absolute magnetization    =     4.10 Bohr mag/cell

     iteration # 39     ecut=    50.00 Ry     beta= 0.40
     ParO style diagonalization

---- Real-time Memory Report at c_bands before calling an iterative solver
            73 MiB given to the printing process from OS
            32 MiB allocation reported by mallinfo(arena+hblkhd)
        487389 MiB available memory on the node where the printing process lives
------------------
     ethr =  9.98E-07,  avg # of iterations = 12.8

     negative rho (up, down):  5.012E-03 4.285E-03

     total cpu time spent up to now is       71.5 secs

     total energy              =    -583.89572722 Ry
     estimated scf accuracy    <       0.76679560 Ry

     total magnetization       =    -0.13 Bohr mag/cell
     absolute magnetization    =     7.95 Bohr mag/cell

     iteration # 40     ecut=    50.00 Ry     beta= 0.40
     ParO style diagonalization

---- Real-time Memory Report at c_bands before calling an iterative solver
            73 MiB given to the printing process from OS
            32 MiB allocation reported by mallinfo(arena+hblkhd)
        487389 MiB available memory on the node where the printing process lives
------------------
     ethr =  9.98E-07,  avg # of iterations =  9.0

     negative rho (up, down):  5.672E-03 4.573E-03

     total cpu time spent up to now is       73.6 secs

     total energy              =    -583.89978333 Ry
     estimated scf accuracy    <       0.45137359 Ry

     total magnetization       =    -0.06 Bohr mag/cell
     absolute magnetization    =     7.16 Bohr mag/cell

     iteration # 41     ecut=    50.00 Ry     beta= 0.40
     ParO style diagonalization

---- Real-time Memory Report at c_bands before calling an iterative solver
            73 MiB given to the printing process from OS
            32 MiB allocation reported by mallinfo(arena+hblkhd)
        487389 MiB available memory on the node where the printing process lives
------------------
     ethr =  9.98E-07,  avg # of iterations =  6.5

     negative rho (up, down):  5.653E-03 4.582E-03

     total cpu time spent up to now is       75.4 secs

     total energy              =    -583.90194914 Ry
     estimated scf accuracy    <       0.52770281 Ry

     total magnetization       =    -0.08 Bohr mag/cell
     absolute magnetization    =     7.39 Bohr mag/cell

     iteration # 42     ecut=    50.00 Ry     beta= 0.40
     ParO style diagonalization

---- Real-time Memory Report at c_bands before calling an iterative solver
            73 MiB given to the printing process from OS
            32 MiB allocation reported by mallinfo(arena+hblkhd)
        487389 MiB available memory on the node where the printing process lives
------------------
     ethr =  9.98E-07,  avg # of iterations =  3.0

     negative rho (up, down):  6.847E-03 4.953E-03

     total cpu time spent up to now is       76.4 secs

     total energy              =    -583.87985130 Ry
     estimated scf accuracy    <       0.53352140 Ry

     total magnetization       =    -0.08 Bohr mag/cell
     absolute magnetization    =     7.39 Bohr mag/cell

     iteration # 43     ecut=    50.00 Ry     beta= 0.40
     ParO style diagonalization

---- Real-time Memory Report at c_bands before calling an iterative solver
            73 MiB given to the printing process from OS
            32 MiB allocation reported by mallinfo(arena+hblkhd)
        487385 MiB available memory on the node where the printing process lives
------------------
     ethr =  9.98E-07,  avg # of iterations =  7.5

     negative rho (up, down):  1.029E-02 5.220E-03

     total cpu time spent up to now is       78.4 secs

     total energy              =    -583.85107427 Ry
     estimated scf accuracy    <       0.67015613 Ry

     total magnetization       =    -0.12 Bohr mag/cell
     absolute magnetization    =     7.72 Bohr mag/cell

     iteration # 44     ecut=    50.00 Ry     beta= 0.40
     ParO style diagonalization

---- Real-time Memory Report at c_bands before calling an iterative solver
            73 MiB given to the printing process from OS
            32 MiB allocation reported by mallinfo(arena+hblkhd)
        487385 MiB available memory on the node where the printing process lives
------------------
     ethr =  9.98E-07,  avg # of iterations =  7.6

     negative rho (up, down):  7.504E-03 4.940E-03

     total cpu time spent up to now is       80.4 secs

     total energy              =    -583.87455152 Ry
     estimated scf accuracy    <       0.84615016 Ry

     total magnetization       =    -0.16 Bohr mag/cell
     absolute magnetization    =     8.01 Bohr mag/cell

     iteration # 45     ecut=    50.00 Ry     beta= 0.40
     ParO style diagonalization

---- Real-time Memory Report at c_bands before calling an iterative solver
            73 MiB given to the printing process from OS
            32 MiB allocation reported by mallinfo(arena+hblkhd)
        487385 MiB available memory on the node where the printing process lives
------------------
     ethr =  9.98E-07,  avg # of iterations =  6.7

     negative rho (up, down):  6.335E-03 4.650E-03

     total cpu time spent up to now is       82.3 secs

     total energy              =    -583.89064945 Ry
     estimated scf accuracy    <       0.74548938 Ry

     total magnetization       =    -0.14 Bohr mag/cell
     absolute magnetization    =     7.81 Bohr mag/cell

     iteration # 46     ecut=    50.00 Ry     beta= 0.40
     ParO style diagonalization

---- Real-time Memory Report at c_bands before calling an iterative solver
            73 MiB given to the printing process from OS
            32 MiB allocation reported by mallinfo(arena+hblkhd)
        487385 MiB available memory on the node where the printing process lives
------------------
     ethr =  9.98E-07,  avg # of iterations =  7.0

     negative rho (up, down):  2.237E-04 6.476E-03

     total cpu time spent up to now is       84.2 secs

     total energy              =    -582.69860801 Ry
     estimated scf accuracy    <       0.63199092 Ry

     total magnetization       =    -0.11 Bohr mag/cell
     absolute magnetization    =     7.57 Bohr mag/cell

     iteration # 47     ecut=    50.00 Ry     beta= 0.40
     ParO style diagonalization

---- Real-time Memory Report at c_bands before calling an iterative solver
            73 MiB given to the printing process from OS
            32 MiB allocation reported by mallinfo(arena+hblkhd)
        487385 MiB available memory on the node where the printing process lives
------------------
     ethr =  9.98E-07,  avg # of iterations = 13.1

     negative rho (up, down):  4.780E-02 7.000E-03

     total cpu time spent up to now is       87.2 secs

     total energy              =    -582.21856280 Ry
     estimated scf accuracy    <       0.05855052 Ry

     total magnetization       =     4.17 Bohr mag/cell
     absolute magnetization    =     4.34 Bohr mag/cell

     iteration # 48     ecut=    50.00 Ry     beta= 0.40
     ParO style diagonalization

---- Real-time Memory Report at c_bands before calling an iterative solver
            73 MiB given to the printing process from OS
            32 MiB allocation reported by mallinfo(arena+hblkhd)
        487385 MiB available memory on the node where the printing process lives
------------------
     ethr =  9.98E-07,  avg # of iterations = 13.5

     negative rho (up, down):  2.548E-01 1.088E-02

     total cpu time spent up to now is       90.3 secs

     total energy              =    -583.26735942 Ry
     estimated scf accuracy    <       0.33172345 Ry

     total magnetization       =    -0.08 Bohr mag/cell
     absolute magnetization    =     8.35 Bohr mag/cell

     iteration # 49     ecut=    50.00 Ry     beta= 0.40
     ParO style diagonalization

---- Real-time Memory Report at c_bands before calling an iterative solver
            73 MiB given to the printing process from OS
            32 MiB allocation reported by mallinfo(arena+hblkhd)
        487385 MiB available memory on the node where the printing process lives
------------------
     ethr =  9.98E-07,  avg # of iterations = 10.8

     negative rho (up, down):  4.315E-02 7.156E-03

     total cpu time spent up to now is       92.9 secs

     total energy              =    -583.69941949 Ry
     estimated scf accuracy    <       0.66686855 Ry

     total magnetization       =    -0.15 Bohr mag/cell
     absolute magnetization    =     9.28 Bohr mag/cell

     iteration # 50     ecut=    50.00 Ry     beta= 0.40
     ParO style diagonalization

---- Real-time Memory Report at c_bands before calling an iterative solver
            73 MiB given to the printing process from OS
            32 MiB allocation reported by mallinfo(arena+hblkhd)
        487385 MiB available memory on the node where the printing process lives
------------------
     ethr =  9.98E-07,  avg # of iterations = 10.8

     negative rho (up, down):  1.525E-02 5.885E-03

     total cpu time spent up to now is       95.4 secs

     total energy              =    -583.82046861 Ry
     estimated scf accuracy    <       0.25544506 Ry

     total magnetization       =    -0.05 Bohr mag/cell
     absolute magnetization    =     8.26 Bohr mag/cell

     iteration # 51     ecut=    50.00 Ry     beta= 0.40
     ParO style diagonalization

---- Real-time Memory Report at c_bands before calling an iterative solver
            73 MiB given to the printing process from OS
            32 MiB allocation reported by mallinfo(arena+hblkhd)
        487385 MiB available memory on the node where the printing process lives
------------------
     ethr =  9.98E-07,  avg # of iterations =  9.2

     negative rho (up, down):  2.410E-02 6.396E-03

     total cpu time spent up to now is       97.6 secs

     total energy              =    -583.79695985 Ry
     estimated scf accuracy    <       0.07705155 Ry

     total magnetization       =    -0.02 Bohr mag/cell
     absolute magnetization    =     7.52 Bohr mag/cell

     iteration # 52     ecut=    50.00 Ry     beta= 0.40
     ParO style diagonalization

---- Real-time Memory Report at c_bands before calling an iterative solver
            73 MiB given to the printing process from OS
            32 MiB allocation reported by mallinfo(arena+hblkhd)
        487385 MiB available memory on the node where the printing process lives
------------------
     ethr =  9.98E-07,  avg # of iterations =  7.6

     negative rho (up, down):  1.330E-02 5.881E-03

     total cpu time spent up to now is       99.6 secs

     total energy              =    -583.83353898 Ry
     estimated scf accuracy    <       0.10892196 Ry

     total magnetization       =    -0.02 Bohr mag/cell
     absolute magnetization    =     7.77 Bohr mag/cell

     iteration # 53     ecut=    50.00 Ry     beta= 0.40
     ParO style diagonalization

---- Real-time Memory Report at c_bands before calling an iterative solver
            73 MiB given to the printing process from OS
            32 MiB allocation reported by mallinfo(arena+hblkhd)
        487385 MiB available memory on the node where the printing process lives
------------------
     ethr =  9.98E-07,  avg # of iterations =  7.7

     negative rho (up, down):  1.667E-03 3.004E-03

     total cpu time spent up to now is      101.6 secs

     total energy              =    -583.83750469 Ry
     estimated scf accuracy    <       0.08003618 Ry

     total magnetization       =    -0.02 Bohr mag/cell
     absolute magnetization    =     7.52 Bohr mag/cell

     iteration # 54     ecut=    50.00 Ry     beta= 0.40
     ParO style diagonalization

---- Real-time Memory Report at c_bands before calling an iterative solver
            73 MiB given to the printing process from OS
            32 MiB allocation reported by mallinfo(arena+hblkhd)
        487385 MiB available memory on the node where the printing process lives
------------------
     ethr =  9.98E-07,  avg # of iterations = 10.6

     negative rho (up, down):  2.738E-03 3.390E-03

     total cpu time spent up to now is      104.2 secs

     total energy              =    -583.88865471 Ry
     estimated scf accuracy    <       0.01453420 Ry

     total magnetization       =     0.07 Bohr mag/cell
     absolute magnetization    =     5.44 Bohr mag/cell

     iteration # 55     ecut=    50.00 Ry     beta= 0.40
     ParO style diagonalization

---- Real-time Memory Report at c_bands before calling an iterative solver
            73 MiB given to the printing process from OS
            32 MiB allocation reported by mallinfo(arena+hblkhd)
        487382 MiB available memory on the node where the printing process lives
------------------
     ethr =  9.98E-07,  avg # of iterations =  7.5
     Minimization algorithm failed to find Fermi energy: reverting to bisection
     Possible cause: smearing is larger than the electronic band-gap.

     negative rho (up, down):  1.791E-03 3.029E-03

     total cpu time spent up to now is      106.2 secs

     total energy              =    -583.88951578 Ry
     estimated scf accuracy    <       0.00529982 Ry

     total magnetization       =    -0.01 Bohr mag/cell
     absolute magnetization    =     6.06 Bohr mag/cell

     iteration # 56     ecut=    50.00 Ry     beta= 0.40
     ParO style diagonalization

---- Real-time Memory Report at c_bands before calling an iterative solver
            73 MiB given to the printing process from OS
            32 MiB allocation reported by mallinfo(arena+hblkhd)
        487382 MiB available memory on the node where the printing process lives
------------------
     ethr =  9.98E-07,  avg # of iterations =  7.2

     negative rho (up, down):  2.271E-03 3.282E-03

     total cpu time spent up to now is      108.2 secs

     total energy              =    -583.89315959 Ry
     estimated scf accuracy    <       0.00446653 Ry

     total magnetization       =     0.08 Bohr mag/cell
     absolute magnetization    =     5.53 Bohr mag/cell

     iteration # 57     ecut=    50.00 Ry     beta= 0.40
     ParO style diagonalization

---- Real-time Memory Report at c_bands before calling an iterative solver
            73 MiB given to the printing process from OS
            32 MiB allocation reported by mallinfo(arena+hblkhd)
        487382 MiB available memory on the node where the printing process lives
------------------
     ethr =  9.98E-07,  avg # of iterations =  6.0
     Minimization algorithm failed to find Fermi energy: reverting to bisection
     Possible cause: smearing is larger than the electronic band-gap.

     negative rho (up, down):  2.276E-03 3.346E-03

     total cpu time spent up to now is      109.9 secs

     total energy              =    -583.89445596 Ry
     estimated scf accuracy    <       0.00059436 Ry

     total magnetization       =     0.03 Bohr mag/cell
     absolute magnetization    =     5.86 Bohr mag/cell

     iteration # 58     ecut=    50.00 Ry     beta= 0.40
     ParO style diagonalization

---- Real-time Memory Report at c_bands before calling an iterative solver
            73 MiB given to the printing process from OS
            32 MiB allocation reported by mallinfo(arena+hblkhd)
        487381 MiB available memory on the node where the printing process lives
------------------
     ethr =  9.98E-07,  avg # of iterations =  4.8
     Minimization algorithm failed to find Fermi energy: reverting to bisection
     Possible cause: smearing is larger than the electronic band-gap.

     negative rho (up, down):  2.337E-03 3.427E-03

     total cpu time spent up to now is      111.1 secs

     total energy              =    -583.89452404 Ry
     estimated scf accuracy    <       0.00005698 Ry

     total magnetization       =     0.04 Bohr mag/cell
     absolute magnetization    =     5.88 Bohr mag/cell

     iteration # 59     ecut=    50.00 Ry     beta= 0.40
     ParO style diagonalization

---- Real-time Memory Report at c_bands before calling an iterative solver
            73 MiB given to the printing process from OS
            32 MiB allocation reported by mallinfo(arena+hblkhd)
        487381 MiB available memory on the node where the printing process lives
------------------
     ethr =  1.10E-07,  avg # of iterations =  5.3
     Minimization algorithm failed to find Fermi energy: reverting to bisection
     Possible cause: smearing is larger than the electronic band-gap.

     negative rho (up, down):  2.361E-03 3.457E-03

     total cpu time spent up to now is      112.5 secs

     total energy              =    -583.89455284 Ry
     estimated scf accuracy    <       0.00000566 Ry

     total magnetization       =     0.04 Bohr mag/cell
     absolute magnetization    =     5.93 Bohr mag/cell

     iteration # 60     ecut=    50.00 Ry     beta= 0.40
     ParO style diagonalization

---- Real-time Memory Report at c_bands before calling an iterative solver
            73 MiB given to the printing process from OS
            32 MiB allocation reported by mallinfo(arena+hblkhd)
        487381 MiB available memory on the node where the printing process lives
------------------
     ethr =  1.09E-08,  avg # of iterations =  6.1
     Minimization algorithm failed to find Fermi energy: reverting to bisection
     Possible cause: smearing is larger than the electronic band-gap.

     negative rho (up, down):  2.355E-03 3.452E-03

     total cpu time spent up to now is      114.3 secs

     total energy              =    -583.89455877 Ry
     estimated scf accuracy    <       0.00000230 Ry

     total magnetization       =     0.04 Bohr mag/cell
     absolute magnetization    =     5.95 Bohr mag/cell

     iteration # 61     ecut=    50.00 Ry     beta= 0.40
     ParO style diagonalization

---- Real-time Memory Report at c_bands before calling an iterative solver
            73 MiB given to the printing process from OS
            32 MiB allocation reported by mallinfo(arena+hblkhd)
        487381 MiB available memory on the node where the printing process lives
------------------
     ethr =  4.42E-09,  avg # of iterations =  3.9
     Minimization algorithm failed to find Fermi energy: reverting to bisection
     Possible cause: smearing is larger than the electronic band-gap.

     negative rho (up, down):  2.352E-03 3.449E-03

     total cpu time spent up to now is      115.5 secs

     total energy              =    -583.89455906 Ry
     estimated scf accuracy    <       0.00000013 Ry

     total magnetization       =     0.04 Bohr mag/cell
     absolute magnetization    =     5.94 Bohr mag/cell

     iteration # 62     ecut=    50.00 Ry     beta= 0.40
     ParO style diagonalization

---- Real-time Memory Report at c_bands before calling an iterative solver
            73 MiB given to the printing process from OS
            32 MiB allocation reported by mallinfo(arena+hblkhd)
        487381 MiB available memory on the node where the printing process lives
------------------
     ethr =  2.42E-10,  avg # of iterations =  5.5
     Minimization algorithm failed to find Fermi energy: reverting to bisection
     Possible cause: smearing is larger than the electronic band-gap.

     negative rho (up, down):  2.354E-03 3.452E-03

     total cpu time spent up to now is      117.1 secs

     total energy              =    -583.89455913 Ry
     estimated scf accuracy    <       0.00000005 Ry

     total magnetization       =     0.04 Bohr mag/cell
     absolute magnetization    =     5.94 Bohr mag/cell

     iteration # 63     ecut=    50.00 Ry     beta= 0.40
     ParO style diagonalization

---- Real-time Memory Report at c_bands before calling an iterative solver
            73 MiB given to the printing process from OS
            32 MiB allocation reported by mallinfo(arena+hblkhd)
        487381 MiB available memory on the node where the printing process lives
------------------
     ethr =  8.99E-11,  avg # of iterations =  5.6
     Minimization algorithm failed to find Fermi energy: reverting to bisection
     Possible cause: smearing is larger than the electronic band-gap.

     negative rho (up, down):  2.354E-03 3.452E-03

     total cpu time spent up to now is      118.8 secs

     total energy              =    -583.89455917 Ry
     estimated scf accuracy    <          3.2E-09 Ry

     total magnetization       =     0.04 Bohr mag/cell
     absolute magnetization    =     5.94 Bohr mag/cell

     iteration # 64     ecut=    50.00 Ry     beta= 0.40
     ParO style diagonalization

---- Real-time Memory Report at c_bands before calling an iterative solver
            73 MiB given to the printing process from OS
            32 MiB allocation reported by mallinfo(arena+hblkhd)
        487381 MiB available memory on the node where the printing process lives
------------------
     ethr =  6.24E-12,  avg # of iterations =  5.4
     Minimization algorithm failed to find Fermi energy: reverting to bisection
     Possible cause: smearing is larger than the electronic band-gap.

     negative rho (up, down):  2.354E-03 3.452E-03

[...]
     1.0000   1.0000   1.0000   1.0000   1.0000   1.0000   1.0004   1.0016
     1.0319   0.5188   0.0056   0.0000   0.0000   0.0000   0.0000   0.0000
     0.0000   0.0000   0.0000

          k =-0.1179-0.5893 0.7071 (  2447 PWs)   bands (ev):

   -53.8165 -48.7392 -40.7208 -25.3320 -25.3315 -25.3296 -22.7383 -22.7381
   -22.7329 -17.1284 -17.1141 -17.1133   1.6167   1.6826   1.6873   1.7039
     1.7483   9.1258  11.3811  13.2263  13.6829  14.2662  14.4885  14.6422
    14.9616  15.1073  16.2910  16.3675  17.0156  17.1384  17.5545  17.9200
    18.2728  18.4221  18.7016

     occupation numbers 
     1.0000   1.0000   1.0000   1.0000   1.0000   1.0000   1.0000   1.0000
     1.0000   1.0000   1.0000   1.0000   1.0000   1.0000   1.0000   1.0000
     1.0000   1.0000   1.0000   1.0000   1.0000   1.0000   1.0000   1.0002
     1.0254   1.0714   0.0000   0.0000   0.0000   0.0000   0.0000   0.0000
     0.0000   0.0000   0.0000

          k =-0.0589-0.5303 0.6482 (  2444 PWs)   bands (ev):

   -53.8165 -48.7392 -40.7208 -25.3324 -25.3314 -25.3294 -22.7391 -22.7382
   -22.7323 -17.1274 -17.1152 -17.1132   1.6219   1.6773   1.6878   1.7056
     1.7499   9.3514  11.4703  12.7918  13.5250  14.1680  14.5766  14.8257
    14.8978  15.1122  16.3034  16.3562  16.9545  17.3176  17.5242  18.0230
    18.1800  18.3799  18.4775

     occupation numbers 
     1.0000   1.0000   1.0000   1.0000   1.0000   1.0000   1.0000   1.0000
     1.0000   1.0000   1.0000   1.0000   1.0000   1.0000   1.0000   1.0000
     1.0000   1.0000   1.0000   1.0000   1.0000   1.0000   1.0001   1.0051
     1.0128   1.0728   0.0000   0.0000   0.0000   0.0000   0.0000   0.0000
     0.0000   0.0000   0.0000

          k =-0.0000-0.4714 0.5893 (  2448 PWs)   bands (ev):

   -53.8165 -48.7392 -40.7208 -25.3326 -25.3312 -25.3292 -22.7397 -22.7382
   -22.7321 -17.1254 -17.1169 -17.1136   1.6323   1.6692   1.6861   1.7107
     1.7494   9.4187  11.7171  12.2746  13.5196  13.9762  14.6212  14.8475
    14.9580  15.2132  16.2733  16.3549  16.9031  17.4957  17.5219  18.0872
    18.2943  18.4168  18.4241

     occupation numbers 
     1.0000   1.0000   1.0000   1.0000   1.0000   1.0000   1.0000   1.0000
     1.0000   1.0000   1.0000   1.0000   1.0000   1.0000   1.0000   1.0000
     1.0000   1.0000   1.0000   1.0000   1.0000   1.0000   1.0002   1.0068
     1.0245   1.0783   0.0000   0.0000   0.0000   0.0000   0.0000   0.0000
     0.0000   0.0000   0.0000

          k =-0.7071 0.1179-0.0000 (  2436 PWs)   bands (ev):

   -53.8165 -48.7392 -40.7209 -25.3322 -25.3316 -25.3297 -22.7384 -22.7384
   -22.7325 -17.1290 -17.1139 -17.1129   1.6134   1.6841   1.6891   1.7003
     1.7511   9.3720  11.3323  13.1400  13.4956  14.3957  14.5083  14.8698
    14.8714  14.9291  16.3472  16.3544  16.9629  17.1179  17.4741  17.9335
    18.2154  18.3672  18.4622

     occupation numbers 
     1.0000   1.0000   1.0000   1.0000   1.0000   1.0000   1.0000   1.0000
     1.0000   1.0000   1.0000   1.0000   1.0000   1.0000   1.0000   1.0000
     1.0000   1.0000   1.0000   1.0000   1.0000   1.0000   1.0000   1.0091
     1.0093   1.0182   0.0000   0.0000   0.0000   0.0000   0.0000   0.0000
     0.0000   0.0000   0.0000

          k =-0.2357-0.4714 0.7071 (  2433 PWs)   bands (ev):

   -53.8165 -48.7393 -40.7206 -25.3320 -25.3308 -25.3292 -22.7389 -22.7376
   -22.7332 -17.1247 -17.1167 -17.1147   1.6375   1.6686   1.6807   1.7185
     1.7421   8.7785  11.6612  12.9422  13.4261  14.1069  14.6041  14.7367
    14.8318  15.4359  16.0627  16.5025  16.8713  17.5233  17.7853  17.9902
    18.3736  18.8761  19.1546

     occupation numbers 
     1.0000   1.0000   1.0000   1.0000   1.0000   1.0000   1.0000   1.0000
     1.0000   1.0000   1.0000   1.0000   1.0000   1.0000   1.0000   1.0000
     1.0000   1.0000   1.0000   1.0000   1.0000   1.0000   1.0001   1.0013
     1.0055   0.7388   0.0008   0.0000   0.0000   0.0000   0.0000   0.0000
     0.0000   0.0000   0.0000

          k =-0.1768-0.4125 0.6482 (  2440 PWs)   bands (ev):

   -53.8165 -48.7392 -40.7207 -25.3323 -25.3309 -25.3291 -22.7396 -22.7380
   -22.7326 -17.1239 -17.1180 -17.1142   1.6428   1.6614   1.6832   1.7181
     1.7457   9.1608  11.6042  12.5354  13.4276  14.0164  14.6533  14.7316
    14.9272  15.4254  16.0934  16.4557  16.8129  17.5425  17.8043  17.9737
    18.2755  18.5343  18.9129

     occupation numbers 
     1.0000   1.0000   1.0000   1.0000   1.0000   1.0000   1.0000   1.0000
     1.0000   1.0000   1.0000   1.0000   1.0000   1.0000   1.0000   1.0000
     1.0000   1.0000   1.0000   1.0000   1.0000   1.0000   1.0003   1.0012
     1.0178   0.7662   0.0004   0.0000   0.0000   0.0000   0.0000   0.0000
     0.0000   0.0000   0.0000

          k =-0.1179-0.3536 0.5893 (  2442 PWs)   bands (ev):

   -53.8165 -48.7392 -40.7208 -25.3325 -25.3309 -25.3291 -22.7398 -22.7381
   -22.7324 -17.1233 -17.1188 -17.1141   1.6487   1.6549   1.6841   1.7179
     1.7471   9.3284  11.5860  12.3529  13.4342  13.9815  14.6356  14.7226
    15.0190  15.3779  16.1838  16.4013  16.7913  17.5644  17.8408  17.9536
    18.1574  18.4298  18.8335

     occupation numbers 
     1.0000   1.0000   1.0000   1.0000   1.0000   1.0000   1.0000   1.0000
     1.0000   1.0000   1.0000   1.0000   1.0000   1.0000   1.0000   1.0000
     1.0000   1.0000   1.0000   1.0000   1.0000   1.0000   1.0002   1.0010
     1.0419   0.8795   0.0001   0.0000   0.0000   0.0000   0.0000   0.0000
     0.0000   0.0000   0.0000

          k =-0.1179-0.4714 0.7071 (  2436 PWs)   bands (ev):

   -53.8165 -48.7392 -40.7208 -25.3324 -25.3312 -25.3292 -22.7392 -22.7384
   -22.7323 -17.1258 -17.1167 -17.1135   1.6312   1.6693   1.6868   1.7109
     1.7481   9.2559  11.5720  12.6903  13.4357  14.1153  14.5816  14.8128
    14.8327  15.2937  16.2122  16.4143  16.8973  17.4294  17.6922  18.0036
    18.2037  18.4406  18.5520

     occupation numbers 
     1.0000   1.0000   1.0000   1.0000   1.0000   1.0000   1.0000   1.0000
     1.0000   1.0000   1.0000   1.0000   1.0000   1.0000   1.0000   1.0000
     1.0000   1.0000   1.0000   1.0000   1.0000   1.0000   1.0001   1.0042
     1.0056   1.0214   0.0000   0.0000   0.0000   0.0000   0.0000   0.0000
     0.0000   0.0000   0.0000

          k =-0.0589-0.4125 0.6482 (  2446 PWs)   bands (ev):

   -53.8165 -48.7392 -40.7208 -25.3327 -25.3311 -25.3291 -22.7396 -22.7386
   -22.7319 -17.1243 -17.1183 -17.1134   1.6398   1.6602   1.6876   1.7118
     1.7491   9.4189  11.7821  12.2883  13.3219  14.0886  14.5933  14.7758
    14.9043  15.3138  16.2802  16.3911  16.8543  17.5360  17.7307  17.9940
    18.1255  18.3656  18.3947

     occupation numbers 
     1.0000   1.0000   1.0000   1.0000   1.0000   1.0000   1.0000   1.0000
     1.0000   1.0000   1.0000   1.0000   1.0000   1.0000   1.0000   1.0000
     1.0000   1.0000   1.0000   1.0000   1.0000   1.0000   1.0001   1.0024
     1.0138   0.9954   0.0000   0.0000   0.0000   0.0000   0.0000   0.0000
     0.0000   0.0000   0.0000

          k = 0.0000-0.3536 0.5893 (  2448 PWs)   bands (ev):

   -53.8165 -48.7392 -40.7208 -25.3327 -25.3310 -25.3290 -22.7398 -22.7384
   -22.7320 -17.1233 -17.1190 -17.1137   1.6502   1.6512   1.6863   1.7144
     1.7482   9.3795  11.8625  12.1578  13.3495  14.0173  14.6530  14.7424
    14.9227  15.3723  16.2043  16.4207  16.8342  17.5392  17.7714  17.9735
    18.2425  18.3958  18.5057

     occupation numbers 
     1.0000   1.0000   1.0000   1.0000   1.0000   1.0000   1.0000   1.0000
     1.0000   1.0000   1.0000   1.0000   1.0000   1.0000   1.0000   1.0000
     1.0000   1.0000   1.0000   1.0000   1.0000   1.0000   1.0003   1.0014
     1.0169   0.8915   0.0000   0.0000   0.0000   0.0000   0.0000   0.0000
     0.0000   0.0000   0.0000

          k =-0.7071 0.2357 0.0000 (  2436 PWs)   bands (ev):

   -53.8165 -48.7392 -40.7209 -25.3326 -25.3313 -25.3292 -22.7390 -22.7389
   -22.7319 -17.1261 -17.1167 -17.1131   1.6288   1.6696   1.6889   1.7074
     1.7503   9.4364  11.6188  12.5997  13.2906  14.2343  14.5114  14.8306
    14.8743  15.2010  16.3479  16.3543  16.8933  17.5281  17.5296  18.0185
    18.1123  18.2791  18.3705

     occupation numbers 
     1.0000   1.0000   1.0000   1.0000   1.0000   1.0000   1.0000   1.0000
     1.0000   1.0000   1.0000   1.0000   1.0000   1.0000   1.0000   1.0000
     1.0000   1.0000   1.0000   1.0000   1.0000   1.0000   1.0000   1.0054
     1.0096   1.0812   0.0000   0.0000   0.0000   0.0000   0.0000   0.0000
     0.0000   0.0000   0.0000

          k =-0.7071 0.3536 0.0000 (  2468 PWs)   bands (ev):

   -53.8165 -48.7392 -40.7208 -25.3328 -25.3311 -25.3291 -22.7393 -22.7392
   -22.7317 -17.1236 -17.1192 -17.1132   1.6489   1.6499   1.6888   1.7110
     1.7497   9.4706  12.0599  12.0601  13.1767  14.1793  14.5450  14.7469
    14.8858  15.3320  16.3489  16.3745  16.8452  17.6064  17.8403  17.9352
    17.9825  18.2050  18.3710

     occupation numbers 
     1.0000   1.0000   1.0000   1.0000   1.0000   1.0000   1.0000   1.0000
     1.0000   1.0000   1.0000   1.0000   1.0000   1.0000   1.0000   1.0000
     1.0000   1.0000   1.0000   1.0000   1.0000   1.0000   1.0000   1.0015
     1.0111   0.9674   0.0000   0.0000   0.0000   0.0000   0.0000   0.0000
     0.0000   0.0000   0.0000

     the Fermi energy is    15.5611 ev

!    total energy              =    -583.89455917 Ry
     estimated scf accuracy    <          2.8E-10 Ry
     smearing contrib. (-TS)   =       0.00508270 Ry
     internal energy E=F+TS    =    -583.89964188 Ry

     The total energy is F=E-TS. E is the sum of the following terms:
     one-electron contribution =    -181.43586358 Ry
     hartree contribution      =     122.57577868 Ry
     xc contribution           =    -107.14140405 Ry
     ewald contribution        =    -417.89815294 Ry

     total magnetization       =     0.04 Bohr mag/cell
     absolute magnetization    =     5.94 Bohr mag/cell

     convergence has been achieved in  64 iterations

     negative rho (up, down):  2.354E-03 3.452E-03

     Forces acting on atoms (cartesian axes, Ry/au):

     atom    1 type  3   force =     0.00000000    0.00000000   -0.00000000
     atom    2 type  4   force =     0.00000000   -0.00000000   -0.00000000
     atom    3 type  1   force =    -0.00000000   -0.00000000    0.00000000
     atom    4 type  2   force =     0.00000000    0.00000000   -0.00000000
     The non-local contrib.  to forces
     atom    1 type  3   force =     0.00000000    0.00000000    0.00000000
     atom    2 type  4   force =    -0.00000000   -0.00000000    0.00000000
     atom    3 type  1   force =     0.00000000    0.00000000   -0.00000000
     atom    4 type  2   force =     0.00000000    0.00000000    0.00000000
     The ionic contribution  to forces
     atom    1 type  3   force =     0.00000000   -0.00000000    0.00000000
     atom    2 type  4   force =     0.00000000    0.00000000    0.00000000
     atom    3 type  1   force =     0.00000000    0.00000000   -0.00000000
     atom    4 type  2   force =     0.00000000    0.00000000    0.00000000
     The local contribution  to forces
     atom    1 type  3   force =    -0.00000000   -0.00000000   -0.00000000
     atom    2 type  4   force =    -0.00000000   -0.00000000    0.00000000
     atom    3 type  1   force =     0.00000000   -0.00000000    0.00000000
     atom    4 type  2   force =    -0.00000000   -0.00000000   -0.00000000
     The core correction contribution to forces
     atom    1 type  3   force =    -0.00000000    0.00000000   -0.00000000
     atom    2 type  4   force =     0.00000000    0.00000000   -0.00000000
     atom    3 type  1   force =     0.00000000   -0.00000000    0.00000000
     atom    4 type  2   force =    -0.00000000   -0.00000000   -0.00000000
     The Hubbard contrib.    to forces
     atom    1 type  3   force =     0.00000000    0.00000000    0.00000000
     atom    2 type  4   force =     0.00000000    0.00000000    0.00000000
     atom    3 type  1   force =     0.00000000    0.00000000    0.00000000
     atom    4 type  2   force =     0.00000000    0.00000000    0.00000000
     The SCF correction term to forces
     atom    1 type  3   force =     0.00000000    0.00000000   -0.00000000
     atom    2 type  4   force =    -0.00000000   -0.00000000   -0.00000000
     atom    3 type  1   force =     0.00000000    0.00000000   -0.00000000
     atom    4 type  2   force =    -0.00000000   -0.00000000   -0.00000000

     Total force =     0.000000     Total SCF correction =     0.000000


     Computing stress (Cartesian axis) and pressure


     negative rho (up, down):  2.354E-03 3.452E-03
          total   stress  (Ry/bohr**3)                   (kbar)     P=       55.70
   0.00037867  -0.00000000  -0.00000000           55.70       -0.00       -0.00
  -0.00000000   0.00037867  -0.00000000           -0.00       55.70       -0.00
   0.00000000  -0.00000000   0.00037867            0.00       -0.00       55.70

     kinetic stress (kbar)  31017.59     -0.00      0.00
                               -0.00  31017.59      0.00
                                0.00      0.00  31017.59

     local   stress (kbar)   7008.83     -0.00     -0.00
                               -0.00   7008.83     -0.00
                               -0.00     -0.00   7008.83

     nonloc. stress (kbar)   6690.36     -0.00     -0.00
                               -0.00   6690.36      0.00
                                0.00      0.00   6690.36

     hartree stress (kbar)  14662.93      0.00     -0.00
                                0.00  14662.93     -0.00
                               -0.00     -0.00  14662.93

     exc-cor stress (kbar)   4243.24      0.00     -0.00
                                0.00   4243.24     -0.00
                               -0.00     -0.00   4243.24

     corecor stress (kbar) -13576.86     -0.00     -0.00
                               -0.00 -13576.86     -0.00
                               -0.00     -0.00 -13576.86

     ewald   stress (kbar) -49990.39     -0.00     -0.00
                               -0.00 -49990.39      0.00
                               -0.00      0.00 -49990.39

     hubbard stress (kbar)      0.00      0.00      0.00
                                0.00      0.00      0.00
                                0.00      0.00      0.00

     DFT-D   stress (kbar)      0.00      0.00      0.00
                                0.00      0.00      0.00
                                0.00      0.00      0.00

     XDM     stress (kbar)      0.00      0.00      0.00
                                0.00      0.00      0.00
                                0.00      0.00      0.00

     dft-nl  stress (kbar)      0.00      0.00      0.00
                                0.00      0.00      0.00
                                0.00      0.00      0.00

     TS-vdW  stress (kbar)      0.00      0.00      0.00
                                0.00      0.00      0.00
                                0.00      0.00      0.00

     MDB     stress (kbar)      0.00      0.00      0.00
                                0.00      0.00      0.00
                                0.00      0.00      0.00

     3D-RISM stress (kbar)      0.00      0.00      0.00
                                0.00      0.00      0.00
                                0.00      0.00      0.00


     Writing all to output data dir ./out/aiida.save/ :
     XML data file, charge density, pseudopotentials, collected wavefunctions

     init_run     :      0.96s CPU      1.04s WALL (       1 calls)
     electrons    :    113.48s CPU    118.72s WALL (       1 calls)
     forces       :      0.09s CPU      0.10s WALL (       1 calls)
     stress       :      0.51s CPU      0.51s WALL (       1 calls)

     Called by init_run:
     wfcinit      :      0.21s CPU      0.23s WALL (       1 calls)
     wfcinit:atom :      0.00s CPU      0.00s WALL (      21 calls)
     wfcinit:wfcr :      0.19s CPU      0.20s WALL (      21 calls)
     potinit      :      0.33s CPU      0.38s WALL (       1 calls)
     hinit0       :      0.36s CPU      0.38s WALL (       1 calls)

     Called by electrons:
     c_bands      :    105.22s CPU    110.07s WALL (      64 calls)
     sum_band     :      5.79s CPU      6.08s WALL (      64 calls)
     v_of_rho     :      1.35s CPU      1.40s WALL (      65 calls)
     v_h          :      0.03s CPU      0.04s WALL (      65 calls)
     v_xc         :      1.36s CPU      1.40s WALL (      67 calls)
     newd         :      0.68s CPU      0.69s WALL (      65 calls)
     mix_rho      :      0.19s CPU      0.20s WALL (      64 calls)

     Called by c_bands:
     init_us_2    :      0.40s CPU      0.41s WALL (    2751 calls)
     init_us_2:cp :      0.40s CPU      0.41s WALL (    2751 calls)
     paro_k       :     76.72s CPU     81.56s WALL (    1344 calls)

     Called by sum_band:
     sum_band:wei :      0.11s CPU      0.11s WALL (      64 calls)
     sum_band:loo :      4.22s CPU      4.47s WALL (      64 calls)
     sum_band:buf :      0.04s CPU      0.04s WALL (    1344 calls)
     sum_band:ini :      0.19s CPU      0.19s WALL (    1344 calls)
     sum_band:cal :      0.39s CPU      0.41s WALL (    1344 calls)
     sum_band:bec :      0.03s CPU      0.03s WALL (    1344 calls)
     addusdens    :      1.06s CPU      1.08s WALL (      64 calls)
                                        0.00s GPU  (      64 calls)
     addusd:skk   :      0.00s CPU      0.00s WALL (     256 calls)
                                        0.00s GPU  (     256 calls)

     Called by paro_*:
     paro:init    :      8.24s CPU      8.68s WALL (    1344 calls)
     paro:pack    :      0.19s CPU      0.20s WALL (    5472 calls)
     paro:mp_bar  :      0.01s CPU      0.01s WALL (    5472 calls)
     paro:mp_sum  :      0.15s CPU      0.16s WALL (    5472 calls)
     pcg          :     52.13s CPU     55.85s WALL (    5472 calls)
     pcg:hs_1psi  :     44.72s CPU     47.46s WALL (   23265 calls)
     pcg:ortho    :      3.62s CPU      3.76s WALL (   28737 calls)
     pcg:move1    :      0.24s CPU      0.26s WALL (   23265 calls)
     pcg:move2    :      0.10s CPU      0.12s WALL (   18385 calls)
     rotHSw       :     15.95s CPU     16.59s WALL (    6816 calls)
     rotHSw:hc    :      3.79s CPU      4.08s WALL (    6816 calls)
     rotHSw:diag  :      6.97s CPU      7.15s WALL (    6816 calls)
     rotHSw:evc   :      5.16s CPU      5.31s WALL (    6816 calls)
     rotHSw:hc:s1 :      0.39s CPU      0.48s WALL (    6816 calls)
     rotHSw:hc:s2 :      0.02s CPU      0.02s WALL (    6816 calls)
     rotHSw:hc:s3 :      0.39s CPU      0.47s WALL (    6816 calls)
     rotHSw:hc:s4 :      0.02s CPU      0.02s WALL (    6816 calls)
     rotHSw:ev:s5 :      0.14s CPU      0.14s WALL (    6816 calls)
     rotHSw:ev:s6 :      0.12s CPU      0.12s WALL (    6816 calls)
     rotHSw:ev:s7 :      0.11s CPU      0.11s WALL (    6816 calls)
     h_psi        :     50.33s CPU     53.34s WALL (   24630 calls)
     s_psi        :      2.58s CPU      2.69s WALL (   24630 calls)
     g_psi        :      0.54s CPU      0.72s WALL (  329924 calls)

     Called by h_psi:
     h_psi:calbec :      3.20s CPU      3.40s WALL (   24630 calls)
     vloc_psi     :     44.27s CPU     46.89s WALL (   24630 calls)
     add_vuspsi   :      2.63s CPU      2.74s WALL (   24630 calls)

     General routines
     calbec       :      3.57s CPU      3.78s WALL (   26079 calls)
     fft          :      0.71s CPU      0.77s WALL (    1663 calls)
     ffts         :      0.35s CPU      0.36s WALL (     258 calls)
     fftw         :     40.59s CPU     42.84s WALL (  628554 calls)
     interpolate  :      0.38s CPU      0.39s WALL (     130 calls)

     Parallel routines

     PWSCF        :   1m55.48s CPU   2m 1.26s WALL


   This run was terminated on:   4:29:47  30Nov2023            

=------------------------------------------------------------------------------=
   JOB DONE.
=------------------------------------------------------------------------------=
