
     Program PWSCF v.7.2 starts on 23Oct2023 at 21:24:33 

     This program is part of the open-source Quantum ESPRESSO suite
     for quantum simulation of materials; please cite
         "P. Giannozzi et al., J. Phys.:Condens. Matter 21 395502 (2009);
         "P. Giannozzi et al., J. Phys.:Condens. Matter 29 465901 (2017);
         "P. Giannozzi et al., J. Chem. Phys. 152 154105 (2020);
          URL http://www.quantum-espresso.org", 
     in publications or presentations arising from this work. More details at
     http://www.quantum-espresso.org/quote

     Parallel version (MPI & OpenMP), running on      12 processor cores
     Number of MPI processes:                 1
     Threads/MPI process:                    12

     MPI processes distributed on     1 nodes
     60497 MiB available memory on the printing compute node when the environment starts
 
     Reading input from aiida.in

     Current dimensions of program PWSCF are:
     Max number of different atomic species (ntypx) = 10
     Max number of k-points (npk) =  40000
     Max angular momentum in pseudopotentials (lmaxx) =  4
     file Fe.pbesol-spn-kjpaw_psl.0.2.1.UPF: wavefunction(s)  3D renormalized
     Message from routine setup:
     using ibrav=0 with symmetry is DISCOURAGED, use correct ibrav instead
 
     Subspace diagonalization in iterative solution of the eigenvalue problem:
     a serial algorithm will be used

 
     G-vector sticks info
     --------------------
     sticks:   dense  smooth     PW     G-vecs:    dense   smooth      PW
     Sum        9541    3181    913               401679    77245   11731
 
     Using Slab Decomposition
 


     bravais-lattice index     =            0
     lattice parameter (alat)  =      11.3119  a.u.
     unit-cell volume          =     669.9076 (a.u.)^3
     number of atoms/cell      =            9
     number of atomic types    =            3
     number of electrons       =        96.00
     number of Kohn-Sham states=           58
     kinetic-energy cutoff     =      90.0000  Ry
     charge density cutoff     =    1080.0000  Ry
     scf convergence threshold =      1.8E-09
     mixing beta               =       0.1000
     number of iterations used =            8  plain     mixing
     Exchange-correlation= SLA  PW   PSX  PSC
                           (   1   4  10   8   0   0   0)

     GPU acceleration is ACTIVE.


     GPU used by master process:

        Device Number: 0
        Device name: Tesla P100-PCIE-16GB
        Compute capability : 60
        Ratio of single to double precision performance  : 2
        Memory Clock Rate (KHz): 715000
        Memory Bus Width (bits): 4096
        Peak Memory Bandwidth (GB/s): 732.16

     celldm(1)=  11.311901  celldm(2)=   0.000000  celldm(3)=   0.000000
     celldm(4)=   0.000000  celldm(5)=   0.000000  celldm(6)=   0.000000

     crystal axes: (cart. coord. in units of alat)
               a(1) = (   1.000000   0.000000   0.000000 )  
               a(2) = (  -0.500000   0.866025   0.000000 )  
               a(3) = (   0.000000   0.000000   0.534414 )  

     reciprocal axes: (cart. coord. in units 2 pi/alat)
               b(1) = (  1.000000  0.577350 -0.000000 )  
               b(2) = (  0.000000  1.154701  0.000000 )  
               b(3) = (  0.000000 -0.000000  1.871210 )  


     PseudoPot. # 1 for B  read from file:
     ./pseudo/b_pbesol_v1.4.uspp.F.UPF
     MD5 check sum: 369b69bef2c3aeed4453bd8b804fd6a8
     Pseudo is Ultrasoft + core correction, Zval =  3.0
     Generated by new atomic code, or converted to UPF format
     Using radial grid of  781 points,  4 beta functions with: 
                l(1) =   0
                l(2) =   0
                l(3) =   1
                l(4) =   1
     Q(r) pseudized with  8 coefficients,  rinner =    1.100   1.100   1.100


     PseudoPot. # 2 for Fe read from file:
     ./pseudo/Fe.pbesol-spn-kjpaw_psl.0.2.1.UPF
     MD5 check sum: 4d7ec5aa2156491519a4322664fbbf52
     Pseudo is Projector augmented-wave + core cor, Zval = 16.0
     Generated using "atomic" code by A. Dal Corso  v.6.0 svn rev. 13079
     Shape of augmentation charge: PSQ
     Using radial grid of 1191 points,  6 beta functions with: 
                l(1) =   0
                l(2) =   0
                l(3) =   1
                l(4) =   1
                l(5) =   2
                l(6) =   2
     Q(r) pseudized with 0 coefficients 


     PseudoPot. # 3 for Ta read from file:
     ./pseudo/ta_pbesol_v1.uspp.F.UPF
     MD5 check sum: 5dd23d6859724cbb2c0d9b6294d5f84c
     Pseudo is Ultrasoft + core correction, Zval = 13.0
     Generated by new atomic code, or converted to UPF format
     Using radial grid of  921 points,  7 beta functions with: 
                l(1) =   0
                l(2) =   0
                l(3) =   1
                l(4) =   1
                l(5) =   2
                l(6) =   2
                l(7) =   3
     Q(r) pseudized with  6 coefficients,  rinner =    1.300   1.300   1.300
                                                       1.300   1.300   1.300
                                                       1.300

     atomic species   valence    mass     pseudopotential
        B              3.00    10.81100     B ( 1.00)
        Fe            16.00    55.84500     Fe( 1.00)
        Ta            13.00   180.94788     Ta( 1.00)

     Starting magnetic structure 
     atomic species   magnetization
        B            0.100
        Fe           0.313
        Ta           0.385

     12 Sym. Ops. (no inversion) found


                                    s                        frac. trans.

      isym =  1     identity                                     

 cryst.   s( 1) = (     1          0          0      )
                  (     0          1          0      )
                  (     0          0          1      )

 cart.    s( 1) = (  1.0000000  0.0000000  0.0000000 )
                  (  0.0000000  1.0000000  0.0000000 )
                  (  0.0000000  0.0000000  1.0000000 )


      isym =  2     180 deg rotation - cart. axis [1,0,0]        

 cryst.   s( 2) = (     1          0          0      )
                  (    -1         -1          0      )
                  (     0          0         -1      )

 cart.    s( 2) = (  1.0000000  0.0000000  0.0000000 )
                  (  0.0000000 -1.0000000  0.0000000 )
                  (  0.0000000  0.0000000 -1.0000000 )


      isym =  3     120 deg rotation - cryst. axis [0,0,1]       

 cryst.   s( 3) = (     0          1          0      )
                  (    -1         -1          0      )
                  (     0          0          1      )

 cart.    s( 3) = ( -0.5000000 -0.8660254  0.0000000 )
                  (  0.8660254 -0.5000000  0.0000000 )
                  (  0.0000000  0.0000000  1.0000000 )


      isym =  4     120 deg rotation - cryst. axis [0,0,-1]      

 cryst.   s( 4) = (    -1         -1          0      )
                  (     1          0          0      )
                  (     0          0          1      )

 cart.    s( 4) = ( -0.5000000  0.8660254  0.0000000 )
                  ( -0.8660254 -0.5000000  0.0000000 )
                  (  0.0000000  0.0000000  1.0000000 )


      isym =  5     180 deg rotation - cryst. axis [0,1,0]       

 cryst.   s( 5) = (    -1         -1          0      )
                  (     0          1          0      )
                  (     0          0         -1      )

 cart.    s( 5) = ( -0.5000000 -0.8660254  0.0000000 )
                  ( -0.8660254  0.5000000  0.0000000 )
                  (  0.0000000  0.0000000 -1.0000000 )


      isym =  6     180 deg rotation - cryst. axis [1,1,0]       

 cryst.   s( 6) = (     0          1          0      )
                  (     1          0          0      )
                  (     0          0         -1      )

 cart.    s( 6) = ( -0.5000000  0.8660254  0.0000000 )
                  (  0.8660254  0.5000000  0.0000000 )
                  (  0.0000000  0.0000000 -1.0000000 )


      isym =  7     inv. 180 deg rotation - cart. axis [0,0,1]   

 cryst.   s( 7) = (     1          0          0      )
                  (     0          1          0      )
                  (     0          0         -1      )

 cart.    s( 7) = (  1.0000000  0.0000000  0.0000000 )
                  (  0.0000000  1.0000000  0.0000000 )
                  (  0.0000000  0.0000000 -1.0000000 )


      isym =  8     inv. 180 deg rotation - cart. axis [0,1,0]   

 cryst.   s( 8) = (     1          0          0      )
                  (    -1         -1          0      )
                  (     0          0          1      )

 cart.    s( 8) = (  1.0000000  0.0000000  0.0000000 )
                  (  0.0000000 -1.0000000  0.0000000 )
                  (  0.0000000  0.0000000  1.0000000 )


      isym =  9     inv.  60 deg rotation - cryst. axis [0,0,1]  

 cryst.   s( 9) = (    -1         -1          0      )
                  (     1          0          0      )
                  (     0          0         -1      )

 cart.    s( 9) = ( -0.5000000  0.8660254  0.0000000 )
                  ( -0.8660254 -0.5000000  0.0000000 )
                  (  0.0000000  0.0000000 -1.0000000 )


      isym = 10     inv.  60 deg rotation - cryst. axis [0,0,-1] 

 cryst.   s(10) = (     0          1          0      )
                  (    -1         -1          0      )
                  (     0          0         -1      )

 cart.    s(10) = ( -0.5000000 -0.8660254  0.0000000 )
                  (  0.8660254 -0.5000000  0.0000000 )
                  (  0.0000000  0.0000000 -1.0000000 )


      isym = 11     inv. 180 deg rotation - cryst. axis [1,-1,0] 

 cryst.   s(11) = (     0          1          0      )
                  (     1          0          0      )
                  (     0          0          1      )

 cart.    s(11) = ( -0.5000000  0.8660254  0.0000000 )
                  (  0.8660254  0.5000000  0.0000000 )
                  (  0.0000000  0.0000000  1.0000000 )


      isym = 12     inv. 180 deg rotation - cryst. axis [2,1,0]  

 cryst.   s(12) = (    -1         -1          0      )
                  (     0          1          0      )
                  (     0          0          1      )

 cart.    s(12) = ( -0.5000000 -0.8660254  0.0000000 )
                  ( -0.8660254  0.5000000  0.0000000 )
                  (  0.0000000  0.0000000  1.0000000 )


   Cartesian axes

     site n.     atom                  positions (alat units)
         1           Ta  tau(   1) = (   0.2037500   0.3529054   0.0000000  )
         2           Ta  tau(   2) = (  -0.2962500   0.5131201   0.0000000  )
         3           Ta  tau(   3) = (   0.5925000   0.0000000   0.0000000  )
         4           Fe  tau(   4) = (   0.3747500   0.6490860   0.2672068  )
         5           Fe  tau(   5) = (  -0.1252500   0.2169394   0.2672068  )
         6           Fe  tau(   6) = (   0.2505000   0.0000000   0.2672068  )
         7           B   tau(   7) = (   0.0000000   0.5773503   0.2672068  )
         8           B   tau(   8) = (   0.5000000   0.2886751   0.2672068  )
         9           B   tau(   9) = (   0.0000000   0.0000000   0.0000000  )

   Crystallographic axes

     site n.     atom                  positions (cryst. coord.)
         1           Ta  tau(   1) = (  0.4075000  0.4075000  0.0000000  )
         2           Ta  tau(   2) = ( -0.0000000  0.5925000  0.0000000  )
         3           Ta  tau(   3) = (  0.5925000  0.0000000  0.0000000  )
         4           Fe  tau(   4) = (  0.7495000  0.7495000  0.5000000  )
         5           Fe  tau(   5) = ( -0.0000000  0.2505000  0.5000000  )
         6           Fe  tau(   6) = (  0.2505000  0.0000000  0.5000000  )
         7           B   tau(   7) = (  0.3333333  0.6666667  0.5000000  )
         8           B   tau(   8) = (  0.6666667  0.3333333  0.5000000  )
         9           B   tau(   9) = (  0.0000000  0.0000000  0.0000000  )

     number of k points=    96  Marzari-Vanderbilt smearing, width (Ry)=  0.0100
                       cart. coord. in units 2pi/alat
        k(    1) = (   0.0000000   0.0000000   0.0000000), wk =   0.0008818
        k(    2) = (   0.0000000   0.0000000   0.1336578), wk =   0.0017637
        k(    3) = (   0.0000000   0.0000000   0.2673157), wk =   0.0017637
        k(    4) = (   0.0000000   0.0000000   0.4009735), wk =   0.0017637
        k(    5) = (   0.0000000   0.0000000   0.5346314), wk =   0.0017637
        k(    6) = (   0.0000000   0.0000000   0.6682892), wk =   0.0017637
        k(    7) = (   0.0000000   0.0000000   0.8019470), wk =   0.0017637
        k(    8) = (   0.0000000   0.0000000  -0.9356049), wk =   0.0008818
        k(    9) = (   0.0000000   0.1283001   0.0000000), wk =   0.0052910
        k(   10) = (   0.0000000   0.1283001   0.1336578), wk =   0.0105820
        k(   11) = (   0.0000000   0.1283001   0.2673157), wk =   0.0105820
        k(   12) = (   0.0000000   0.1283001   0.4009735), wk =   0.0105820
        k(   13) = (   0.0000000   0.1283001   0.5346314), wk =   0.0105820
        k(   14) = (   0.0000000   0.1283001   0.6682892), wk =   0.0105820
        k(   15) = (   0.0000000   0.1283001   0.8019470), wk =   0.0105820
        k(   16) = (   0.0000000   0.1283001  -0.9356049), wk =   0.0052910
        k(   17) = (   0.0000000   0.2566001   0.0000000), wk =   0.0052910
        k(   18) = (   0.0000000   0.2566001   0.1336578), wk =   0.0105820
        k(   19) = (   0.0000000   0.2566001   0.2673157), wk =   0.0105820
        k(   20) = (   0.0000000   0.2566001   0.4009735), wk =   0.0105820
        k(   21) = (   0.0000000   0.2566001   0.5346314), wk =   0.0105820
        k(   22) = (   0.0000000   0.2566001   0.6682892), wk =   0.0105820
        k(   23) = (   0.0000000   0.2566001   0.8019470), wk =   0.0105820
        k(   24) = (   0.0000000   0.2566001  -0.9356049), wk =   0.0052910
        k(   25) = (   0.0000000   0.3849002   0.0000000), wk =   0.0052910
        k(   26) = (   0.0000000   0.3849002   0.1336578), wk =   0.0105820
        k(   27) = (   0.0000000   0.3849002   0.2673157), wk =   0.0105820
        k(   28) = (   0.0000000   0.3849002   0.4009735), wk =   0.0105820
        k(   29) = (   0.0000000   0.3849002   0.5346314), wk =   0.0105820
        k(   30) = (   0.0000000   0.3849002   0.6682892), wk =   0.0105820
        k(   31) = (   0.0000000   0.3849002   0.8019470), wk =   0.0105820
        k(   32) = (   0.0000000   0.3849002  -0.9356049), wk =   0.0052910
        k(   33) = (   0.0000000   0.5132002   0.0000000), wk =   0.0052910
        k(   34) = (   0.0000000   0.5132002   0.1336578), wk =   0.0105820
        k(   35) = (   0.0000000   0.5132002   0.2673157), wk =   0.0105820
        k(   36) = (   0.0000000   0.5132002   0.4009735), wk =   0.0105820
        k(   37) = (   0.0000000   0.5132002   0.5346314), wk =   0.0105820
        k(   38) = (   0.0000000   0.5132002   0.6682892), wk =   0.0105820
        k(   39) = (   0.0000000   0.5132002   0.8019470), wk =   0.0105820
        k(   40) = (   0.0000000   0.5132002  -0.9356049), wk =   0.0052910
        k(   41) = (   0.1111111   0.1924501   0.0000000), wk =   0.0052910
        k(   42) = (   0.1111111   0.1924501   0.1336578), wk =   0.0105820
        k(   43) = (   0.1111111   0.1924501   0.2673157), wk =   0.0105820
        k(   44) = (   0.1111111   0.1924501   0.4009735), wk =   0.0105820
        k(   45) = (   0.1111111   0.1924501   0.5346314), wk =   0.0105820
        k(   46) = (   0.1111111   0.1924501   0.6682892), wk =   0.0105820
        k(   47) = (   0.1111111   0.1924501   0.8019470), wk =   0.0105820
        k(   48) = (   0.1111111   0.1924501  -0.9356049), wk =   0.0052910
        k(   49) = (   0.1111111   0.3207501   0.0000000), wk =   0.0105820
        k(   50) = (   0.1111111   0.3207501   0.1336578), wk =   0.0211640
        k(   51) = (   0.1111111   0.3207501   0.2673157), wk =   0.0211640
        k(   52) = (   0.1111111   0.3207501   0.4009735), wk =   0.0211640
        k(   53) = (   0.1111111   0.3207501   0.5346314), wk =   0.0211640
        k(   54) = (   0.1111111   0.3207501   0.6682892), wk =   0.0211640
        k(   55) = (   0.1111111   0.3207501   0.8019470), wk =   0.0211640
        k(   56) = (   0.1111111   0.3207501  -0.9356049), wk =   0.0105820
        k(   57) = (   0.1111111   0.4490502   0.0000000), wk =   0.0105820
        k(   58) = (   0.1111111   0.4490502   0.1336578), wk =   0.0211640
        k(   59) = (   0.1111111   0.4490502   0.2673157), wk =   0.0211640
        k(   60) = (   0.1111111   0.4490502   0.4009735), wk =   0.0211640
        k(   61) = (   0.1111111   0.4490502   0.5346314), wk =   0.0211640
        k(   62) = (   0.1111111   0.4490502   0.6682892), wk =   0.0211640
        k(   63) = (   0.1111111   0.4490502   0.8019470), wk =   0.0211640
        k(   64) = (   0.1111111   0.4490502  -0.9356049), wk =   0.0105820
        k(   65) = (   0.1111111   0.5773503   0.0000000), wk =   0.0052910
        k(   66) = (   0.1111111   0.5773503   0.1336578), wk =   0.0105820
        k(   67) = (   0.1111111   0.5773503   0.2673157), wk =   0.0105820
        k(   68) = (   0.1111111   0.5773503   0.4009735), wk =   0.0105820
        k(   69) = (   0.1111111   0.5773503   0.5346314), wk =   0.0105820
        k(   70) = (   0.1111111   0.5773503   0.6682892), wk =   0.0105820
        k(   71) = (   0.1111111   0.5773503   0.8019470), wk =   0.0105820
        k(   72) = (   0.1111111   0.5773503  -0.9356049), wk =   0.0052910
        k(   73) = (   0.2222222   0.3849002   0.0000000), wk =   0.0052910
        k(   74) = (   0.2222222   0.3849002   0.1336578), wk =   0.0105820
        k(   75) = (   0.2222222   0.3849002   0.2673157), wk =   0.0105820
        k(   76) = (   0.2222222   0.3849002   0.4009735), wk =   0.0105820
        k(   77) = (   0.2222222   0.3849002   0.5346314), wk =   0.0105820
        k(   78) = (   0.2222222   0.3849002   0.6682892), wk =   0.0105820
        k(   79) = (   0.2222222   0.3849002   0.8019470), wk =   0.0105820
        k(   80) = (   0.2222222   0.3849002  -0.9356049), wk =   0.0052910
        k(   81) = (   0.2222222   0.5132002   0.0000000), wk =   0.0105820
        k(   82) = (   0.2222222   0.5132002   0.1336578), wk =   0.0211640
        k(   83) = (   0.2222222   0.5132002   0.2673157), wk =   0.0211640
        k(   84) = (   0.2222222   0.5132002   0.4009735), wk =   0.0211640
        k(   85) = (   0.2222222   0.5132002   0.5346314), wk =   0.0211640
        k(   86) = (   0.2222222   0.5132002   0.6682892), wk =   0.0211640
        k(   87) = (   0.2222222   0.5132002   0.8019470), wk =   0.0211640
        k(   88) = (   0.2222222   0.5132002  -0.9356049), wk =   0.0105820
        k(   89) = (   0.3333333   0.5773503   0.0000000), wk =   0.0017637
        k(   90) = (   0.3333333   0.5773503   0.1336578), wk =   0.0035273
        k(   91) = (   0.3333333   0.5773503   0.2673157), wk =   0.0035273
        k(   92) = (   0.3333333   0.5773503   0.4009735), wk =   0.0035273
        k(   93) = (   0.3333333   0.5773503   0.5346314), wk =   0.0035273
        k(   94) = (   0.3333333   0.5773503   0.6682892), wk =   0.0035273
        k(   95) = (   0.3333333   0.5773503   0.8019470), wk =   0.0035273
        k(   96) = (   0.3333333   0.5773503  -0.9356049), wk =   0.0017637

                       cryst. coord.
        k(    1) = (   0.0000000   0.0000000   0.0000000), wk =   0.0008818
        k(    2) = (   0.0000000   0.0000000   0.0714286), wk =   0.0017637
        k(    3) = (   0.0000000   0.0000000   0.1428571), wk =   0.0017637
        k(    4) = (   0.0000000   0.0000000   0.2142857), wk =   0.0017637
        k(    5) = (   0.0000000   0.0000000   0.2857143), wk =   0.0017637
        k(    6) = (   0.0000000   0.0000000   0.3571429), wk =   0.0017637
        k(    7) = (   0.0000000   0.0000000   0.4285714), wk =   0.0017637
        k(    8) = (   0.0000000   0.0000000  -0.5000000), wk =   0.0008818
        k(    9) = (   0.0000000   0.1111111   0.0000000), wk =   0.0052910
        k(   10) = (   0.0000000   0.1111111   0.0714286), wk =   0.0105820
        k(   11) = (   0.0000000   0.1111111   0.1428571), wk =   0.0105820
        k(   12) = (   0.0000000   0.1111111   0.2142857), wk =   0.0105820
        k(   13) = (   0.0000000   0.1111111   0.2857143), wk =   0.0105820
        k(   14) = (   0.0000000   0.1111111   0.3571429), wk =   0.0105820
        k(   15) = (   0.0000000   0.1111111   0.4285714), wk =   0.0105820
        k(   16) = (   0.0000000   0.1111111  -0.5000000), wk =   0.0052910
        k(   17) = (   0.0000000   0.2222222   0.0000000), wk =   0.0052910
        k(   18) = (   0.0000000   0.2222222   0.0714286), wk =   0.0105820
        k(   19) = (   0.0000000   0.2222222   0.1428571), wk =   0.0105820
        k(   20) = (   0.0000000   0.2222222   0.2142857), wk =   0.0105820
        k(   21) = (   0.0000000   0.2222222   0.2857143), wk =   0.0105820
        k(   22) = (   0.0000000   0.2222222   0.3571429), wk =   0.0105820
        k(   23) = (   0.0000000   0.2222222   0.4285714), wk =   0.0105820
        k(   24) = (   0.0000000   0.2222222  -0.5000000), wk =   0.0052910
        k(   25) = (   0.0000000   0.3333333   0.0000000), wk =   0.0052910
        k(   26) = (   0.0000000   0.3333333   0.0714286), wk =   0.0105820
        k(   27) = (   0.0000000   0.3333333   0.1428571), wk =   0.0105820
        k(   28) = (   0.0000000   0.3333333   0.2142857), wk =   0.0105820
        k(   29) = (   0.0000000   0.3333333   0.2857143), wk =   0.0105820
        k(   30) = (   0.0000000   0.3333333   0.3571429), wk =   0.0105820
        k(   31) = (   0.0000000   0.3333333   0.4285714), wk =   0.0105820
        k(   32) = (   0.0000000   0.3333333  -0.5000000), wk =   0.0052910
        k(   33) = (   0.0000000   0.4444444   0.0000000), wk =   0.0052910
        k(   34) = (   0.0000000   0.4444444   0.0714286), wk =   0.0105820
        k(   35) = (   0.0000000   0.4444444   0.1428571), wk =   0.0105820
        k(   36) = (   0.0000000   0.4444444   0.2142857), wk =   0.0105820
        k(   37) = (   0.0000000   0.4444444   0.2857143), wk =   0.0105820
        k(   38) = (   0.0000000   0.4444444   0.3571429), wk =   0.0105820
        k(   39) = (   0.0000000   0.4444444   0.4285714), wk =   0.0105820
        k(   40) = (   0.0000000   0.4444444  -0.5000000), wk =   0.0052910
        k(   41) = (   0.1111111   0.1111111   0.0000000), wk =   0.0052910
        k(   42) = (   0.1111111   0.1111111   0.0714286), wk =   0.0105820
        k(   43) = (   0.1111111   0.1111111   0.1428571), wk =   0.0105820
        k(   44) = (   0.1111111   0.1111111   0.2142857), wk =   0.0105820
        k(   45) = (   0.1111111   0.1111111   0.2857143), wk =   0.0105820
        k(   46) = (   0.1111111   0.1111111   0.3571429), wk =   0.0105820
        k(   47) = (   0.1111111   0.1111111   0.4285714), wk =   0.0105820
        k(   48) = (   0.1111111   0.1111111  -0.5000000), wk =   0.0052910
        k(   49) = (   0.1111111   0.2222222   0.0000000), wk =   0.0105820
        k(   50) = (   0.1111111   0.2222222   0.0714286), wk =   0.0211640
        k(   51) = (   0.1111111   0.2222222   0.1428571), wk =   0.0211640
        k(   52) = (   0.1111111   0.2222222   0.2142857), wk =   0.0211640
        k(   53) = (   0.1111111   0.2222222   0.2857143), wk =   0.0211640
        k(   54) = (   0.1111111   0.2222222   0.3571429), wk =   0.0211640
        k(   55) = (   0.1111111   0.2222222   0.4285714), wk =   0.0211640
        k(   56) = (   0.1111111   0.2222222  -0.5000000), wk =   0.0105820
        k(   57) = (   0.1111111   0.3333333   0.0000000), wk =   0.0105820
        k(   58) = (   0.1111111   0.3333333   0.0714286), wk =   0.0211640
        k(   59) = (   0.1111111   0.3333333   0.1428571), wk =   0.0211640
        k(   60) = (   0.1111111   0.3333333   0.2142857), wk =   0.0211640
        k(   61) = (   0.1111111   0.3333333   0.2857143), wk =   0.0211640
        k(   62) = (   0.1111111   0.3333333   0.3571429), wk =   0.0211640
        k(   63) = (   0.1111111   0.3333333   0.4285714), wk =   0.0211640
        k(   64) = (   0.1111111   0.3333333  -0.5000000), wk =   0.0105820
        k(   65) = (   0.1111111   0.4444444   0.0000000), wk =   0.0052910
        k(   66) = (   0.1111111   0.4444444   0.0714286), wk =   0.0105820
        k(   67) = (   0.1111111   0.4444444   0.1428571), wk =   0.0105820
        k(   68) = (   0.1111111   0.4444444   0.2142857), wk =   0.0105820
        k(   69) = (   0.1111111   0.4444444   0.2857143), wk =   0.0105820
        k(   70) = (   0.1111111   0.4444444   0.3571429), wk =   0.0105820
        k(   71) = (   0.1111111   0.4444444   0.4285714), wk =   0.0105820
        k(   72) = (   0.1111111   0.4444444  -0.5000000), wk =   0.0052910
        k(   73) = (   0.2222222   0.2222222   0.0000000), wk =   0.0052910
        k(   74) = (   0.2222222   0.2222222   0.0714286), wk =   0.0105820
        k(   75) = (   0.2222222   0.2222222   0.1428571), wk =   0.0105820
        k(   76) = (   0.2222222   0.2222222   0.2142857), wk =   0.0105820
        k(   77) = (   0.2222222   0.2222222   0.2857143), wk =   0.0105820
        k(   78) = (   0.2222222   0.2222222   0.3571429), wk =   0.0105820
        k(   79) = (   0.2222222   0.2222222   0.4285714), wk =   0.0105820
        k(   80) = (   0.2222222   0.2222222  -0.5000000), wk =   0.0052910
        k(   81) = (   0.2222222   0.3333333   0.0000000), wk =   0.0105820
        k(   82) = (   0.2222222   0.3333333   0.0714286), wk =   0.0211640
        k(   83) = (   0.2222222   0.3333333   0.1428571), wk =   0.0211640
        k(   84) = (   0.2222222   0.3333333   0.2142857), wk =   0.0211640
        k(   85) = (   0.2222222   0.3333333   0.2857143), wk =   0.0211640
        k(   86) = (   0.2222222   0.3333333   0.3571429), wk =   0.0211640
        k(   87) = (   0.2222222   0.3333333   0.4285714), wk =   0.0211640
        k(   88) = (   0.2222222   0.3333333  -0.5000000), wk =   0.0105820
        k(   89) = (   0.3333333   0.3333333   0.0000000), wk =   0.0017637
        k(   90) = (   0.3333333   0.3333333   0.0714286), wk =   0.0035273
        k(   91) = (   0.3333333   0.3333333   0.1428571), wk =   0.0035273
        k(   92) = (   0.3333333   0.3333333   0.2142857), wk =   0.0035273
        k(   93) = (   0.3333333   0.3333333   0.2857143), wk =   0.0035273
        k(   94) = (   0.3333333   0.3333333   0.3571429), wk =   0.0035273
        k(   95) = (   0.3333333   0.3333333   0.4285714), wk =   0.0035273
        k(   96) = (   0.3333333   0.3333333  -0.5000000), wk =   0.0017637

     Dense  grid:   401679 G-vectors     FFT dimensions: ( 120, 120,  64)

     Smooth grid:    77245 G-vectors     FFT dimensions: (  72,  72,  40)

     Dynamical RAM for                 wfc:       8.55 MB

     Dynamical RAM for     wfc (w. buffer):    1649.82 MB

     Dynamical RAM for           str. fact:      18.39 MB

     Dynamical RAM for           local pot:       0.00 MB

     Dynamical RAM for          nlocal pot:      22.55 MB

     Dynamical RAM for                qrad:      14.76 MB

     Dynamical RAM for          rho,v,vnew:      78.96 MB

     Dynamical RAM for               rhoin:      26.32 MB

     Dynamical RAM for            rho*nmix:     196.13 MB

     Dynamical RAM for           G-vectors:      23.57 MB

     Dynamical RAM for          h,s,v(r/c):       0.62 MB

     Dynamical RAM for          <psi|beta>:       0.14 MB

     Dynamical RAM for                 psi:      17.10 MB

     Dynamical RAM for                hpsi:      17.10 MB

     Dynamical RAM for                spsi:      17.10 MB

     Dynamical RAM for      wfcinit/wfcrot:      17.17 MB

     Dynamical RAM for           addusdens:    2181.97 MB

     Dynamical RAM for          addusforce:    2206.53 MB

     Dynamical RAM for         addusstress:    2332.14 MB

     Estimated static dynamical RAM per process >       1.86 GB

     Estimated max dynamical RAM per process >       4.33 GB

     Atomic positions and unit cell read from directory:
     ./out/aiida.save/
 

     Check: negative core charge=   -0.000002
     Generating pointlists ...
     new r_m :   0.1511 (alat units)  1.7090 (a.u.) for type    1
     new r_m :   0.1511 (alat units)  1.7090 (a.u.) for type    2
     new r_m :   0.1667 (alat units)  1.8856 (a.u.) for type    3

     The initial density is read from file :
     ./out/aiida.save/charge-density


     negative rho (up, down):  1.483E-01 1.483E-01
     Starting wfcs from file
     Checking if some PAW data can be deallocated... 

     total cpu time spent up to now is        7.5 secs

     per-process dynamical memory:   628.8 Mb

     Self-consistent Calculation
[tb_dev] Currently allocated     6.87E-05 Mbytes, locked:    0 /   2
[tb_pin] Currently allocated     0.00E+00 Mbytes, locked:    0 /   0

     iteration #  1     ecut=    90.00 Ry     beta= 0.10
     Davidson diagonalization with overlap

---- Real-time Memory Report at c_bands before calling an iterative solver
           958 MiB given to the printing process from OS
           638 MiB allocation reported by mallinfo(arena+hblkhd)
         58868 MiB available memory on the node where the printing process lives
     GPU memory used/free/total (MiB): 1378 / 14902 / 16280
------------------
     ethr =  1.00E-05,  avg # of iterations =  1.1

     Threshold (ethr) on eigenvalues was too large:
     Diagonalizing with lowered threshold

     Davidson diagonalization with overlap

---- Real-time Memory Report at c_bands before calling an iterative solver
          2976 MiB given to the printing process from OS
         -1483 MiB allocation reported by mallinfo(arena+hblkhd)
         54630 MiB available memory on the node where the printing process lives
     GPU memory used/free/total (MiB): 5102 / 11178 / 16280
------------------
     ethr =  4.62E-09,  avg # of iterations =  2.7

     negative rho (up, down):  1.483E-01 1.483E-01

     total cpu time spent up to now is       32.3 secs

     total energy              =   -1425.52830120 Ry
     estimated scf accuracy    <       0.00000435 Ry

     total magnetization       =     0.93 Bohr mag/cell
     absolute magnetization    =     1.05 Bohr mag/cell
[tb_dev] Currently allocated     1.67E+01 Mbytes, locked:    0 /  14
[tb_pin] Currently allocated     0.00E+00 Mbytes, locked:    0 /   0

     iteration #  2     ecut=    90.00 Ry     beta= 0.10
     Davidson diagonalization with overlap

---- Real-time Memory Report at c_bands before calling an iterative solver
          3196 MiB given to the printing process from OS
         -1474 MiB allocation reported by mallinfo(arena+hblkhd)
         54596 MiB available memory on the node where the printing process lives
     GPU memory used/free/total (MiB): 5428 / 10852 / 16280
------------------
     ethr =  4.53E-09,  avg # of iterations =  1.3

     negative rho (up, down):  1.483E-01 1.483E-01

     total cpu time spent up to now is       43.6 secs

     total energy              =   -1425.52830181 Ry
     estimated scf accuracy    <       0.00000341 Ry

     total magnetization       =     0.93 Bohr mag/cell
     absolute magnetization    =     1.05 Bohr mag/cell
[tb_dev] Currently allocated     1.67E+01 Mbytes, locked:    0 /  14
[tb_pin] Currently allocated     0.00E+00 Mbytes, locked:    0 /   0

     iteration #  3     ecut=    90.00 Ry     beta= 0.10
     Davidson diagonalization with overlap

---- Real-time Memory Report at c_bands before calling an iterative solver
          3360 MiB given to the printing process from OS
         -1461 MiB allocation reported by mallinfo(arena+hblkhd)
         54584 MiB available memory on the node where the printing process lives
     GPU memory used/free/total (MiB): 5428 / 10852 / 16280
------------------
     ethr =  3.55E-09,  avg # of iterations =  1.0

     negative rho (up, down):  1.483E-01 1.483E-01

     total cpu time spent up to now is       54.6 secs

     total energy              =   -1425.52829511 Ry
     estimated scf accuracy    <       0.00000348 Ry

     total magnetization       =     0.93 Bohr mag/cell
     absolute magnetization    =     1.05 Bohr mag/cell
[tb_dev] Currently allocated     1.67E+01 Mbytes, locked:    0 /  14
[tb_pin] Currently allocated     0.00E+00 Mbytes, locked:    0 /   0

     iteration #  4     ecut=    90.00 Ry     beta= 0.10
     Davidson diagonalization with overlap

---- Real-time Memory Report at c_bands before calling an iterative solver
          3432 MiB given to the printing process from OS
         -1449 MiB allocation reported by mallinfo(arena+hblkhd)
         54572 MiB available memory on the node where the printing process lives
     GPU memory used/free/total (MiB): 5428 / 10852 / 16280
------------------
     ethr =  3.55E-09,  avg # of iterations =  1.9

     negative rho (up, down):  1.483E-01 1.483E-01

     total cpu time spent up to now is       66.7 secs

     total energy              =   -1425.52829964 Ry
     estimated scf accuracy    <       0.00000343 Ry

     total magnetization       =     0.95 Bohr mag/cell
     absolute magnetization    =     1.06 Bohr mag/cell
[tb_dev] Currently allocated     1.67E+01 Mbytes, locked:    0 /  14
[tb_pin] Currently allocated     0.00E+00 Mbytes, locked:    0 /   0

     iteration #  5     ecut=    90.00 Ry     beta= 0.10
     Davidson diagonalization with overlap

---- Real-time Memory Report at c_bands before calling an iterative solver
          3505 MiB given to the printing process from OS
         -1436 MiB allocation reported by mallinfo(arena+hblkhd)
         54559 MiB available memory on the node where the printing process lives
     GPU memory used/free/total (MiB): 5428 / 10852 / 16280
------------------
     ethr =  3.55E-09,  avg # of iterations =  2.0

     negative rho (up, down):  1.483E-01 1.483E-01

     total cpu time spent up to now is       79.0 secs

     total energy              =   -1425.52830156 Ry
     estimated scf accuracy    <       0.00000355 Ry

     total magnetization       =     0.93 Bohr mag/cell
     absolute magnetization    =     1.05 Bohr mag/cell
[tb_dev] Currently allocated     1.67E+01 Mbytes, locked:    0 /  14
[tb_pin] Currently allocated     0.00E+00 Mbytes, locked:    0 /   0

     iteration #  6     ecut=    90.00 Ry     beta= 0.10
     Davidson diagonalization with overlap

---- Real-time Memory Report at c_bands before calling an iterative solver
          3571 MiB given to the printing process from OS
         -1422 MiB allocation reported by mallinfo(arena+hblkhd)
         54547 MiB available memory on the node where the printing process lives
     GPU memory used/free/total (MiB): 5428 / 10852 / 16280
------------------
     ethr =  3.55E-09,  avg # of iterations =  1.0

     negative rho (up, down):  1.483E-01 1.483E-01

     total cpu time spent up to now is       90.1 secs

     total energy              =   -1425.52828017 Ry
     estimated scf accuracy    <       0.00000353 Ry

     total magnetization       =     0.93 Bohr mag/cell
     absolute magnetization    =     1.05 Bohr mag/cell
[tb_dev] Currently allocated     1.67E+01 Mbytes, locked:    0 /  14
[tb_pin] Currently allocated     0.00E+00 Mbytes, locked:    0 /   0

     iteration #  7     ecut=    90.00 Ry     beta= 0.10
     Davidson diagonalization with overlap

---- Real-time Memory Report at c_bands before calling an iterative solver
          3611 MiB given to the printing process from OS
         -1412 MiB allocation reported by mallinfo(arena+hblkhd)
         54535 MiB available memory on the node where the printing process lives
     GPU memory used/free/total (MiB): 5428 / 10852 / 16280
------------------
     ethr =  3.55E-09,  avg # of iterations =  4.3

     negative rho (up, down):  1.483E-01 1.483E-01

     total cpu time spent up to now is      107.7 secs

     total energy              =   -1425.52819115 Ry
     estimated scf accuracy    <       0.00000890 Ry

     total magnetization       =     0.87 Bohr mag/cell
     absolute magnetization    =     0.98 Bohr mag/cell
[tb_dev] Currently allocated     1.67E+01 Mbytes, locked:    0 /  14
[tb_pin] Currently allocated     0.00E+00 Mbytes, locked:    0 /   0

     iteration #  8     ecut=    90.00 Ry     beta= 0.10
     Davidson diagonalization with overlap

---- Real-time Memory Report at c_bands before calling an iterative solver
          3623 MiB given to the printing process from OS
         -1399 MiB allocation reported by mallinfo(arena+hblkhd)
         54526 MiB available memory on the node where the printing process lives
     GPU memory used/free/total (MiB): 5428 / 10852 / 16280
------------------
     ethr =  3.55E-09,  avg # of iterations =  4.8

     negative rho (up, down):  1.483E-01 1.483E-01

     total cpu time spent up to now is      126.6 secs

     total energy              =   -1425.52815265 Ry
     estimated scf accuracy    <       0.00000627 Ry

     total magnetization       =     0.97 Bohr mag/cell
     absolute magnetization    =     1.09 Bohr mag/cell
[tb_dev] Currently allocated     1.67E+01 Mbytes, locked:    0 /  14
[tb_pin] Currently allocated     0.00E+00 Mbytes, locked:    0 /   0

     iteration #  9     ecut=    90.00 Ry     beta= 0.10
     Davidson diagonalization with overlap

---- Real-time Memory Report at c_bands before calling an iterative solver
          3634 MiB given to the printing process from OS
         -1388 MiB allocation reported by mallinfo(arena+hblkhd)
         54515 MiB available memory on the node where the printing process lives
     GPU memory used/free/total (MiB): 5428 / 10852 / 16280
------------------
     ethr =  3.55E-09,  avg # of iterations =  5.0

     negative rho (up, down):  1.483E-01 1.483E-01

     total cpu time spent up to now is      145.9 secs

     total energy              =   -1425.52809896 Ry
     estimated scf accuracy    <       0.00001725 Ry

     total magnetization       =     0.83 Bohr mag/cell
     absolute magnetization    =     0.94 Bohr mag/cell
[tb_dev] Currently allocated     1.67E+01 Mbytes, locked:    0 /  14
[tb_pin] Currently allocated     0.00E+00 Mbytes, locked:    0 /   0

     iteration # 10     ecut=    90.00 Ry     beta= 0.10
     Davidson diagonalization with overlap

---- Real-time Memory Report at c_bands before calling an iterative solver
          3647 MiB given to the printing process from OS
         -1375 MiB allocation reported by mallinfo(arena+hblkhd)
         54504 MiB available memory on the node where the printing process lives
     GPU memory used/free/total (MiB): 5428 / 10852 / 16280
------------------
     ethr =  3.55E-09,  avg # of iterations =  5.0

     negative rho (up, down):  1.483E-01 1.483E-01

     total cpu time spent up to now is      165.3 secs

     total energy              =   -1425.52828126 Ry
     estimated scf accuracy    <       0.00000491 Ry

     total magnetization       =     0.97 Bohr mag/cell
     absolute magnetization    =     1.09 Bohr mag/cell
[tb_dev] Currently allocated     1.67E+01 Mbytes, locked:    0 /  14
[tb_pin] Currently allocated     0.00E+00 Mbytes, locked:    0 /   0

     iteration # 11     ecut=    90.00 Ry     beta= 0.10
     Davidson diagonalization with overlap

---- Real-time Memory Report at c_bands before calling an iterative solver
          3655 MiB given to the printing process from OS
         -1369 MiB allocation reported by mallinfo(arena+hblkhd)
         54494 MiB available memory on the node where the printing process lives
     GPU memory used/free/total (MiB): 5428 / 10852 / 16280
------------------
     ethr =  3.55E-09,  avg # of iterations =  3.2

     negative rho (up, down):  1.483E-01 1.483E-01

     total cpu time spent up to now is      179.8 secs

     total energy              =   -1425.52798775 Ry
     estimated scf accuracy    <       0.00000615 Ry

     total magnetization       =     0.99 Bohr mag/cell
     absolute magnetization    =     1.11 Bohr mag/cell
[tb_dev] Currently allocated     1.67E+01 Mbytes, locked:    0 /  14
[tb_pin] Currently allocated     0.00E+00 Mbytes, locked:    0 /   0

     iteration # 12     ecut=    90.00 Ry     beta= 0.10
     Davidson diagonalization with overlap

---- Real-time Memory Report at c_bands before calling an iterative solver
          3661 MiB given to the printing process from OS
         -1363 MiB allocation reported by mallinfo(arena+hblkhd)
         54491 MiB available memory on the node where the printing process lives
     GPU memory used/free/total (MiB): 5428 / 10852 / 16280
------------------
     ethr =  3.55E-09,  avg # of iterations =  5.8

     negative rho (up, down):  1.483E-01 1.483E-01

     total cpu time spent up to now is      201.2 secs

     total energy              =   -1425.52821293 Ry
     estimated scf accuracy    <       0.00000929 Ry

     total magnetization       =     1.14 Bohr mag/cell
     absolute magnetization    =     1.27 Bohr mag/cell
[tb_dev] Currently allocated     1.67E+01 Mbytes, locked:    0 /  14
[tb_pin] Currently allocated     0.00E+00 Mbytes, locked:    0 /   0

     iteration # 13     ecut=    90.00 Ry     beta= 0.10
     Davidson diagonalization with overlap

---- Real-time Memory Report at c_bands before calling an iterative solver
          3667 MiB given to the printing process from OS
         -1357 MiB allocation reported by mallinfo(arena+hblkhd)
         54484 MiB available memory on the node where the printing process lives
     GPU memory used/free/total (MiB): 5428 / 10852 / 16280
------------------
     ethr =  3.55E-09,  avg # of iterations =  4.5

     negative rho (up, down):  1.483E-01 1.483E-01

     total cpu time spent up to now is      219.4 secs

     total energy              =   -1425.52824652 Ry
     estimated scf accuracy    <       0.00000411 Ry

     total magnetization       =     1.07 Bohr mag/cell
     absolute magnetization    =     1.20 Bohr mag/cell
[tb_dev] Currently allocated     1.67E+01 Mbytes, locked:    0 /  14
[tb_pin] Currently allocated     0.00E+00 Mbytes, locked:    0 /   0

     iteration # 14     ecut=    90.00 Ry     beta= 0.10
     Davidson diagonalization with overlap

---- Real-time Memory Report at c_bands before calling an iterative solver
          3676 MiB given to the printing process from OS
         -1336 MiB allocation reported by mallinfo(arena+hblkhd)
         54477 MiB available memory on the node where the printing process lives
     GPU memory used/free/total (MiB): 5428 / 10852 / 16280
------------------
     ethr =  3.55E-09,  avg # of iterations =  4.4

     negative rho (up, down):  1.483E-01 1.483E-01

     total cpu time spent up to now is      237.2 secs

     total energy              =   -1425.52826480 Ry
     estimated scf accuracy    <       0.00000274 Ry

     total magnetization       =     1.02 Bohr mag/cell
     absolute magnetization    =     1.14 Bohr mag/cell
[tb_dev] Currently allocated     1.67E+01 Mbytes, locked:    0 /  14
[tb_pin] Currently allocated     0.00E+00 Mbytes, locked:    0 /   0

     iteration # 15     ecut=    90.00 Ry     beta= 0.10
     Davidson diagonalization with overlap

---- Real-time Memory Report at c_bands before calling an iterative solver
          3683 MiB given to the printing process from OS
         -1330 MiB allocation reported by mallinfo(arena+hblkhd)
         54469 MiB available memory on the node where the printing process lives
     GPU memory used/free/total (MiB): 5428 / 10852 / 16280
------------------
     ethr =  2.86E-09,  avg # of iterations =  4.4

     negative rho (up, down):  1.483E-01 1.483E-01

     total cpu time spent up to now is      255.4 secs

     total energy              =   -1425.52829066 Ry
     estimated scf accuracy    <       0.00000280 Ry

     total magnetization       =     0.96 Bohr mag/cell
     absolute magnetization    =     1.08 Bohr mag/cell
[tb_dev] Currently allocated     1.67E+01 Mbytes, locked:    0 /  14
[tb_pin] Currently allocated     0.00E+00 Mbytes, locked:    0 /   0

     iteration # 16     ecut=    90.00 Ry     beta= 0.10
     Davidson diagonalization with overlap

---- Real-time Memory Report at c_bands before calling an iterative solver
          3689 MiB given to the printing process from OS
         -1324 MiB allocation reported by mallinfo(arena+hblkhd)
         54465 MiB available memory on the node where the printing process lives
     GPU memory used/free/total (MiB): 5428 / 10852 / 16280
------------------
     ethr =  2.86E-09,  avg # of iterations =  3.8

     negative rho (up, down):  1.483E-01 1.483E-01

     total cpu time spent up to now is      271.7 secs

     total energy              =   -1425.52828071 Ry
     estimated scf accuracy    <       0.00000340 Ry

     total magnetization       =     0.93 Bohr mag/cell
     absolute magnetization    =     1.04 Bohr mag/cell
[tb_dev] Currently allocated     1.67E+01 Mbytes, locked:    0 /  14
[tb_pin] Currently allocated     0.00E+00 Mbytes, locked:    0 /   0

     iteration # 17     ecut=    90.00 Ry     beta= 0.10
     Davidson diagonalization with overlap

---- Real-time Memory Report at c_bands before calling an iterative solver
          3694 MiB given to the printing process from OS
         -1318 MiB allocation reported by mallinfo(arena+hblkhd)
         54462 MiB available memory on the node where the printing process lives
     GPU memory used/free/total (MiB): 5428 / 10852 / 16280
------------------
     ethr =  2.86E-09,  avg # of iterations =  4.5

     negative rho (up, down):  1.483E-01 1.483E-01

     total cpu time spent up to now is      290.0 secs

     total energy              =   -1425.52823106 Ry
     estimated scf accuracy    <       0.00000636 Ry

     total magnetization       =     0.86 Bohr mag/cell
     absolute magnetization    =     0.97 Bohr mag/cell
[tb_dev] Currently allocated     1.67E+01 Mbytes, locked:    0 /  14
[tb_pin] Currently allocated     0.00E+00 Mbytes, locked:    0 /   0

     iteration # 18     ecut=    90.00 Ry     beta= 0.10
     Davidson diagonalization with overlap

---- Real-time Memory Report at c_bands before calling an iterative solver
          3700 MiB given to the printing process from OS
         -1312 MiB allocation reported by mallinfo(arena+hblkhd)
         54452 MiB available memory on the node where the printing process lives
     GPU memory used/free/total (MiB): 5428 / 10852 / 16280
------------------
     ethr =  2.86E-09,  avg # of iterations =  4.7

     negative rho (up, down):  1.483E-01 1.483E-01

     total cpu time spent up to now is      308.6 secs

     total energy              =   -1425.52804434 Ry
     estimated scf accuracy    <       0.00000323 Ry

     total magnetization       =     0.94 Bohr mag/cell
     absolute magnetization    =     1.06 Bohr mag/cell
[tb_dev] Currently allocated     1.67E+01 Mbytes, locked:    0 /  14
[tb_pin] Currently allocated     0.00E+00 Mbytes, locked:    0 /   0

     iteration # 19     ecut=    90.00 Ry     beta= 0.10
     Davidson diagonalization with overlap

---- Real-time Memory Report at c_bands before calling an iterative solver
          3706 MiB given to the printing process from OS
         -1306 MiB allocation reported by mallinfo(arena+hblkhd)
         54448 MiB available memory on the node where the printing process lives
     GPU memory used/free/total (MiB): 5428 / 10852 / 16280
------------------
     ethr =  2.86E-09,  avg # of iterations =  5.8

     negative rho (up, down):  1.483E-01 1.483E-01

     total cpu time spent up to now is      330.2 secs

     total energy              =   -1425.52825914 Ry
     estimated scf accuracy    <       0.00000478 Ry

     total magnetization       =     1.08 Bohr mag/cell
     absolute magnetization    =     1.22 Bohr mag/cell
[tb_dev] Currently allocated     1.67E+01 Mbytes, locked:    0 /  14
[tb_pin] Currently allocated     0.00E+00 Mbytes, locked:    0 /   0

     iteration # 20     ecut=    90.00 Ry     beta= 0.10
     Davidson diagonalization with overlap

---- Real-time Memory Report at c_bands before calling an iterative solver
          3712 MiB given to the printing process from OS
         -1300 MiB allocation reported by mallinfo(arena+hblkhd)
         54442 MiB available memory on the node where the printing process lives
     GPU memory used/free/total (MiB): 5428 / 10852 / 16280
------------------
     ethr =  2.86E-09,  avg # of iterations =  2.3

     negative rho (up, down):  1.483E-01 1.483E-01

     total cpu time spent up to now is      343.3 secs

     total energy              =   -1425.52826533 Ry
     estimated scf accuracy    <       0.00000382 Ry

     total magnetization       =     1.07 Bohr mag/cell
     absolute magnetization    =     1.20 Bohr mag/cell
[tb_dev] Currently allocated     1.67E+01 Mbytes, locked:    0 /  14
[tb_pin] Currently allocated     0.00E+00 Mbytes, locked:    0 /   0

     iteration # 21     ecut=    90.00 Ry     beta= 0.10
     Davidson diagonalization with overlap

---- Real-time Memory Report at c_bands before calling an iterative solver
          3720 MiB given to the printing process from OS
         -1294 MiB allocation reported by mallinfo(arena+hblkhd)
         54435 MiB available memory on the node where the printing process lives
     GPU memory used/free/total (MiB): 5428 / 10852 / 16280
------------------
     ethr =  2.86E-09,  avg # of iterations =  2.6

     negative rho (up, down):  1.483E-01 1.483E-01

     total cpu time spent up to now is      356.3 secs

     total energy              =   -1425.52820151 Ry
     estimated scf accuracy    <       0.00000344 Ry

     total magnetization       =     1.05 Bohr mag/cell
     absolute magnetization    =     1.18 Bohr mag/cell
[tb_dev] Currently allocated     1.67E+01 Mbytes, locked:    0 /  14
[tb_pin] Currently allocated     0.00E+00 Mbytes, locked:    0 /   0

     iteration # 22     ecut=    90.00 Ry     beta= 0.10
     Davidson diagonalization with overlap

---- Real-time Memory Report at c_bands before calling an iterative solver
          3724 MiB given to the printing process from OS
         -1288 MiB allocation reported by mallinfo(arena+hblkhd)
         54429 MiB available memory on the node where the printing process lives
     GPU memory used/free/total (MiB): 5428 / 10852 / 16280
------------------
     ethr =  2.86E-09,  avg # of iterations =  5.0

     negative rho (up, down):  1.483E-01 1.483E-01

     total cpu time spent up to now is      375.7 secs

     total energy              =   -1425.52829354 Ry
     estimated scf accuracy    <       0.00000297 Ry

     total magnetization       =     0.96 Bohr mag/cell
     absolute magnetization    =     1.08 Bohr mag/cell
[tb_dev] Currently allocated     1.67E+01 Mbytes, locked:    0 /  14
[tb_pin] Currently allocated     0.00E+00 Mbytes, locked:    0 /   0

     iteration # 23     ecut=    90.00 Ry     beta= 0.10
     Davidson diagonalization with overlap

---- Real-time Memory Report at c_bands before calling an iterative solver
          3733 MiB given to the printing process from OS
         -1282 MiB allocation reported by mallinfo(arena+hblkhd)
         54425 MiB available memory on the node where the printing process lives
     GPU memory used/free/total (MiB): 5428 / 10852 / 16280
------------------
     ethr =  2.86E-09,  avg # of iterations =  3.7

     negative rho (up, down):  1.483E-01 1.483E-01

     total cpu time spent up to now is      391.9 secs

     total energy              =   -1425.52823329 Ry
     estimated scf accuracy    <       0.00000359 Ry

     total magnetization       =     0.93 Bohr mag/cell
     absolute magnetization    =     1.04 Bohr mag/cell
[tb_dev] Currently allocated     1.67E+01 Mbytes, locked:    0 /  14
[tb_pin] Currently allocated     0.00E+00 Mbytes, locked:    0 /   0

     iteration # 24     ecut=    90.00 Ry     beta= 0.10
     Davidson diagonalization with overlap

---- Real-time Memory Report at c_bands before calling an iterative solver
          3739 MiB given to the printing process from OS
         -1276 MiB allocation reported by mallinfo(arena+hblkhd)
         54419 MiB available memory on the node where the printing process lives
     GPU memory used/free/total (MiB): 5428 / 10852 / 16280
------------------
     ethr =  2.86E-09,  avg # of iterations =  4.6

     negative rho (up, down):  1.483E-01 1.483E-01

     total cpu time spent up to now is      410.4 secs

     total energy              =   -1425.52828625 Ry
     estimated scf accuracy    <       0.00000292 Ry

     total magnetization       =     1.00 Bohr mag/cell
     absolute magnetization    =     1.12 Bohr mag/cell
[tb_dev] Currently allocated     1.67E+01 Mbytes, locked:    0 /  14
[tb_pin] Currently allocated     0.00E+00 Mbytes, locked:    0 /   0

     iteration # 25     ecut=    90.00 Ry     beta= 0.10
     Davidson diagonalization with overlap

---- Real-time Memory Report at c_bands before calling an iterative solver
          3743 MiB given to the printing process from OS
         -1270 MiB allocation reported by mallinfo(arena+hblkhd)
         54410 MiB available memory on the node where the printing process lives
     GPU memory used/free/total (MiB): 5428 / 10852 / 16280
------------------
     ethr =  2.86E-09,  avg # of iterations =  1.9

     negative rho (up, down):  1.483E-01 1.483E-01

     total cpu time spent up to now is      422.7 secs

     total energy              =   -1425.52827363 Ry
     estimated scf accuracy    <       0.00000280 Ry

     total magnetization       =     0.99 Bohr mag/cell
     absolute magnetization    =     1.11 Bohr mag/cell
[tb_dev] Currently allocated     1.67E+01 Mbytes, locked:    0 /  14
[tb_pin] Currently allocated     0.00E+00 Mbytes, locked:    0 /   0

     iteration # 26     ecut=    90.00 Ry     beta= 0.10
     Davidson diagonalization with overlap

---- Real-time Memory Report at c_bands before calling an iterative solver
          3748 MiB given to the printing process from OS
         -1264 MiB allocation reported by mallinfo(arena+hblkhd)
         54403 MiB available memory on the node where the printing process lives
     GPU memory used/free/total (MiB): 5428 / 10852 / 16280
------------------
     ethr =  2.86E-09,  avg # of iterations =  2.8

     negative rho (up, down):  1.483E-01 1.483E-01

     total cpu time spent up to now is      436.9 secs

     total energy              =   -1425.52827847 Ry
     estimated scf accuracy    <       0.00000312 Ry

     total magnetization       =     1.01 Bohr mag/cell
     absolute magnetization    =     1.13 Bohr mag/cell
[tb_dev] Currently allocated     1.67E+01 Mbytes, locked:    0 /  14
[tb_pin] Currently allocated     0.00E+00 Mbytes, locked:    0 /   0

     iteration # 27     ecut=    90.00 Ry     beta= 0.10
     Davidson diagonalization with overlap

---- Real-time Memory Report at c_bands before calling an iterative solver
          3754 MiB given to the printing process from OS
         -1258 MiB allocation reported by mallinfo(arena+hblkhd)
         54400 MiB available memory on the node where the printing process lives
     GPU memory used/free/total (MiB): 5428 / 10852 / 16280
------------------
     ethr =  2.86E-09,  avg # of iterations =  3.3

     negative rho (up, down):  1.483E-01 1.483E-01

     total cpu time spent up to now is      452.0 secs

     total energy              =   -1425.52823868 Ry
     estimated scf accuracy    <       0.00000274 Ry

     total magnetization       =     0.98 Bohr mag/cell
     absolute magnetization    =     1.10 Bohr mag/cell
[tb_dev] Currently allocated     1.67E+01 Mbytes, locked:    0 /  14
[tb_pin] Currently allocated     0.00E+00 Mbytes, locked:    0 /   0

     iteration # 28     ecut=    90.00 Ry     beta= 0.10
     Davidson diagonalization with overlap

---- Real-time Memory Report at c_bands before calling an iterative solver
          3765 MiB given to the printing process from OS
         -1252 MiB allocation reported by mallinfo(arena+hblkhd)
         54394 MiB available memory on the node where the printing process lives
     GPU memory used/free/total (MiB): 5428 / 10852 / 16280
------------------
     ethr =  2.85E-09,  avg # of iterations =  4.2

     negative rho (up, down):  1.483E-01 1.483E-01

     total cpu time spent up to now is      469.6 secs

     total energy              =   -1425.52787699 Ry
     estimated scf accuracy    <       0.00000327 Ry

     total magnetization       =     1.03 Bohr mag/cell
     absolute magnetization    =     1.16 Bohr mag/cell
[tb_dev] Currently allocated     1.67E+01 Mbytes, locked:    0 /  14
[tb_pin] Currently allocated     0.00E+00 Mbytes, locked:    0 /   0

     iteration # 29     ecut=    90.00 Ry     beta= 0.10
     Davidson diagonalization with overlap

---- Real-time Memory Report at c_bands before calling an iterative solver
          3771 MiB given to the printing process from OS
         -1246 MiB allocation reported by mallinfo(arena+hblkhd)
         54385 MiB available memory on the node where the printing process lives
     GPU memory used/free/total (MiB): 5428 / 10852 / 16280
------------------
     ethr =  2.85E-09,  avg # of iterations =  6.4

     negative rho (up, down):  1.483E-01 1.483E-01

     total cpu time spent up to now is      492.5 secs

     total energy              =   -1425.52746620 Ry
     estimated scf accuracy    <       0.00001125 Ry

     total magnetization       =     0.81 Bohr mag/cell
     absolute magnetization    =     0.92 Bohr mag/cell
[tb_dev] Currently allocated     1.67E+01 Mbytes, locked:    0 /  14
[tb_pin] Currently allocated     0.00E+00 Mbytes, locked:    0 /   0

     iteration # 30     ecut=    90.00 Ry     beta= 0.10
     Davidson diagonalization with overlap

---- Real-time Memory Report at c_bands before calling an iterative solver
          3776 MiB given to the printing process from OS
         -1240 MiB allocation reported by mallinfo(arena+hblkhd)
         54380 MiB available memory on the node where the printing process lives
     GPU memory used/free/total (MiB): 5428 / 10852 / 16280
------------------
     ethr =  2.85E-09,  avg # of iterations =  7.0

     negative rho (up, down):  1.483E-01 1.483E-01

     total cpu time spent up to now is      517.3 secs

     total energy              =   -1425.52824763 Ry
     estimated scf accuracy    <       0.00000523 Ry

     total magnetization       =     1.09 Bohr mag/cell
     absolute magnetization    =     1.22 Bohr mag/cell
[tb_dev] Currently allocated     1.67E+01 Mbytes, locked:    0 /  14
[tb_pin] Currently allocated     0.00E+00 Mbytes, locked:    0 /   0

     iteration # 31     ecut=    90.00 Ry     beta= 0.10
     Davidson diagonalization with overlap

---- Real-time Memory Report at c_bands before calling an iterative solver
          3785 MiB given to the printing process from OS
         -1234 MiB allocation reported by mallinfo(arena+hblkhd)
         54375 MiB available memory on the node where the printing process lives
     GPU memory used/free/total (MiB): 5428 / 10852 / 16280
------------------
     ethr =  2.85E-09,  avg # of iterations =  2.1

     negative rho (up, down):  1.483E-01 1.483E-01

     total cpu time spent up to now is      529.9 secs

     total energy              =   -1425.52819812 Ry
     estimated scf accuracy    <       0.00000601 Ry

     total magnetization       =     1.10 Bohr mag/cell
     absolute magnetization    =     1.23 Bohr mag/cell
[tb_dev] Currently allocated     1.67E+01 Mbytes, locked:    0 /  14
[tb_pin] Currently allocated     0.00E+00 Mbytes, locked:    0 /   0

     iteration # 32     ecut=    90.00 Ry     beta= 0.10
     Davidson diagonalization with overlap

---- Real-time Memory Report at c_bands before calling an iterative solver
          3787 MiB given to the printing process from OS
         -1228 MiB allocation reported by mallinfo(arena+hblkhd)
         54372 MiB available memory on the node where the printing process lives
     GPU memory used/free/total (MiB): 5428 / 10852 / 16280
------------------
     ethr =  2.85E-09,  avg # of iterations =  4.5

     negative rho (up, down):  1.483E-01 1.483E-01

     total cpu time spent up to now is      548.3 secs

     total energy              =   -1425.52797464 Ry
     estimated scf accuracy    <       0.00001040 Ry

     total magnetization       =     1.14 Bohr mag/cell
     absolute magnetization    =     1.29 Bohr mag/cell
[tb_dev] Currently allocated     1.67E+01 Mbytes, locked:    0 /  14
[tb_pin] Currently allocated     0.00E+00 Mbytes, locked:    0 /   0

     iteration # 33     ecut=    90.00 Ry     beta= 0.10
     Davidson diagonalization with overlap

---- Real-time Memory Report at c_bands before calling an iterative solver
          3796 MiB given to the printing process from OS
         -1222 MiB allocation reported by mallinfo(arena+hblkhd)
         54361 MiB available memory on the node where the printing process lives
     GPU memory used/free/total (MiB): 5428 / 10852 / 16280
------------------
     ethr =  2.85E-09,  avg # of iterations =  6.2

     negative rho (up, down):  1.483E-01 1.483E-01

     total cpu time spent up to now is      570.8 secs

     total energy              =   -1425.52822919 Ry
     estimated scf accuracy    <       0.00000279 Ry

     total magnetization       =     0.97 Bohr mag/cell
     absolute magnetization    =     1.09 Bohr mag/cell
[tb_dev] Currently allocated     1.67E+01 Mbytes, locked:    0 /  14
[tb_pin] Currently allocated     0.00E+00 Mbytes, locked:    0 /   0

     iteration # 34     ecut=    90.00 Ry     beta= 0.10
     Davidson diagonalization with overlap

---- Real-time Memory Report at c_bands before calling an iterative solver
          3802 MiB given to the printing process from OS
         -1216 MiB allocation reported by mallinfo(arena+hblkhd)
         54359 MiB available memory on the node where the printing process lives
     GPU memory used/free/total (MiB): 5428 / 10852 / 16280
------------------
     ethr =  2.85E-09,  avg # of iterations =  4.5

     negative rho (up, down):  1.483E-01 1.483E-01

     total cpu time spent up to now is      589.3 secs

     total energy              =   -1425.52822634 Ry
     estimated scf accuracy    <       0.00000324 Ry

     total magnetization       =     1.04 Bohr mag/cell
     absolute magnetization    =     1.16 Bohr mag/cell
[tb_dev] Currently allocated     1.67E+01 Mbytes, locked:    0 /  14
[tb_pin] Currently allocated     0.00E+00 Mbytes, locked:    0 /   0

     iteration # 35     ecut=    90.00 Ry     beta= 0.10
     Davidson diagonalization with overlap

---- Real-time Memory Report at c_bands before calling an iterative solver
          3807 MiB given to the printing process from OS
         -1210 MiB allocation reported by mallinfo(arena+hblkhd)
         54351 MiB available memory on the node where the printing process lives
     GPU memory used/free/total (MiB): 5428 / 10852 / 16280
------------------
     ethr =  2.85E-09,  avg # of iterations =  4.7

     negative rho (up, down):  1.483E-01 1.483E-01

     total cpu time spent up to now is      608.2 secs

     total energy              =   -1425.52816547 Ry
     estimated scf accuracy    <       0.00000291 Ry

     total magnetization       =     0.95 Bohr mag/cell
     absolute magnetization    =     1.07 Bohr mag/cell
[tb_dev] Currently allocated     1.67E+01 Mbytes, locked:    0 /  14
[tb_pin] Currently allocated     0.00E+00 Mbytes, locked:    0 /   0

     iteration # 36     ecut=    90.00 Ry     beta= 0.10
     Davidson diagonalization with overlap

---- Real-time Memory Report at c_bands before calling an iterative solver
          3811 MiB given to the printing process from OS
         -1204 MiB allocation reported by mallinfo(arena+hblkhd)
         54345 MiB available memory on the node where the printing process lives
     GPU memory used/free/total (MiB): 5428 / 10852 / 16280
------------------
     ethr =  2.85E-09,  avg # of iterations =  5.7

     negative rho (up, down):  1.483E-01 1.483E-01

     total cpu time spent up to now is      629.7 secs

     total energy              =   -1425.52834339 Ry
     estimated scf accuracy    <       0.00000946 Ry

     total magnetization       =     0.82 Bohr mag/cell
     absolute magnetization    =     0.92 Bohr mag/cell
[tb_dev] Currently allocated     1.67E+01 Mbytes, locked:    0 /  14
[tb_pin] Currently allocated     0.00E+00 Mbytes, locked:    0 /   0

     iteration # 37     ecut=    90.00 Ry     beta= 0.10
     Davidson diagonalization with overlap

---- Real-time Memory Report at c_bands before calling an iterative solver
          3820 MiB given to the printing process from OS
         -1198 MiB allocation reported by mallinfo(arena+hblkhd)
         54340 MiB available memory on the node where the printing process lives
     GPU memory used/free/total (MiB): 5428 / 10852 / 16280
------------------
     ethr =  2.85E-09,  avg # of iterations =  1.0

     negative rho (up, down):  1.483E-01 1.483E-01

     total cpu time spent up to now is      641.1 secs

     total energy              =   -1425.52834961 Ry
     estimated scf accuracy    <       0.00000978 Ry

     total magnetization       =     0.81 Bohr mag/cell
     absolute magnetization    =     0.92 Bohr mag/cell
[tb_dev] Currently allocated     1.67E+01 Mbytes, locked:    0 /  14
[tb_pin] Currently allocated     0.00E+00 Mbytes, locked:    0 /   0

     iteration # 38     ecut=    90.00 Ry     beta= 0.10
     Davidson diagonalization with overlap

---- Real-time Memory Report at c_bands before calling an iterative solver
          3825 MiB given to the printing process from OS
         -1192 MiB allocation reported by mallinfo(arena+hblkhd)
         54316 MiB available memory on the node where the printing process lives
     GPU memory used/free/total (MiB): 5428 / 10852 / 16280
------------------
     ethr =  2.85E-09,  avg # of iterations =  3.6

     negative rho (up, down):  1.483E-01 1.483E-01

     total cpu time spent up to now is      656.7 secs

     total energy              =   -1425.52792838 Ry
     estimated scf accuracy    <       0.00001313 Ry

     total magnetization       =     0.78 Bohr mag/cell
     absolute magnetization    =     0.89 Bohr mag/cell
[tb_dev] Currently allocated     1.67E+01 Mbytes, locked:    0 /  14
[tb_pin] Currently allocated     0.00E+00 Mbytes, locked:    0 /   0

     iteration # 39     ecut=    90.00 Ry     beta= 0.10
     Davidson diagonalization with overlap

---- Real-time Memory Report at c_bands before calling an iterative solver
          3832 MiB given to the printing process from OS
         -1186 MiB allocation reported by mallinfo(arena+hblkhd)
         54319 MiB available memory on the node where the printing process lives
     GPU memory used/free/total (MiB): 5428 / 10852 / 16280
------------------
     ethr =  2.85E-09,  avg # of iterations =  6.1

     negative rho (up, down):  1.483E-01 1.483E-01

     total cpu time spent up to now is      678.8 secs

     total energy              =   -1425.52812101 Ry
     estimated scf accuracy    <       0.00000293 Ry

     total magnetization       =     0.97 Bohr mag/cell
     absolute magnetization    =     1.10 Bohr mag/cell
[tb_dev] Currently allocated     1.67E+01 Mbytes, locked:    0 /  14
[tb_pin] Currently allocated     0.00E+00 Mbytes, locked:    0 /   0

     iteration # 40     ecut=    90.00 Ry     beta= 0.10
     Davidson diagonalization with overlap

---- Real-time Memory Report at c_bands before calling an iterative solver
          3839 MiB given to the printing process from OS
         -1180 MiB allocation reported by mallinfo(arena+hblkhd)
         54308 MiB available memory on the node where the printing process lives
     GPU memory used/free/total (MiB): 5428 / 10852 / 16280
------------------
     ethr =  2.85E-09,  avg # of iterations =  5.6

     negative rho (up, down):  1.483E-01 1.483E-01

     total cpu time spent up to now is      700.1 secs

     total energy              =   -1425.52821936 Ry
     estimated scf accuracy    <       0.00000515 Ry

     total magnetization       =     1.09 Bohr mag/cell
     absolute magnetization    =     1.22 Bohr mag/cell
[tb_dev] Currently allocated     1.67E+01 Mbytes, locked:    0 /  14
[tb_pin] Currently allocated     0.00E+00 Mbytes, locked:    0 /   0

     iteration # 41     ecut=    90.00 Ry     beta= 0.10
     Davidson diagonalization with overlap

---- Real-time Memory Report at c_bands before calling an iterative solver
          3845 MiB given to the printing process from OS
         -1174 MiB allocation reported by mallinfo(arena+hblkhd)
         54308 MiB available memory on the node where the printing process lives
     GPU memory used/free/total (MiB): 5428 / 10852 / 16280
------------------
     ethr =  2.85E-09,  avg # of iterations =  3.9

     negative rho (up, down):  1.483E-01 1.483E-01

     total cpu time spent up to now is      717.1 secs

     total energy              =   -1425.52813664 Ry
     estimated scf accuracy    <       0.00000787 Ry

     total magnetization       =     1.12 Bohr mag/cell
     absolute magnetization    =     1.26 Bohr mag/cell
[tb_dev] Currently allocated     1.67E+01 Mbytes, locked:    0 /  14
[tb_pin] Currently allocated     0.00E+00 Mbytes, locked:    0 /   0

     iteration # 42     ecut=    90.00 Ry     beta= 0.10
     Davidson diagonalization with overlap

---- Real-time Memory Report at c_bands before calling an iterative solver
          3852 MiB given to the printing process from OS
         -1168 MiB allocation reported by mallinfo(arena+hblkhd)
         54304 MiB available memory on the node where the printing process lives
     GPU memory used/free/total (MiB): 5428 / 10852 / 16280
------------------
     ethr =  2.85E-09,  avg # of iterations =  4.8

     negative rho (up, down):  1.483E-01 1.483E-01

     total cpu time spent up to now is      736.2 secs

     total energy              =   -1425.52806340 Ry
     estimated scf accuracy    <       0.00001819 Ry

     total magnetization       =     1.19 Bohr mag/cell
     absolute magnetization    =     1.34 Bohr mag/cell
[tb_dev] Currently allocated     1.67E+01 Mbytes, locked:    0 /  14
[tb_pin] Currently allocated     0.00E+00 Mbytes, locked:    0 /   0

     iteration # 43     ecut=    90.00 Ry     beta= 0.10
     Davidson diagonalization with overlap

---- Real-time Memory Report at c_bands before calling an iterative solver
          3858 MiB given to the printing process from OS
         -1162 MiB allocation reported by mallinfo(arena+hblkhd)
         54298 MiB available memory on the node where the printing process lives
     GPU memory used/free/total (MiB): 5428 / 10852 / 16280
------------------
     ethr =  2.85E-09,  avg # of iterations =  5.8

     negative rho (up, down):  1.483E-01 1.483E-01

     total cpu time spent up to now is      757.4 secs

     total energy              =   -1425.52826882 Ry
     estimated scf accuracy    <       0.00000353 Ry

     total magnetization       =     1.06 Bohr mag/cell
     absolute magnetization    =     1.18 Bohr mag/cell
[tb_dev] Currently allocated     1.67E+01 Mbytes, locked:    0 /  14
[tb_pin] Currently allocated     0.00E+00 Mbytes, locked:    0 /   0

     iteration # 44     ecut=    90.00 Ry     beta= 0.10
     Davidson diagonalization with overlap

---- Real-time Memory Report at c_bands before calling an iterative solver
          3863 MiB given to the printing process from OS
         -1156 MiB allocation reported by mallinfo(arena+hblkhd)
         54286 MiB available memory on the node where the printing process lives
     GPU memory used/free/total (MiB): 5428 / 10852 / 16280
------------------
     ethr =  2.85E-09,  avg # of iterations =  3.0

     negative rho (up, down):  1.483E-01 1.483E-01

     total cpu time spent up to now is      771.5 secs

     total energy              =   -1425.52823520 Ry
     estimated scf accuracy    <       0.00000294 Ry

     total magnetization       =     1.04 Bohr mag/cell
     absolute magnetization    =     1.16 Bohr mag/cell
[tb_dev] Currently allocated     1.67E+01 Mbytes, locked:    0 /  14
[tb_pin] Currently allocated     0.00E+00 Mbytes, locked:    0 /   0

     iteration # 45     ecut=    90.00 Ry     beta= 0.10
     Davidson diagonalization with overlap

---- Real-time Memory Report at c_bands before calling an iterative solver
          3872 MiB given to the printing process from OS
         -1150 MiB allocation reported by mallinfo(arena+hblkhd)
         54282 MiB available memory on the node where the printing process lives
     GPU memory used/free/total (MiB): 5428 / 10852 / 16280
------------------
     ethr =  2.85E-09,  avg # of iterations =  4.8

     negative rho (up, down):  1.483E-01 1.483E-01

     total cpu time spent up to now is      790.5 secs

     total energy              =   -1425.52829585 Ry
     estimated scf accuracy    <       0.00000284 Ry

     total magnetization       =     0.96 Bohr mag/cell
     absolute magnetization    =     1.08 Bohr mag/cell
[tb_dev] Currently allocated     1.67E+01 Mbytes, locked:    0 /  14
[tb_pin] Currently allocated     0.00E+00 Mbytes, locked:    0 /   0

     iteration # 46     ecut=    90.00 Ry     beta= 0.10
     Davidson diagonalization with overlap

---- Real-time Memory Report at c_bands before calling an iterative solver
          3878 MiB given to the printing process from OS
         -1144 MiB allocation reported by mallinfo(arena+hblkhd)
         54277 MiB available memory on the node where the printing process lives
     GPU memory used/free/total (MiB): 5428 / 10852 / 16280
------------------
     ethr =  2.85E-09,  avg # of iterations =  1.1

     negative rho (up, down):  1.483E-01 1.483E-01

     total cpu time spent up to now is      801.7 secs

     total energy              =   -1425.52829776 Ry
     estimated scf accuracy    <       0.00000290 Ry

     total magnetization       =     0.95 Bohr mag/cell
     absolute magnetization    =     1.07 Bohr mag/cell
[tb_dev] Currently allocated     1.67E+01 Mbytes, locked:    0 /  14
[tb_pin] Currently allocated     0.00E+00 Mbytes, locked:    0 /   0

     iteration # 47     ecut=    90.00 Ry     beta= 0.10
     Davidson diagonalization with overlap

---- Real-time Memory Report at c_bands before calling an iterative solver
          3884 MiB given to the printing process from OS
         -1138 MiB allocation reported by mallinfo(arena+hblkhd)
         54269 MiB available memory on the node where the printing process lives
     GPU memory used/free/total (MiB): 5428 / 10852 / 16280
------------------
     ethr =  2.85E-09,  avg # of iterations =  1.6

     negative rho (up, down):  1.483E-01 1.483E-01

     total cpu time spent up to now is      813.4 secs

     total energy              =   -1425.52825668 Ry
     estimated scf accuracy    <       0.00000303 Ry

     total magnetization       =     0.95 Bohr mag/cell
     absolute magnetization    =     1.06 Bohr mag/cell
[tb_dev] Currently allocated     1.67E+01 Mbytes, locked:    0 /  14
[tb_pin] Currently allocated     0.00E+00 Mbytes, locked:    0 /   0

     iteration # 48     ecut=    90.00 Ry     beta= 0.10
     Davidson diagonalization with overlap

---- Real-time Memory Report at c_bands before calling an iterative solver
          3891 MiB given to the printing process from OS
         -1132 MiB allocation reported by mallinfo(arena+hblkhd)
         54265 MiB available memory on the node where the printing process lives
     GPU memory used/free/total (MiB): 5428 / 10852 / 16280
------------------
     ethr =  2.85E-09,  avg # of iterations =  4.9

     negative rho (up, down):  1.483E-01 1.483E-01

     total cpu time spent up to now is      832.5 secs

     total energy              =   -1425.52832758 Ry
     estimated scf accuracy    <       0.00000612 Ry

     total magnetization       =     0.86 Bohr mag/cell
     absolute magnetization    =     0.97 Bohr mag/cell
[tb_dev] Currently allocated     1.67E+01 Mbytes, locked:    0 /  14
[tb_pin] Currently allocated     0.00E+00 Mbytes, locked:    0 /   0

     iteration # 49     ecut=    90.00 Ry     beta= 0.10
     Davidson diagonalization with overlap

---- Real-time Memory Report at c_bands before calling an iterative solver
          3899 MiB given to the printing process from OS
         -1098 MiB allocation reported by mallinfo(arena+hblkhd)
         54248 MiB available memory on the node where the printing process lives
     GPU memory used/free/total (MiB): 5428 / 10852 / 16280
------------------
     ethr =  2.85E-09,  avg # of iterations =  1.6

     negative rho (up, down):  1.483E-01 1.483E-01

     total cpu time spent up to now is      844.2 secs

     total energy              =   -1425.52831438 Ry
     estimated scf accuracy    <       0.00000673 Ry

     total magnetization       =     0.85 Bohr mag/cell
     absolute magnetization    =     0.96 Bohr mag/cell
[tb_dev] Currently allocated     1.67E+01 Mbytes, locked:    0 /  14
[tb_pin] Currently allocated     0.00E+00 Mbytes, locked:    0 /   0

     iteration # 50     ecut=    90.00 Ry     beta= 0.10
     Davidson diagonalization with overlap

---- Real-time Memory Report at c_bands before calling an iterative solver
          3907 MiB given to the printing process from OS
         -1092 MiB allocation reported by mallinfo(arena+hblkhd)
         54240 MiB available memory on the node where the printing process lives
     GPU memory used/free/total (MiB): 5428 / 10852 / 16280
------------------
     ethr =  2.85E-09,  avg # of iterations =  2.2

     negative rho (up, down):  1.483E-01 1.483E-01

     total cpu time spent up to now is      857.4 secs

     total energy              =   -1425.52825349 Ry
     estimated scf accuracy    <       0.00000557 Ry

     total magnetization       =     0.88 Bohr mag/cell
     absolute magnetization    =     0.99 Bohr mag/cell
[tb_dev] Currently allocated     1.67E+01 Mbytes, locked:    0 /  14
[tb_pin] Currently allocated     0.00E+00 Mbytes, locked:    0 /   0

     iteration # 51     ecut=    90.00 Ry     beta= 0.10
     Davidson diagonalization with overlap

---- Real-time Memory Report at c_bands before calling an iterative solver
          3913 MiB given to the printing process from OS
         -1086 MiB allocation reported by mallinfo(arena+hblkhd)
         54232 MiB available memory on the node where the printing process lives
     GPU memory used/free/total (MiB): 5428 / 10852 / 16280
------------------
     ethr =  2.85E-09,  avg # of iterations =  4.5

     negative rho (up, down):  1.483E-01 1.483E-01

     total cpu time spent up to now is      875.8 secs

     total energy              =   -1425.52757800 Ry
     estimated scf accuracy    <       0.00000321 Ry

     total magnetization       =     0.94 Bohr mag/cell
     absolute magnetization    =     1.06 Bohr mag/cell
[tb_dev] Currently allocated     1.67E+01 Mbytes, locked:    0 /  14
[tb_pin] Currently allocated     0.00E+00 Mbytes, locked:    0 /   0

     iteration # 52     ecut=    90.00 Ry     beta= 0.10
     Davidson diagonalization with overlap

---- Real-time Memory Report at c_bands before calling an iterative solver
          3919 MiB given to the printing process from OS
         -1080 MiB allocation reported by mallinfo(arena+hblkhd)
         54231 MiB available memory on the node where the printing process lives
     GPU memory used/free/total (MiB): 5428 / 10852 / 16280
------------------
     ethr =  2.85E-09,  avg # of iterations =  7.0

     negative rho (up, down):  1.483E-01 1.483E-01

     total cpu time spent up to now is      900.7 secs

     total energy              =   -1425.52806563 Ry
[...]
     GPU memory used/free/total (MiB): 5428 / 10852 / 16280
------------------
     ethr =  2.71E-09,  avg # of iterations =  1.2

     negative rho (up, down):  1.483E-01 1.483E-01

     total cpu time spent up to now is     1109.8 secs

     total energy              =   -1425.52816356 Ry
     estimated scf accuracy    <       0.00000307 Ry

     total magnetization       =     1.03 Bohr mag/cell
     absolute magnetization    =     1.15 Bohr mag/cell
[tb_dev] Currently allocated     1.67E+01 Mbytes, locked:    0 /  14
[tb_pin] Currently allocated     0.00E+00 Mbytes, locked:    0 /   0

     iteration # 66     ecut=    90.00 Ry     beta= 0.10
     Davidson diagonalization with overlap

---- Real-time Memory Report at c_bands before calling an iterative solver
          4010 MiB given to the printing process from OS
          -996 MiB allocation reported by mallinfo(arena+hblkhd)
         54121 MiB available memory on the node where the printing process lives
     GPU memory used/free/total (MiB): 5428 / 10852 / 16280
------------------
     ethr =  2.71E-09,  avg # of iterations =  5.6

     negative rho (up, down):  1.483E-01 1.483E-01

     total cpu time spent up to now is     1130.8 secs

     total energy              =   -1425.52830590 Ry
     estimated scf accuracy    <       0.00000411 Ry

     total magnetization       =     0.91 Bohr mag/cell
     absolute magnetization    =     1.02 Bohr mag/cell
[tb_dev] Currently allocated     1.67E+01 Mbytes, locked:    0 /  14
[tb_pin] Currently allocated     0.00E+00 Mbytes, locked:    0 /   0

     iteration # 67     ecut=    90.00 Ry     beta= 0.10
     Davidson diagonalization with overlap

---- Real-time Memory Report at c_bands before calling an iterative solver
          4016 MiB given to the printing process from OS
          -990 MiB allocation reported by mallinfo(arena+hblkhd)
         54128 MiB available memory on the node where the printing process lives
     GPU memory used/free/total (MiB): 5428 / 10852 / 16280
------------------
     ethr =  2.71E-09,  avg # of iterations =  1.5

     negative rho (up, down):  1.483E-01 1.483E-01

     total cpu time spent up to now is     1142.4 secs

     total energy              =   -1425.52830916 Ry
     estimated scf accuracy    <       0.00000387 Ry

     total magnetization       =     0.92 Bohr mag/cell
     absolute magnetization    =     1.03 Bohr mag/cell
[tb_dev] Currently allocated     1.67E+01 Mbytes, locked:    0 /  14
[tb_pin] Currently allocated     0.00E+00 Mbytes, locked:    0 /   0

     iteration # 68     ecut=    90.00 Ry     beta= 0.10
     Davidson diagonalization with overlap

---- Real-time Memory Report at c_bands before calling an iterative solver
          4022 MiB given to the printing process from OS
          -984 MiB allocation reported by mallinfo(arena+hblkhd)
         54120 MiB available memory on the node where the printing process lives
     GPU memory used/free/total (MiB): 5428 / 10852 / 16280
------------------
     ethr =  2.71E-09,  avg # of iterations =  1.9

     negative rho (up, down):  1.483E-01 1.483E-01

     total cpu time spent up to now is     1154.6 secs

     total energy              =   -1425.52826758 Ry
     estimated scf accuracy    <       0.00000421 Ry

     total magnetization       =     0.90 Bohr mag/cell
     absolute magnetization    =     1.02 Bohr mag/cell
[tb_dev] Currently allocated     1.67E+01 Mbytes, locked:    0 /  14
[tb_pin] Currently allocated     0.00E+00 Mbytes, locked:    0 /   0

     iteration # 69     ecut=    90.00 Ry     beta= 0.10
     Davidson diagonalization with overlap

---- Real-time Memory Report at c_bands before calling an iterative solver
          4025 MiB given to the printing process from OS
          -992 MiB allocation reported by mallinfo(arena+hblkhd)
         54122 MiB available memory on the node where the printing process lives
     GPU memory used/free/total (MiB): 5428 / 10852 / 16280
------------------
     ethr =  2.71E-09,  avg # of iterations =  4.9

     negative rho (up, down):  1.483E-01 1.483E-01

     total cpu time spent up to now is     1173.7 secs

     total energy              =   -1425.52828413 Ry
     estimated scf accuracy    <       0.00000997 Ry

     total magnetization       =     0.81 Bohr mag/cell
     absolute magnetization    =     0.92 Bohr mag/cell
[tb_dev] Currently allocated     1.67E+01 Mbytes, locked:    0 /  14
[tb_pin] Currently allocated     0.00E+00 Mbytes, locked:    0 /   0

     iteration # 70     ecut=    90.00 Ry     beta= 0.10
     Davidson diagonalization with overlap

---- Real-time Memory Report at c_bands before calling an iterative solver
          4034 MiB given to the printing process from OS
          -986 MiB allocation reported by mallinfo(arena+hblkhd)
         54122 MiB available memory on the node where the printing process lives
     GPU memory used/free/total (MiB): 5428 / 10852 / 16280
------------------
     ethr =  2.71E-09,  avg # of iterations =  4.3

     negative rho (up, down):  1.483E-01 1.483E-01

     total cpu time spent up to now is     1191.5 secs

     total energy              =   -1425.52832403 Ry
     estimated scf accuracy    <       0.00000561 Ry

     total magnetization       =     0.87 Bohr mag/cell
     absolute magnetization    =     0.98 Bohr mag/cell
[tb_dev] Currently allocated     1.67E+01 Mbytes, locked:    0 /  14
[tb_pin] Currently allocated     0.00E+00 Mbytes, locked:    0 /   0

     iteration # 71     ecut=    90.00 Ry     beta= 0.10
     Davidson diagonalization with overlap

---- Real-time Memory Report at c_bands before calling an iterative solver
          4040 MiB given to the printing process from OS
          -980 MiB allocation reported by mallinfo(arena+hblkhd)
         54113 MiB available memory on the node where the printing process lives
     GPU memory used/free/total (MiB): 5428 / 10852 / 16280
------------------
     ethr =  2.71E-09,  avg # of iterations =  2.2

     negative rho (up, down):  1.483E-01 1.483E-01

     total cpu time spent up to now is     1204.4 secs

     total energy              =   -1425.52681877 Ry
     estimated scf accuracy    <       0.00000647 Ry

     total magnetization       =     0.86 Bohr mag/cell
     absolute magnetization    =     0.97 Bohr mag/cell
[tb_dev] Currently allocated     1.67E+01 Mbytes, locked:    0 /  14
[tb_pin] Currently allocated     0.00E+00 Mbytes, locked:    0 /   0

     iteration # 72     ecut=    90.00 Ry     beta= 0.10
     Davidson diagonalization with overlap

---- Real-time Memory Report at c_bands before calling an iterative solver
          4049 MiB given to the printing process from OS
          -966 MiB allocation reported by mallinfo(arena+hblkhd)
         54100 MiB available memory on the node where the printing process lives
     GPU memory used/free/total (MiB): 5428 / 10852 / 16280
------------------
     ethr =  2.71E-09,  avg # of iterations =  7.5

     negative rho (up, down):  1.483E-01 1.483E-01

     total cpu time spent up to now is     1230.7 secs

     total energy              =   -1425.52787082 Ry
     estimated scf accuracy    <       0.00002113 Ry

     total magnetization       =     1.20 Bohr mag/cell
     absolute magnetization    =     1.35 Bohr mag/cell
[tb_dev] Currently allocated     1.67E+01 Mbytes, locked:    0 /  14
[tb_pin] Currently allocated     0.00E+00 Mbytes, locked:    0 /   0

     iteration # 73     ecut=    90.00 Ry     beta= 0.10
     Davidson diagonalization with overlap

---- Real-time Memory Report at c_bands before calling an iterative solver
          4055 MiB given to the printing process from OS
          -960 MiB allocation reported by mallinfo(arena+hblkhd)
         54095 MiB available memory on the node where the printing process lives
     GPU memory used/free/total (MiB): 5428 / 10852 / 16280
------------------
     ethr =  2.71E-09,  avg # of iterations =  6.5

     negative rho (up, down):  1.483E-01 1.483E-01

     total cpu time spent up to now is     1254.0 secs

     total energy              =   -1425.52822206 Ry
     estimated scf accuracy    <       0.00000300 Ry

     total magnetization       =     1.01 Bohr mag/cell
     absolute magnetization    =     1.13 Bohr mag/cell
[tb_dev] Currently allocated     1.67E+01 Mbytes, locked:    0 /  14
[tb_pin] Currently allocated     0.00E+00 Mbytes, locked:    0 /   0

     iteration # 74     ecut=    90.00 Ry     beta= 0.10
     Davidson diagonalization with overlap

---- Real-time Memory Report at c_bands before calling an iterative solver
          4061 MiB given to the printing process from OS
          -954 MiB allocation reported by mallinfo(arena+hblkhd)
         54091 MiB available memory on the node where the printing process lives
     GPU memory used/free/total (MiB): 5428 / 10852 / 16280
------------------
     ethr =  2.71E-09,  avg # of iterations =  4.5

     negative rho (up, down):  1.483E-01 1.483E-01

     total cpu time spent up to now is     1272.3 secs

     total energy              =   -1425.52825513 Ry
     estimated scf accuracy    <       0.00000427 Ry

     total magnetization       =     1.07 Bohr mag/cell
     absolute magnetization    =     1.20 Bohr mag/cell
[tb_dev] Currently allocated     1.67E+01 Mbytes, locked:    0 /  14
[tb_pin] Currently allocated     0.00E+00 Mbytes, locked:    0 /   0

     iteration # 75     ecut=    90.00 Ry     beta= 0.10
     Davidson diagonalization with overlap

---- Real-time Memory Report at c_bands before calling an iterative solver
          4067 MiB given to the printing process from OS
          -948 MiB allocation reported by mallinfo(arena+hblkhd)
         54084 MiB available memory on the node where the printing process lives
     GPU memory used/free/total (MiB): 5428 / 10852 / 16280
------------------
     ethr =  2.71E-09,  avg # of iterations =  2.0

     negative rho (up, down):  1.483E-01 1.483E-01

     total cpu time spent up to now is     1284.6 secs

     total energy              =   -1425.52825242 Ry
     estimated scf accuracy    <       0.00000474 Ry

     total magnetization       =     1.08 Bohr mag/cell
     absolute magnetization    =     1.21 Bohr mag/cell
[tb_dev] Currently allocated     1.67E+01 Mbytes, locked:    0 /  14
[tb_pin] Currently allocated     0.00E+00 Mbytes, locked:    0 /   0

     iteration # 76     ecut=    90.00 Ry     beta= 0.10
     Davidson diagonalization with overlap

---- Real-time Memory Report at c_bands before calling an iterative solver
          4075 MiB given to the printing process from OS
          -942 MiB allocation reported by mallinfo(arena+hblkhd)
         54072 MiB available memory on the node where the printing process lives
     GPU memory used/free/total (MiB): 5428 / 10852 / 16280
------------------
     ethr =  2.71E-09,  avg # of iterations =  3.8

     negative rho (up, down):  1.483E-01 1.483E-01

     total cpu time spent up to now is     1301.3 secs

     total energy              =   -1425.52807992 Ry
     estimated scf accuracy    <       0.00000317 Ry

     total magnetization       =     1.04 Bohr mag/cell
     absolute magnetization    =     1.16 Bohr mag/cell
[tb_dev] Currently allocated     1.67E+01 Mbytes, locked:    0 /  14
[tb_pin] Currently allocated     0.00E+00 Mbytes, locked:    0 /   0

     iteration # 77     ecut=    90.00 Ry     beta= 0.10
     Davidson diagonalization with overlap

---- Real-time Memory Report at c_bands before calling an iterative solver
          4080 MiB given to the printing process from OS
          -936 MiB allocation reported by mallinfo(arena+hblkhd)
         54069 MiB available memory on the node where the printing process lives
     GPU memory used/free/total (MiB): 5428 / 10852 / 16280
------------------
     ethr =  2.71E-09,  avg # of iterations =  6.0

     negative rho (up, down):  1.483E-01 1.483E-01

     total cpu time spent up to now is     1323.1 secs

     total energy              =   -1425.52816240 Ry
     estimated scf accuracy    <       0.00000532 Ry

     total magnetization       =     0.88 Bohr mag/cell
     absolute magnetization    =     0.99 Bohr mag/cell
[tb_dev] Currently allocated     1.67E+01 Mbytes, locked:    0 /  14
[tb_pin] Currently allocated     0.00E+00 Mbytes, locked:    0 /   0

     iteration # 78     ecut=    90.00 Ry     beta= 0.10
     Davidson diagonalization with overlap

---- Real-time Memory Report at c_bands before calling an iterative solver
          4089 MiB given to the printing process from OS
          -930 MiB allocation reported by mallinfo(arena+hblkhd)
         54068 MiB available memory on the node where the printing process lives
     GPU memory used/free/total (MiB): 5428 / 10852 / 16280
------------------
     ethr =  2.71E-09,  avg # of iterations =  5.1

     negative rho (up, down):  1.483E-01 1.483E-01

     total cpu time spent up to now is     1342.5 secs

     total energy              =   -1425.52817542 Ry
     estimated scf accuracy    <       0.00000298 Ry

     total magnetization       =     0.99 Bohr mag/cell
     absolute magnetization    =     1.11 Bohr mag/cell
[tb_dev] Currently allocated     1.67E+01 Mbytes, locked:    0 /  14
[tb_pin] Currently allocated     0.00E+00 Mbytes, locked:    0 /   0

     iteration # 79     ecut=    90.00 Ry     beta= 0.10
     Davidson diagonalization with overlap

---- Real-time Memory Report at c_bands before calling an iterative solver
          4095 MiB given to the printing process from OS
          -924 MiB allocation reported by mallinfo(arena+hblkhd)
         54060 MiB available memory on the node where the printing process lives
     GPU memory used/free/total (MiB): 5428 / 10852 / 16280
------------------
     ethr =  2.71E-09,  avg # of iterations =  5.0

     negative rho (up, down):  1.483E-01 1.483E-01

     total cpu time spent up to now is     1361.9 secs

     total energy              =   -1425.52825437 Ry
     estimated scf accuracy    <       0.00000465 Ry

     total magnetization       =     1.08 Bohr mag/cell
     absolute magnetization    =     1.21 Bohr mag/cell
[tb_dev] Currently allocated     1.67E+01 Mbytes, locked:    0 /  14
[tb_pin] Currently allocated     0.00E+00 Mbytes, locked:    0 /   0

     iteration # 80     ecut=    90.00 Ry     beta= 0.10
     Davidson diagonalization with overlap

---- Real-time Memory Report at c_bands before calling an iterative solver
          4102 MiB given to the printing process from OS
          -918 MiB allocation reported by mallinfo(arena+hblkhd)
         54053 MiB available memory on the node where the printing process lives
     GPU memory used/free/total (MiB): 5428 / 10852 / 16280
------------------
     ethr =  2.71E-09,  avg # of iterations =  3.9

     negative rho (up, down):  1.483E-01 1.483E-01

     total cpu time spent up to now is     1378.7 secs

     total energy              =   -1425.52819815 Ry
     estimated scf accuracy    <       0.00000320 Ry

     total magnetization       =     1.04 Bohr mag/cell
     absolute magnetization    =     1.17 Bohr mag/cell

     End of self-consistent calculation

     convergence NOT achieved after  80 iterations: stopping

     Writing config to output data dir ./out/aiida.save/
 
     init_run     :     31.48s CPU      6.52s WALL (       1 calls)
     electrons    :   2337.34s CPU   1371.36s WALL (       1 calls)

     Called by init_run:
     wfcinit      :      0.92s CPU      0.92s WALL (       1 calls)
                                        0.92s GPU  (       1 calls)
     potinit      :     14.92s CPU      1.57s WALL (       1 calls)
     hinit0       :      8.87s CPU      3.04s WALL (       1 calls)

     Called by electrons:
     c_bands      :   1039.44s CPU   1106.76s WALL (      81 calls)
     sum_band     :    146.54s CPU    159.45s WALL (      81 calls)
     v_of_rho     :     60.01s CPU      5.47s WALL (      81 calls)
     v_h          :     10.16s CPU      0.90s WALL (      81 calls)
     v_xc         :     49.84s CPU      4.57s WALL (      81 calls)
     newd         :    134.82s CPU     12.62s WALL (      81 calls)
                                       12.61s GPU  (      81 calls)
     PAW_pot      :    900.31s CPU     81.61s WALL (      81 calls)
     mix_rho      :     46.68s CPU      4.67s WALL (      81 calls)

     Called by c_bands:
     init_us_2    :     48.18s CPU     55.80s WALL (   31104 calls)
     init_us_2:gp :     47.63s CPU     55.26s WALL (   31104 calls)
     cegterg      :    899.94s CPU    965.26s WALL (   15552 calls)

     Called by sum_band:
     sum_band:wei :      0.84s CPU      0.84s WALL (      81 calls)
                                        0.84s GPU  (      81 calls)
     sum_band:loo :    127.62s CPU    140.21s WALL (      81 calls)
                                      140.21s GPU  (      81 calls)
     sum_band:buf :     38.61s CPU     40.17s WALL (   15552 calls)
                                       40.08s GPU  (   15552 calls)
     sum_band:ini :     22.76s CPU     27.14s WALL (   15552 calls)
                                       27.06s GPU  (   15552 calls)
     sum_band:cal :      0.44s CPU      5.22s WALL (   15552 calls)
                                        4.10s GPU  (   15552 calls)
     sum_band:bec :      4.28s CPU      4.66s WALL (   15552 calls)
                                        4.55s GPU  (   15552 calls)
     addusdens    :     14.32s CPU     14.59s WALL (      81 calls)
                                       14.59s GPU  (      81 calls)
     addusd:skk   :      0.04s CPU      0.04s WALL (     243 calls)
                                        0.04s GPU  (     243 calls)

     Called by *egterg:
     cdiaghg      :    323.05s CPU    375.47s WALL (   75694 calls)
                                      374.97s GPU  (   75694 calls)
     cegterg:over :     21.05s CPU     21.98s WALL (   60526 calls)
     cegterg:upda :     37.75s CPU     40.46s WALL (   60526 calls)
     cegterg:last :     19.08s CPU     19.74s WALL (   43210 calls)
     h_psi        :    442.21s CPU    450.36s WALL (   76078 calls)
                                      449.28s GPU  (   76078 calls)
     s_psi        :     11.01s CPU     27.59s WALL (   76078 calls)
                                       25.55s GPU  (   76078 calls)
     g_psi        :      0.42s CPU      2.97s WALL (   60526 calls)
                                        2.58s GPU  (   60526 calls)

     Called by h_psi:
     h_psi:calbec :      2.37s CPU     18.28s WALL (   76078 calls)
                                       17.78s GPU  (   76078 calls)
     vloc_psi     :    384.26s CPU    394.54s WALL (   76078 calls)
                                      394.07s GPU  (   76078 calls)
     add_vuspsi   :     16.45s CPU     30.42s WALL (   76078 calls)
                                       29.92s GPU  (   76078 calls)

     General routines
     calbec       :      2.02s CPU      2.13s WALL (   91630 calls)
     fft          :      3.45s CPU      0.73s WALL (    2025 calls)
                                        0.58s GPU  (    1863 calls)
     ffts         :      0.06s CPU      0.05s WALL (     324 calls)
                                        0.01s GPU  (     162 calls)
     fftw         :      9.18s CPU    307.71s WALL (  481140 calls)
                                      304.86s GPU  (  481140 calls)
     interpolate  :      7.58s CPU      0.67s WALL (     162 calls)
     davcio       :      0.25s CPU      2.15s WALL (     402 calls)
 
     Parallel routines

     PAW routines
     PAW_pot      :    900.31s CPU     81.61s WALL (      81 calls)
     PAW_symme    :      0.57s CPU      0.09s WALL (     161 calls)
 
     PWSCF        :  39m31.88s CPU  23m 0.43s WALL

 
   This run was terminated on:  21:47:34  23Oct2023            

=------------------------------------------------------------------------------=
   JOB DONE.
=------------------------------------------------------------------------------=
