
     Program PWSCF v.7.2 starts on 23Oct2023 at 20:18:52 

     This program is part of the open-source Quantum ESPRESSO suite
     for quantum simulation of materials; please cite
         "P. Giannozzi et al., J. Phys.:Condens. Matter 21 395502 (2009);
         "P. Giannozzi et al., J. Phys.:Condens. Matter 29 465901 (2017);
         "P. Giannozzi et al., J. Chem. Phys. 152 154105 (2020);
          URL http://www.quantum-espresso.org", 
     in publications or presentations arising from this work. More details at
     http://www.quantum-espresso.org/quote

     Parallel version (MPI & OpenMP), running on      12 processor cores
     Number of MPI processes:                 1
     Threads/MPI process:                    12

     MPI processes distributed on     1 nodes
     38630 MiB available memory on the printing compute node when the environment starts
 
     Reading input from aiida.in

     Current dimensions of program PWSCF are:
     Max number of different atomic species (ntypx) = 10
     Max number of k-points (npk) =  40000
     Max angular momentum in pseudopotentials (lmaxx) =  4
     file O.pbesol-n-kjpaw_psl.0.1.UPF: wavefunction(s)  2P renormalized
     Message from routine setup:
     using ibrav=0 with symmetry is DISCOURAGED, use correct ibrav instead
 
     Subspace diagonalization in iterative solution of the eigenvalue problem:
     a serial algorithm will be used

 
     G-vector sticks info
     --------------------
     sticks:   dense  smooth     PW     G-vecs:    dense   smooth      PW
     Sum        2735    1359    399               107339    37897    5977
 
     Using Slab Decomposition
 


     bravais-lattice index     =            0
     lattice parameter (alat)  =       8.4603  a.u.
     unit-cell volume          =     604.0218 (a.u.)^3
     number of atoms/cell      =            5
     number of atomic types    =            3
     number of electrons       =        30.00
     number of Kohn-Sham states=           19
     kinetic-energy cutoff     =      60.0000  Ry
     charge density cutoff     =     480.0000  Ry
     scf convergence threshold =      1.0E-09
     mixing beta               =       0.4000
     number of iterations used =            8  plain     mixing
     Exchange-correlation= SLA  PW   PSX  PSC
                           (   1   4  10   8   0   0   0)

     GPU acceleration is ACTIVE.


     GPU used by master process:

        Device Number: 0
        Device name: Tesla P100-PCIE-16GB
        Compute capability : 60
        Ratio of single to double precision performance  : 2
        Memory Clock Rate (KHz): 715000
        Memory Bus Width (bits): 4096
        Peak Memory Bandwidth (GB/s): 732.16

     celldm(1)=   8.460298  celldm(2)=   0.000000  celldm(3)=   0.000000
     celldm(4)=   0.000000  celldm(5)=   0.000000  celldm(6)=   0.000000

     crystal axes: (cart. coord. in units of alat)
               a(1) = (   0.692205   0.399645   0.600946 )  
               a(2) = (  -0.692205   0.399645   0.600946 )  
               a(3) = (   0.000000  -0.799290   0.600946 )  

     reciprocal axes: (cart. coord. in units 2 pi/alat)
               b(1) = (  0.722329  0.417037  0.554681 )  
               b(2) = ( -0.722329  0.417037  0.554681 )  
               b(3) = (  0.000000 -0.834074  0.554681 )  


     PseudoPot. # 1 for Br read from file:
     ./pseudo/br_pbesol_v1.4.uspp.F.UPF
     MD5 check sum: 7bf6084e715f6bfd1944787c04c43e72
     Pseudo is Ultrasoft + core correction, Zval =  7.0
     Generated by new atomic code, or converted to UPF format
     Using radial grid of  879 points,  6 beta functions with: 
                l(1) =   0
                l(2) =   0
                l(3) =   1
                l(4) =   1
                l(5) =   2
                l(6) =   2
     Q(r) pseudized with  8 coefficients,  rinner =    1.200   1.200   1.200
                                                       1.200   1.200

     PseudoPot. # 2 for N  read from file:
     ./pseudo/N.pbesol-theos.UPF
     MD5 check sum: 1b64827339d390a5a22afef3ff345c9d
     Pseudo is Ultrasoft + core correction, Zval =  5.0
     Generated using "atomic" code by A. Dal Corso  v.5.1
     Using radial grid of 1085 points,  4 beta functions with: 
                l(1) =   0
                l(2) =   0
                l(3) =   1
                l(4) =   1
     Q(r) pseudized with 0 coefficients 


     PseudoPot. # 3 for O  read from file:
     ./pseudo/O.pbesol-n-kjpaw_psl.0.1.UPF
     MD5 check sum: 81d73d1479e654e5638b0319f0d6c2c7
     Pseudo is Projector augmented-wave + core cor, Zval =  6.0
     Generated using "atomic" code by A. Dal Corso  v.6.0 svn rev. 13079
     Shape of augmentation charge: BESSEL
     Using radial grid of 1095 points,  4 beta functions with: 
                l(1) =   0
                l(2) =   0
                l(3) =   1
                l(4) =   1
     Q(r) pseudized with 0 coefficients 


     atomic species   valence    mass     pseudopotential
        Br             7.00    79.90400     Br( 1.00)
        N              5.00    14.00670     N ( 1.00)
        O              6.00    15.99940     O ( 1.00)

     Starting magnetic structure 
     atomic species   magnetization
        Br           0.100
        N            0.100
        O            0.100

      6 Sym. Ops. (no inversion) found


                                    s                        frac. trans.

      isym =  1     identity                                     

 cryst.   s( 1) = (     1          0          0      )
                  (     0          1          0      )
                  (     0          0          1      )

 cart.    s( 1) = (  1.0000000  0.0000000  0.0000000 )
                  ( -0.0000000  1.0000000 -0.0000000 )
                  ( -0.0000000 -0.0000000  1.0000000 )


      isym =  2     120 deg rotation - cryst. axis [0,0,1]       

 cryst.   s( 2) = (     0          1          0      )
                  (     0          0          1      )
                  (     1          0          0      )

 cart.    s( 2) = ( -0.5000000 -0.8660254  0.0000000 )
                  (  0.8660254 -0.5000000 -0.0000000 )
                  ( -0.0000000  0.0000000  1.0000000 )


      isym =  3     120 deg rotation - cryst. axis [0,0,-1]      

 cryst.   s( 3) = (     0          0          1      )
                  (     1          0          0      )
                  (     0          1          0      )

 cart.    s( 3) = ( -0.5000000  0.8660254  0.0000000 )
                  ( -0.8660254 -0.5000000 -0.0000000 )
                  (  0.0000000 -0.0000000  1.0000000 )


      isym =  4     inv. 180 deg rotation - cart. axis [1,0,0]   

 cryst.   s( 4) = (     0          1          0      )
                  (     1          0          0      )
                  (     0          0          1      )

 cart.    s( 4) = ( -1.0000000  0.0000000  0.0000000 )
                  ( -0.0000000  1.0000000 -0.0000000 )
                  (  0.0000000 -0.0000000  1.0000000 )


      isym =  5     inv. 180 deg rotation - cryst. axis [0,1,0]  

 cryst.   s( 5) = (     1          0          0      )
                  (     0          0          1      )
                  (     0          1          0      )

 cart.    s( 5) = (  0.5000000  0.8660254  0.0000000 )
                  (  0.8660254 -0.5000000 -0.0000000 )
                  ( -0.0000000 -0.0000000  1.0000000 )


      isym =  6     inv. 180 deg rotation - cryst. axis [1,1,0]  

 cryst.   s( 6) = (     0          0          1      )
                  (     0          1          0      )
                  (     1          0          0      )

 cart.    s( 6) = (  0.5000000 -0.8660254  0.0000000 )
                  ( -0.8660254 -0.5000000 -0.0000000 )
                  (  0.0000000  0.0000000  1.0000000 )


   Cartesian axes

     site n.     atom                  positions (alat units)
         1           Br  tau(   1) = (  -0.0000000   0.7992896   0.3004730  )
         2           N   tau(   2) = (   0.0000000  -0.0000000   0.0000000  )
         3           O   tau(   3) = (  -0.2906569   0.6314788   0.1545032  )
         4           O   tau(   4) = (   0.2906569   0.6314788   0.1545032  )
         5           O   tau(   5) = (  -0.0000000   1.1349113   0.1545032  )

   Crystallographic axes

     site n.     atom                  positions (cryst. coord.)
         1           Br  tau(   1) = (  0.5000000  0.5000000 -0.5000000  )
         2           N   tau(   2) = (  0.0000000  0.0000000  0.0000000  )
         3           O   tau(   3) = (  0.1391000  0.5590000 -0.4410000  )
         4           O   tau(   4) = (  0.5590000  0.1391000 -0.4410000  )
         5           O   tau(   5) = (  0.5590000  0.5590000 -0.8609000  )

     number of k points=   116  Marzari-Vanderbilt smearing, width (Ry)=  0.0100
                       cart. coord. in units 2pi/alat
        k(    1) = (   0.0000000   0.0000000   0.0000000), wk =   0.0010000
        k(    2) = (   0.0000000  -0.0834074   0.0554681), wk =   0.0060000
        k(    3) = (   0.0000000  -0.1668148   0.1109362), wk =   0.0060000
        k(    4) = (   0.0000000  -0.2502222   0.1664043), wk =   0.0060000
        k(    5) = (   0.0000000  -0.3336296   0.2218724), wk =   0.0060000
        k(    6) = (  -0.0000000   0.4170370  -0.2773405), wk =   0.0030000
        k(    7) = (  -0.0722329  -0.0417037   0.1109362), wk =   0.0060000
        k(    8) = (  -0.0722329  -0.1251111   0.1664043), wk =   0.0120000
        k(    9) = (  -0.0722329  -0.2085185   0.2218724), wk =   0.0120000
        k(   10) = (  -0.0722329  -0.2919259   0.2773405), wk =   0.0120000
        k(   11) = (  -0.0722329   0.4587407  -0.2218724), wk =   0.0120000
        k(   12) = (  -0.0722329   0.3753333  -0.1664043), wk =   0.0120000
        k(   13) = (  -0.0722329   0.2919259  -0.1109362), wk =   0.0120000
        k(   14) = (  -0.0722329   0.2085185  -0.0554681), wk =   0.0120000
        k(   15) = (  -0.0722329   0.1251111   0.0000000), wk =   0.0060000
        k(   16) = (  -0.1444659  -0.0834074   0.2218724), wk =   0.0060000
        k(   17) = (  -0.1444659  -0.1668148   0.2773405), wk =   0.0120000
        k(   18) = (  -0.1444659  -0.2502222   0.3328086), wk =   0.0120000
        k(   19) = (  -0.1444659   0.5004444  -0.1664043), wk =   0.0120000
        k(   20) = (  -0.1444659   0.4170370  -0.1109362), wk =   0.0120000
        k(   21) = (  -0.1444659   0.3336296  -0.0554681), wk =   0.0120000
        k(   22) = (  -0.1444659   0.2502222   0.0000000), wk =   0.0060000
        k(   23) = (  -0.2166988  -0.1251111   0.3328086), wk =   0.0060000
        k(   24) = (  -0.2166988  -0.2085185   0.3882767), wk =   0.0120000
        k(   25) = (  -0.2166988   0.5421481  -0.1109362), wk =   0.0120000
        k(   26) = (  -0.2166988   0.4587407  -0.0554681), wk =   0.0120000
        k(   27) = (  -0.2166988   0.3753333  -0.0000000), wk =   0.0060000
        k(   28) = (  -0.2889317  -0.1668148   0.4437448), wk =   0.0060000
        k(   29) = (  -0.2889317   0.5838518  -0.0554681), wk =   0.0120000
        k(   30) = (  -0.2889317   0.5004444  -0.0000000), wk =   0.0060000
        k(   31) = (   0.3611646   0.2085185  -0.5546810), wk =   0.0030000
        k(   32) = (  -0.0000000   0.0000000   0.1664043), wk =   0.0020000
        k(   33) = (  -0.0000000  -0.0834074   0.2218724), wk =   0.0060000
        k(   34) = (  -0.0000000  -0.1668148   0.2773405), wk =   0.0060000
        k(   35) = (  -0.0000000  -0.2502222   0.3328086), wk =   0.0060000
        k(   36) = (  -0.0000000   0.5004444  -0.1664043), wk =   0.0060000
        k(   37) = (  -0.0000000   0.4170370  -0.1109362), wk =   0.0060000
        k(   38) = (  -0.0000000   0.3336296  -0.0554681), wk =   0.0060000
        k(   39) = (  -0.0000000   0.2502222   0.0000000), wk =   0.0060000
        k(   40) = (  -0.0000000   0.1668148   0.0554681), wk =   0.0060000
        k(   41) = (  -0.0722329  -0.0417037   0.2773405), wk =   0.0060000
        k(   42) = (  -0.0722329  -0.1251111   0.3328086), wk =   0.0120000
        k(   43) = (  -0.0722329  -0.2085185   0.3882767), wk =   0.0120000
        k(   44) = (  -0.0722329   0.5421481  -0.1109362), wk =   0.0120000
        k(   45) = (  -0.0722329   0.4587407  -0.0554681), wk =   0.0120000
        k(   46) = (  -0.0722329   0.3753333  -0.0000000), wk =   0.0120000
        k(   47) = (  -0.0722329   0.2919259   0.0554681), wk =   0.0120000
        k(   48) = (  -0.0722329   0.2085185   0.1109362), wk =   0.0120000
        k(   49) = (  -0.1444659  -0.0834074   0.3882767), wk =   0.0060000
        k(   50) = (  -0.1444659  -0.1668148   0.4437448), wk =   0.0120000
        k(   51) = (  -0.1444659   0.5838518  -0.0554681), wk =   0.0120000
        k(   52) = (  -0.1444659   0.5004444  -0.0000000), wk =   0.0120000
        k(   53) = (  -0.1444659   0.4170370   0.0554681), wk =   0.0120000
        k(   54) = (  -0.1444659   0.3336296   0.1109362), wk =   0.0120000
        k(   55) = (  -0.1444659   0.2502222   0.1664043), wk =   0.0120000
        k(   56) = (  -0.2166988  -0.1251111   0.4992129), wk =   0.0060000
        k(   57) = (  -0.2166988   0.6255555   0.0000000), wk =   0.0120000
        k(   58) = (  -0.2166988   0.5421481   0.0554681), wk =   0.0120000
        k(   59) = (  -0.2166988   0.4587407   0.1109362), wk =   0.0120000
        k(   60) = (  -0.2166988   0.3753333   0.1664043), wk =   0.0120000
        k(   61) = (  -0.2166988   0.2919259   0.2218724), wk =   0.0120000
        k(   62) = (   0.4333976   0.2502222  -0.4992129), wk =   0.0060000
        k(   63) = (   0.4333976   0.1668148  -0.4437448), wk =   0.0120000
        k(   64) = (   0.4333976   0.0834074  -0.3882767), wk =   0.0120000
        k(   65) = (   0.4333976  -0.0000000  -0.3328086), wk =   0.0120000
        k(   66) = (   0.4333976  -0.0834074  -0.2773405), wk =   0.0060000
        k(   67) = (   0.3611646   0.2085185  -0.3882767), wk =   0.0060000
        k(   68) = (   0.3611646   0.1251111  -0.3328086), wk =   0.0120000
        k(   69) = (   0.3611646   0.0417037  -0.2773405), wk =   0.0120000
        k(   70) = (   0.2889317   0.1668148  -0.2773405), wk =   0.0060000
        k(   71) = (   0.2889317   0.0834074  -0.2218724), wk =   0.0120000
        k(   72) = (   0.2166988   0.1251111  -0.1664043), wk =   0.0060000
        k(   73) = (  -0.0000000   0.0000000   0.3328086), wk =   0.0020000
        k(   74) = (  -0.0000000  -0.0834074   0.3882767), wk =   0.0060000
        k(   75) = (  -0.0000000  -0.1668148   0.4437448), wk =   0.0060000
        k(   76) = (  -0.0000000   0.5838518  -0.0554681), wk =   0.0060000
        k(   77) = (  -0.0000000   0.5004444  -0.0000000), wk =   0.0060000
        k(   78) = (  -0.0000000   0.4170370   0.0554681), wk =   0.0060000
        k(   79) = (  -0.0000000   0.3336296   0.1109362), wk =   0.0060000
        k(   80) = (  -0.0722329  -0.0417037   0.4437448), wk =   0.0060000
        k(   81) = (  -0.0722329  -0.1251111   0.4992129), wk =   0.0120000
        k(   82) = (  -0.0722329   0.6255555   0.0000000), wk =   0.0120000
        k(   83) = (  -0.0722329   0.5421481   0.0554681), wk =   0.0120000
        k(   84) = (  -0.0722329   0.4587407   0.1109362), wk =   0.0120000
        k(   85) = (  -0.0722329   0.3753333   0.1664043), wk =   0.0120000
        k(   86) = (  -0.1444659  -0.0834074   0.5546810), wk =   0.0060000
        k(   87) = (  -0.1444659   0.6672592   0.0554681), wk =   0.0120000
        k(   88) = (  -0.1444659   0.5838518   0.1109362), wk =   0.0120000
        k(   89) = (  -0.1444659   0.5004444   0.1664043), wk =   0.0120000
        k(   90) = (  -0.1444659   0.4170370   0.2218724), wk =   0.0120000
        k(   91) = (   0.5056305   0.2919259  -0.4437448), wk =   0.0060000
        k(   92) = (   0.5056305   0.2085185  -0.3882767), wk =   0.0120000
        k(   93) = (   0.5056305   0.1251111  -0.3328086), wk =   0.0120000
        k(   94) = (   0.5056305   0.0417037  -0.2773405), wk =   0.0060000
        k(   95) = (   0.4333976   0.2502222  -0.3328086), wk =   0.0060000
        k(   96) = (   0.4333976   0.1668148  -0.2773405), wk =   0.0120000
        k(   97) = (   0.3611646   0.2085185  -0.2218724), wk =   0.0060000
        k(   98) = (   0.0000000  -0.0000000   0.4992129), wk =   0.0020000
        k(   99) = (   0.0000000  -0.0834074   0.5546810), wk =   0.0060000
        k(  100) = (   0.0000000   0.6672592   0.0554681), wk =   0.0060000
        k(  101) = (   0.0000000   0.5838518   0.1109362), wk =   0.0060000
        k(  102) = (   0.0000000   0.5004444   0.1664043), wk =   0.0060000
        k(  103) = (  -0.0722329  -0.0417037   0.6101491), wk =   0.0060000
        k(  104) = (  -0.0722329   0.7089629   0.1109362), wk =   0.0120000
        k(  105) = (  -0.0722329   0.6255555   0.1664043), wk =   0.0120000
        k(  106) = (  -0.0722329   0.5421481   0.2218724), wk =   0.0120000
        k(  107) = (   0.5778634   0.3336296  -0.3882767), wk =   0.0060000
        k(  108) = (   0.5778634   0.2502222  -0.3328086), wk =   0.0120000
        k(  109) = (   0.5778634   0.1668148  -0.2773405), wk =   0.0060000
        k(  110) = (   0.5056305   0.2919259  -0.2773405), wk =   0.0060000
        k(  111) = (  -0.0000000   0.0000000   0.6656172), wk =   0.0020000
        k(  112) = (  -0.0000000   0.7506666   0.1664043), wk =   0.0060000
        k(  113) = (  -0.0000000   0.6672592   0.2218724), wk =   0.0060000
        k(  114) = (   0.6500963   0.3753333  -0.3328086), wk =   0.0060000
        k(  115) = (   0.6500963   0.2919259  -0.2773405), wk =   0.0060000
        k(  116) = (  -0.0000000   0.0000000  -0.8320215), wk =   0.0010000

                       cryst. coord.
        k(    1) = (   0.0000000   0.0000000   0.0000000), wk =   0.0010000
        k(    2) = (  -0.0000000  -0.0000000   0.1000000), wk =   0.0060000
        k(    3) = (  -0.0000000  -0.0000000   0.2000000), wk =   0.0060000
        k(    4) = (  -0.0000000  -0.0000000   0.3000000), wk =   0.0060000
        k(    5) = (  -0.0000000  -0.0000000   0.4000000), wk =   0.0060000
        k(    6) = (   0.0000000   0.0000000  -0.5000000), wk =   0.0030000
        k(    7) = (  -0.0000000   0.1000000   0.1000000), wk =   0.0060000
        k(    8) = (  -0.0000000   0.1000000   0.2000000), wk =   0.0120000
        k(    9) = (  -0.0000000   0.1000000   0.3000000), wk =   0.0120000
        k(   10) = (  -0.0000000   0.1000000   0.4000000), wk =   0.0120000
        k(   11) = (   0.0000000   0.1000000  -0.5000000), wk =   0.0120000
        k(   12) = (   0.0000000   0.1000000  -0.4000000), wk =   0.0120000
        k(   13) = (   0.0000000   0.1000000  -0.3000000), wk =   0.0120000
        k(   14) = (   0.0000000   0.1000000  -0.2000000), wk =   0.0120000
        k(   15) = (   0.0000000   0.1000000  -0.1000000), wk =   0.0060000
        k(   16) = (  -0.0000000   0.2000000   0.2000000), wk =   0.0060000
        k(   17) = (  -0.0000000   0.2000000   0.3000000), wk =   0.0120000
        k(   18) = (  -0.0000000   0.2000000   0.4000000), wk =   0.0120000
        k(   19) = (   0.0000000   0.2000000  -0.5000000), wk =   0.0120000
        k(   20) = (   0.0000000   0.2000000  -0.4000000), wk =   0.0120000
        k(   21) = (  -0.0000000   0.2000000  -0.3000000), wk =   0.0120000
        k(   22) = (   0.0000000   0.2000000  -0.2000000), wk =   0.0060000
        k(   23) = (  -0.0000000   0.3000000   0.3000000), wk =   0.0060000
        k(   24) = (  -0.0000000   0.3000000   0.4000000), wk =   0.0120000
        k(   25) = (   0.0000000   0.3000000  -0.5000000), wk =   0.0120000
        k(   26) = (  -0.0000000   0.3000000  -0.4000000), wk =   0.0120000
        k(   27) = (  -0.0000000   0.3000000  -0.3000000), wk =   0.0060000
        k(   28) = (  -0.0000000   0.4000000   0.4000000), wk =   0.0060000
        k(   29) = (  -0.0000000   0.4000000  -0.5000000), wk =   0.0120000
        k(   30) = (  -0.0000000   0.4000000  -0.4000000), wk =   0.0060000
        k(   31) = (   0.0000000  -0.5000000  -0.5000000), wk =   0.0030000
        k(   32) = (   0.1000000   0.1000000   0.1000000), wk =   0.0020000
        k(   33) = (   0.1000000   0.1000000   0.2000000), wk =   0.0060000
        k(   34) = (   0.1000000   0.1000000   0.3000000), wk =   0.0060000
        k(   35) = (   0.1000000   0.1000000   0.4000000), wk =   0.0060000
        k(   36) = (   0.1000000   0.1000000  -0.5000000), wk =   0.0060000
        k(   37) = (   0.1000000   0.1000000  -0.4000000), wk =   0.0060000
        k(   38) = (   0.1000000   0.1000000  -0.3000000), wk =   0.0060000
        k(   39) = (   0.1000000   0.1000000  -0.2000000), wk =   0.0060000
        k(   40) = (   0.1000000   0.1000000  -0.1000000), wk =   0.0060000
        k(   41) = (   0.1000000   0.2000000   0.2000000), wk =   0.0060000
        k(   42) = (   0.1000000   0.2000000   0.3000000), wk =   0.0120000
        k(   43) = (   0.1000000   0.2000000   0.4000000), wk =   0.0120000
        k(   44) = (   0.1000000   0.2000000  -0.5000000), wk =   0.0120000
        k(   45) = (   0.1000000   0.2000000  -0.4000000), wk =   0.0120000
        k(   46) = (   0.1000000   0.2000000  -0.3000000), wk =   0.0120000
        k(   47) = (   0.1000000   0.2000000  -0.2000000), wk =   0.0120000
        k(   48) = (   0.1000000   0.2000000  -0.1000000), wk =   0.0120000
        k(   49) = (   0.1000000   0.3000000   0.3000000), wk =   0.0060000
        k(   50) = (   0.1000000   0.3000000   0.4000000), wk =   0.0120000
        k(   51) = (   0.1000000   0.3000000  -0.5000000), wk =   0.0120000
        k(   52) = (   0.1000000   0.3000000  -0.4000000), wk =   0.0120000
        k(   53) = (   0.1000000   0.3000000  -0.3000000), wk =   0.0120000
        k(   54) = (   0.1000000   0.3000000  -0.2000000), wk =   0.0120000
        k(   55) = (   0.1000000   0.3000000  -0.1000000), wk =   0.0120000
        k(   56) = (   0.1000000   0.4000000   0.4000000), wk =   0.0060000
        k(   57) = (   0.1000000   0.4000000  -0.5000000), wk =   0.0120000
        k(   58) = (   0.1000000   0.4000000  -0.4000000), wk =   0.0120000
        k(   59) = (   0.1000000   0.4000000  -0.3000000), wk =   0.0120000
        k(   60) = (   0.1000000   0.4000000  -0.2000000), wk =   0.0120000
        k(   61) = (   0.1000000   0.4000000  -0.1000000), wk =   0.0120000
        k(   62) = (   0.1000000  -0.5000000  -0.5000000), wk =   0.0060000
        k(   63) = (   0.1000000  -0.5000000  -0.4000000), wk =   0.0120000
        k(   64) = (   0.1000000  -0.5000000  -0.3000000), wk =   0.0120000
        k(   65) = (   0.1000000  -0.5000000  -0.2000000), wk =   0.0120000
        k(   66) = (   0.1000000  -0.5000000  -0.1000000), wk =   0.0060000
        k(   67) = (   0.1000000  -0.4000000  -0.4000000), wk =   0.0060000
        k(   68) = (   0.1000000  -0.4000000  -0.3000000), wk =   0.0120000
        k(   69) = (   0.1000000  -0.4000000  -0.2000000), wk =   0.0120000
        k(   70) = (   0.1000000  -0.3000000  -0.3000000), wk =   0.0060000
        k(   71) = (   0.1000000  -0.3000000  -0.2000000), wk =   0.0120000
        k(   72) = (   0.1000000  -0.2000000  -0.2000000), wk =   0.0060000
        k(   73) = (   0.2000000   0.2000000   0.2000000), wk =   0.0020000
        k(   74) = (   0.2000000   0.2000000   0.3000000), wk =   0.0060000
        k(   75) = (   0.2000000   0.2000000   0.4000000), wk =   0.0060000
        k(   76) = (   0.2000000   0.2000000  -0.5000000), wk =   0.0060000
        k(   77) = (   0.2000000   0.2000000  -0.4000000), wk =   0.0060000
        k(   78) = (   0.2000000   0.2000000  -0.3000000), wk =   0.0060000
        k(   79) = (   0.2000000   0.2000000  -0.2000000), wk =   0.0060000
        k(   80) = (   0.2000000   0.3000000   0.3000000), wk =   0.0060000
        k(   81) = (   0.2000000   0.3000000   0.4000000), wk =   0.0120000
        k(   82) = (   0.2000000   0.3000000  -0.5000000), wk =   0.0120000
        k(   83) = (   0.2000000   0.3000000  -0.4000000), wk =   0.0120000
        k(   84) = (   0.2000000   0.3000000  -0.3000000), wk =   0.0120000
        k(   85) = (   0.2000000   0.3000000  -0.2000000), wk =   0.0120000
        k(   86) = (   0.2000000   0.4000000   0.4000000), wk =   0.0060000
        k(   87) = (   0.2000000   0.4000000  -0.5000000), wk =   0.0120000
        k(   88) = (   0.2000000   0.4000000  -0.4000000), wk =   0.0120000
        k(   89) = (   0.2000000   0.4000000  -0.3000000), wk =   0.0120000
        k(   90) = (   0.2000000   0.4000000  -0.2000000), wk =   0.0120000
        k(   91) = (   0.2000000  -0.5000000  -0.5000000), wk =   0.0060000
        k(   92) = (   0.2000000  -0.5000000  -0.4000000), wk =   0.0120000
        k(   93) = (   0.2000000  -0.5000000  -0.3000000), wk =   0.0120000
        k(   94) = (   0.2000000  -0.5000000  -0.2000000), wk =   0.0060000
        k(   95) = (   0.2000000  -0.4000000  -0.4000000), wk =   0.0060000
        k(   96) = (   0.2000000  -0.4000000  -0.3000000), wk =   0.0120000
        k(   97) = (   0.2000000  -0.3000000  -0.3000000), wk =   0.0060000
        k(   98) = (   0.3000000   0.3000000   0.3000000), wk =   0.0020000
        k(   99) = (   0.3000000   0.3000000   0.4000000), wk =   0.0060000
        k(  100) = (   0.3000000   0.3000000  -0.5000000), wk =   0.0060000
        k(  101) = (   0.3000000   0.3000000  -0.4000000), wk =   0.0060000
        k(  102) = (   0.3000000   0.3000000  -0.3000000), wk =   0.0060000
        k(  103) = (   0.3000000   0.4000000   0.4000000), wk =   0.0060000
        k(  104) = (   0.3000000   0.4000000  -0.5000000), wk =   0.0120000
        k(  105) = (   0.3000000   0.4000000  -0.4000000), wk =   0.0120000
        k(  106) = (   0.3000000   0.4000000  -0.3000000), wk =   0.0120000
        k(  107) = (   0.3000000  -0.5000000  -0.5000000), wk =   0.0060000
        k(  108) = (   0.3000000  -0.5000000  -0.4000000), wk =   0.0120000
        k(  109) = (   0.3000000  -0.5000000  -0.3000000), wk =   0.0060000
        k(  110) = (   0.3000000  -0.4000000  -0.4000000), wk =   0.0060000
        k(  111) = (   0.4000000   0.4000000   0.4000000), wk =   0.0020000
        k(  112) = (   0.4000000   0.4000000  -0.5000000), wk =   0.0060000
        k(  113) = (   0.4000000   0.4000000  -0.4000000), wk =   0.0060000
        k(  114) = (   0.4000000  -0.5000000  -0.5000000), wk =   0.0060000
        k(  115) = (   0.4000000  -0.5000000  -0.4000000), wk =   0.0060000
        k(  116) = (  -0.5000000  -0.5000000  -0.5000000), wk =   0.0010000

     Dense  grid:   107339 G-vectors     FFT dimensions: (  60,  60,  60)

     Smooth grid:    37897 G-vectors     FFT dimensions: (  45,  45,  45)

     Dynamical RAM for                 wfc:       1.37 MB

     Dynamical RAM for     wfc (w. buffer):     320.26 MB

     Dynamical RAM for           str. fact:       4.91 MB

     Dynamical RAM for           local pot:       0.00 MB

     Dynamical RAM for          nlocal pot:       3.62 MB

     Dynamical RAM for                qrad:       5.27 MB

     Dynamical RAM for          rho,v,vnew:      19.71 MB

     Dynamical RAM for               rhoin:       6.57 MB

     Dynamical RAM for            rho*nmix:      52.41 MB

     Dynamical RAM for           G-vectors:       6.43 MB

     Dynamical RAM for          h,s,v(r/c):       0.07 MB

     Dynamical RAM for          <psi|beta>:       0.01 MB

     Dynamical RAM for                 psi:       2.75 MB

     Dynamical RAM for                hpsi:       2.75 MB

     Dynamical RAM for                spsi:       2.75 MB

     Dynamical RAM for      wfcinit/wfcrot:       2.90 MB

     Dynamical RAM for           addusdens:     311.19 MB

     Dynamical RAM for          addusforce:     317.77 MB

     Dynamical RAM for         addusstress:     331.67 MB

     Estimated static dynamical RAM per process >     383.22 MB

     Estimated max dynamical RAM per process >     767.30 MB
     Generating pointlists ...
     new r_m :   0.1510 (alat units)  1.2773 (a.u.) for type    1
     new r_m :   0.2655 (alat units)  2.2463 (a.u.) for type    2
     new r_m :   0.1510 (alat units)  1.2773 (a.u.) for type    3

     Initial potential from superposition of free atoms

     starting charge      30.0000, renormalised to      30.0000
     Starting wfcs are   20 randomized atomic wfcs
     Checking if some PAW data can be deallocated... 

     total cpu time spent up to now is        5.5 secs

     per-process dynamical memory:  1052.2 Mb

     Self-consistent Calculation
[tb_dev] Currently allocated     3.31E+00 Mbytes, locked:    0 /  12
[tb_pin] Currently allocated     0.00E+00 Mbytes, locked:    0 /   0

     iteration #  1     ecut=    60.00 Ry     beta= 0.40
     Davidson diagonalization with overlap

---- Real-time Memory Report at c_bands before calling an iterative solver
          1301 MiB given to the printing process from OS
          1035 MiB allocation reported by mallinfo(arena+hblkhd)
         36206 MiB available memory on the node where the printing process lives
     GPU memory used/free/total (MiB): 1056 / 15224 / 16280
------------------
     ethr =  1.00E-02,  avg # of iterations =  2.3

     total cpu time spent up to now is        9.5 secs

     total energy              =    -182.16174848 Ry
     estimated scf accuracy    <       2.09498098 Ry

     total magnetization       =     2.00 Bohr mag/cell
     absolute magnetization    =     2.10 Bohr mag/cell
[tb_dev] Currently allocated     3.31E+00 Mbytes, locked:    0 /  10
[tb_pin] Currently allocated     0.00E+00 Mbytes, locked:    0 /   0

     iteration #  2     ecut=    60.00 Ry     beta= 0.40
     Davidson diagonalization with overlap

---- Real-time Memory Report at c_bands before calling an iterative solver
          1404 MiB given to the printing process from OS
          1100 MiB allocation reported by mallinfo(arena+hblkhd)
         36175 MiB available memory on the node where the printing process lives
     GPU memory used/free/total (MiB): 1418 / 14862 / 16280
------------------
     ethr =  6.98E-03,  avg # of iterations =  3.2

     total cpu time spent up to now is       14.0 secs

     total energy              =    -182.13264684 Ry
     estimated scf accuracy    <       7.51731215 Ry

     total magnetization       =     1.84 Bohr mag/cell
     absolute magnetization    =     1.92 Bohr mag/cell
[tb_dev] Currently allocated     3.31E+00 Mbytes, locked:    0 /  10
[tb_pin] Currently allocated     0.00E+00 Mbytes, locked:    0 /   0

     iteration #  3     ecut=    60.00 Ry     beta= 0.40
     Davidson diagonalization with overlap

---- Real-time Memory Report at c_bands before calling an iterative solver
          1487 MiB given to the printing process from OS
          1113 MiB allocation reported by mallinfo(arena+hblkhd)
         36163 MiB available memory on the node where the printing process lives
     GPU memory used/free/total (MiB): 1498 / 14782 / 16280
------------------
     ethr =  6.98E-03,  avg # of iterations =  2.0

     total cpu time spent up to now is       17.6 secs

     total energy              =    -183.02134509 Ry
     estimated scf accuracy    <       0.51625797 Ry

     total magnetization       =     2.00 Bohr mag/cell
     absolute magnetization    =     2.10 Bohr mag/cell
[tb_dev] Currently allocated     3.31E+00 Mbytes, locked:    0 /  10
[tb_pin] Currently allocated     0.00E+00 Mbytes, locked:    0 /   0

     iteration #  4     ecut=    60.00 Ry     beta= 0.40
     Davidson diagonalization with overlap

---- Real-time Memory Report at c_bands before calling an iterative solver
          1564 MiB given to the printing process from OS
          1122 MiB allocation reported by mallinfo(arena+hblkhd)
         36152 MiB available memory on the node where the printing process lives
     GPU memory used/free/total (MiB): 1498 / 14782 / 16280
------------------
     ethr =  1.72E-03,  avg # of iterations =  1.9

     total cpu time spent up to now is       21.2 secs

     total energy              =    -182.99602972 Ry
     estimated scf accuracy    <       0.27840700 Ry

     total magnetization       =     1.99 Bohr mag/cell
     absolute magnetization    =     2.09 Bohr mag/cell
[tb_dev] Currently allocated     3.31E+00 Mbytes, locked:    0 /  10
[tb_pin] Currently allocated     0.00E+00 Mbytes, locked:    0 /   0

     iteration #  5     ecut=    60.00 Ry     beta= 0.40
     Davidson diagonalization with overlap

---- Real-time Memory Report at c_bands before calling an iterative solver
          1642 MiB given to the printing process from OS
          1130 MiB allocation reported by mallinfo(arena+hblkhd)
         36141 MiB available memory on the node where the printing process lives
     GPU memory used/free/total (MiB): 1498 / 14782 / 16280
------------------
     ethr =  9.28E-04,  avg # of iterations =  1.6

     total cpu time spent up to now is       24.8 secs

     total energy              =    -183.12699952 Ry
     estimated scf accuracy    <       0.25414579 Ry

     total magnetization       =     3.47 Bohr mag/cell
     absolute magnetization    =     3.47 Bohr mag/cell
[tb_dev] Currently allocated     3.31E+00 Mbytes, locked:    0 /  10
[tb_pin] Currently allocated     0.00E+00 Mbytes, locked:    0 /   0

     iteration #  6     ecut=    60.00 Ry     beta= 0.40
     Davidson diagonalization with overlap

---- Real-time Memory Report at c_bands before calling an iterative solver
          1720 MiB given to the printing process from OS
          1139 MiB allocation reported by mallinfo(arena+hblkhd)
         36128 MiB available memory on the node where the printing process lives
     GPU memory used/free/total (MiB): 1498 / 14782 / 16280
------------------
     ethr =  8.47E-04,  avg # of iterations =  1.0

     total cpu time spent up to now is       27.8 secs

     total energy              =    -183.15261043 Ry
     estimated scf accuracy    <       0.27334742 Ry

     total magnetization       =     3.46 Bohr mag/cell
     absolute magnetization    =     3.46 Bohr mag/cell
[tb_dev] Currently allocated     3.31E+00 Mbytes, locked:    0 /  10
[tb_pin] Currently allocated     0.00E+00 Mbytes, locked:    0 /   0

     iteration #  7     ecut=    60.00 Ry     beta= 0.40
     Davidson diagonalization with overlap

---- Real-time Memory Report at c_bands before calling an iterative solver
          1797 MiB given to the printing process from OS
          1147 MiB allocation reported by mallinfo(arena+hblkhd)
         36116 MiB available memory on the node where the printing process lives
     GPU memory used/free/total (MiB): 1498 / 14782 / 16280
------------------
     ethr =  8.47E-04,  avg # of iterations =  1.0

     total cpu time spent up to now is       31.0 secs

     total energy              =    -183.14861001 Ry
     estimated scf accuracy    <       0.33948468 Ry

     total magnetization       =     3.46 Bohr mag/cell
     absolute magnetization    =     3.46 Bohr mag/cell
[tb_dev] Currently allocated     3.31E+00 Mbytes, locked:    0 /  10
[tb_pin] Currently allocated     0.00E+00 Mbytes, locked:    0 /   0

     iteration #  8     ecut=    60.00 Ry     beta= 0.40
     Davidson diagonalization with overlap

---- Real-time Memory Report at c_bands before calling an iterative solver
          1851 MiB given to the printing process from OS
          1156 MiB allocation reported by mallinfo(arena+hblkhd)
         36103 MiB available memory on the node where the printing process lives
     GPU memory used/free/total (MiB): 1498 / 14782 / 16280
------------------
     ethr =  8.47E-04,  avg # of iterations =  1.0

     total cpu time spent up to now is       34.1 secs

     total energy              =    -183.15812854 Ry
     estimated scf accuracy    <       0.20245993 Ry

     total magnetization       =     3.74 Bohr mag/cell
     absolute magnetization    =     3.74 Bohr mag/cell
[tb_dev] Currently allocated     3.31E+00 Mbytes, locked:    0 /  10
[tb_pin] Currently allocated     0.00E+00 Mbytes, locked:    0 /   0

     iteration #  9     ecut=    60.00 Ry     beta= 0.40
     Davidson diagonalization with overlap

---- Real-time Memory Report at c_bands before calling an iterative solver
          1887 MiB given to the printing process from OS
          1164 MiB allocation reported by mallinfo(arena+hblkhd)
         36099 MiB available memory on the node where the printing process lives
     GPU memory used/free/total (MiB): 1498 / 14782 / 16280
------------------
     ethr =  6.75E-04,  avg # of iterations =  1.0

     total cpu time spent up to now is       37.3 secs

     total energy              =    -183.16401232 Ry
     estimated scf accuracy    <       0.18418868 Ry

     total magnetization       =     3.84 Bohr mag/cell
     absolute magnetization    =     3.84 Bohr mag/cell
[tb_dev] Currently allocated     3.31E+00 Mbytes, locked:    0 /  10
[tb_pin] Currently allocated     0.00E+00 Mbytes, locked:    0 /   0

     iteration # 10     ecut=    60.00 Ry     beta= 0.40
     Davidson diagonalization with overlap

---- Real-time Memory Report at c_bands before calling an iterative solver
          1925 MiB given to the printing process from OS
          1174 MiB allocation reported by mallinfo(arena+hblkhd)
         36087 MiB available memory on the node where the printing process lives
     GPU memory used/free/total (MiB): 1498 / 14782 / 16280
------------------
     ethr =  6.14E-04,  avg # of iterations =  1.0

     total cpu time spent up to now is       40.4 secs

     total energy              =    -183.16130398 Ry
     estimated scf accuracy    <       0.12953777 Ry

     total magnetization       =     4.01 Bohr mag/cell
     absolute magnetization    =     4.02 Bohr mag/cell
[tb_dev] Currently allocated     3.31E+00 Mbytes, locked:    0 /  10
[tb_pin] Currently allocated     0.00E+00 Mbytes, locked:    0 /   0

     iteration # 11     ecut=    60.00 Ry     beta= 0.40
     Davidson diagonalization with overlap

---- Real-time Memory Report at c_bands before calling an iterative solver
          1952 MiB given to the printing process from OS
          1182 MiB allocation reported by mallinfo(arena+hblkhd)
         36083 MiB available memory on the node where the printing process lives
     GPU memory used/free/total (MiB): 1498 / 14782 / 16280
------------------
     ethr =  4.32E-04,  avg # of iterations =  1.0

     total cpu time spent up to now is       43.6 secs

     total energy              =    -183.15156081 Ry
     estimated scf accuracy    <       0.10477878 Ry

     total magnetization       =     4.02 Bohr mag/cell
     absolute magnetization    =     4.04 Bohr mag/cell
[tb_dev] Currently allocated     3.31E+00 Mbytes, locked:    0 /  10
[tb_pin] Currently allocated     0.00E+00 Mbytes, locked:    0 /   0

     iteration # 12     ecut=    60.00 Ry     beta= 0.40
     Davidson diagonalization with overlap

---- Real-time Memory Report at c_bands before calling an iterative solver
          1978 MiB given to the printing process from OS
          1187 MiB allocation reported by mallinfo(arena+hblkhd)
         36077 MiB available memory on the node where the printing process lives
     GPU memory used/free/total (MiB): 1498 / 14782 / 16280
------------------
     ethr =  3.49E-04,  avg # of iterations =  1.0

     total cpu time spent up to now is       46.7 secs

     total energy              =    -183.14672400 Ry
     estimated scf accuracy    <       0.07490663 Ry

     total magnetization       =     4.01 Bohr mag/cell
     absolute magnetization    =     4.04 Bohr mag/cell
[tb_dev] Currently allocated     3.31E+00 Mbytes, locked:    0 /  10
[tb_pin] Currently allocated     0.00E+00 Mbytes, locked:    0 /   0

     iteration # 13     ecut=    60.00 Ry     beta= 0.40
     Davidson diagonalization with overlap

---- Real-time Memory Report at c_bands before calling an iterative solver
          2002 MiB given to the printing process from OS
          1192 MiB allocation reported by mallinfo(arena+hblkhd)
         36073 MiB available memory on the node where the printing process lives
     GPU memory used/free/total (MiB): 1498 / 14782 / 16280
------------------
     ethr =  2.50E-04,  avg # of iterations =  1.0

     total cpu time spent up to now is       49.9 secs

     total energy              =    -183.15155453 Ry
     estimated scf accuracy    <       0.05919741 Ry

     total magnetization       =     4.01 Bohr mag/cell
     absolute magnetization    =     4.04 Bohr mag/cell
[tb_dev] Currently allocated     3.31E+00 Mbytes, locked:    0 /  10
[tb_pin] Currently allocated     0.00E+00 Mbytes, locked:    0 /   0

     iteration # 14     ecut=    60.00 Ry     beta= 0.40
     Davidson diagonalization with overlap

---- Real-time Memory Report at c_bands before calling an iterative solver
          2029 MiB given to the printing process from OS
          1197 MiB allocation reported by mallinfo(arena+hblkhd)
         36067 MiB available memory on the node where the printing process lives
     GPU memory used/free/total (MiB): 1498 / 14782 / 16280
------------------
     ethr =  1.97E-04,  avg # of iterations =  1.0

     total cpu time spent up to now is       53.0 secs

     total energy              =    -183.11320790 Ry
     estimated scf accuracy    <       0.07197526 Ry

     total magnetization       =     4.01 Bohr mag/cell
     absolute magnetization    =     4.04 Bohr mag/cell
[tb_dev] Currently allocated     3.31E+00 Mbytes, locked:    0 /  10
[tb_pin] Currently allocated     0.00E+00 Mbytes, locked:    0 /   0

     iteration # 15     ecut=    60.00 Ry     beta= 0.40
     Davidson diagonalization with overlap

---- Real-time Memory Report at c_bands before calling an iterative solver
          2054 MiB given to the printing process from OS
          1202 MiB allocation reported by mallinfo(arena+hblkhd)
         36063 MiB available memory on the node where the printing process lives
     GPU memory used/free/total (MiB): 1498 / 14782 / 16280
------------------
     ethr =  1.97E-04,  avg # of iterations =  2.5

     total cpu time spent up to now is       57.0 secs

     total energy              =    -183.13273918 Ry
     estimated scf accuracy    <       0.31046486 Ry

     total magnetization       =     2.13 Bohr mag/cell
     absolute magnetization    =     2.37 Bohr mag/cell
[tb_dev] Currently allocated     3.31E+00 Mbytes, locked:    0 /  10
[tb_pin] Currently allocated     0.00E+00 Mbytes, locked:    0 /   0

     iteration # 16     ecut=    60.00 Ry     beta= 0.40
     Davidson diagonalization with overlap

---- Real-time Memory Report at c_bands before calling an iterative solver
          2078 MiB given to the printing process from OS
          1207 MiB allocation reported by mallinfo(arena+hblkhd)
         36057 MiB available memory on the node where the printing process lives
     GPU memory used/free/total (MiB): 1498 / 14782 / 16280
------------------
     ethr =  1.97E-04,  avg # of iterations =  1.0

     total cpu time spent up to now is       60.1 secs

     total energy              =    -183.13470438 Ry
     estimated scf accuracy    <       0.19169831 Ry

     total magnetization       =     2.40 Bohr mag/cell
     absolute magnetization    =     2.57 Bohr mag/cell
[tb_dev] Currently allocated     3.31E+00 Mbytes, locked:    0 /  10
[tb_pin] Currently allocated     0.00E+00 Mbytes, locked:    0 /   0

     iteration # 17     ecut=    60.00 Ry     beta= 0.40
     Davidson diagonalization with overlap

---- Real-time Memory Report at c_bands before calling an iterative solver
          2088 MiB given to the printing process from OS
          1212 MiB allocation reported by mallinfo(arena+hblkhd)
         36054 MiB available memory on the node where the printing process lives
     GPU memory used/free/total (MiB): 1498 / 14782 / 16280
------------------
     ethr =  1.97E-04,  avg # of iterations =  1.0

     total cpu time spent up to now is       63.2 secs

     total energy              =    -183.13267245 Ry
     estimated scf accuracy    <       0.21244813 Ry

     total magnetization       =     2.35 Bohr mag/cell
     absolute magnetization    =     2.53 Bohr mag/cell
[tb_dev] Currently allocated     3.31E+00 Mbytes, locked:    0 /  10
[tb_pin] Currently allocated     0.00E+00 Mbytes, locked:    0 /   0

     iteration # 18     ecut=    60.00 Ry     beta= 0.40
     Davidson diagonalization with overlap

---- Real-time Memory Report at c_bands before calling an iterative solver
          2098 MiB given to the printing process from OS
          1217 MiB allocation reported by mallinfo(arena+hblkhd)
         36049 MiB available memory on the node where the printing process lives
     GPU memory used/free/total (MiB): 1498 / 14782 / 16280
------------------
     ethr =  1.97E-04,  avg # of iterations =  1.0

     total cpu time spent up to now is       66.3 secs

     total energy              =    -183.13183148 Ry
     estimated scf accuracy    <       0.14261170 Ry

     total magnetization       =     2.54 Bohr mag/cell
     absolute magnetization    =     2.68 Bohr mag/cell
[tb_dev] Currently allocated     3.31E+00 Mbytes, locked:    0 /  10
[tb_pin] Currently allocated     0.00E+00 Mbytes, locked:    0 /   0

     iteration # 19     ecut=    60.00 Ry     beta= 0.40
     Davidson diagonalization with overlap

---- Real-time Memory Report at c_bands before calling an iterative solver
          2107 MiB given to the printing process from OS
          1222 MiB allocation reported by mallinfo(arena+hblkhd)
         36044 MiB available memory on the node where the printing process lives
     GPU memory used/free/total (MiB): 1498 / 14782 / 16280
------------------
     ethr =  1.97E-04,  avg # of iterations =  1.0

     total cpu time spent up to now is       69.4 secs

     total energy              =    -183.13131618 Ry
     estimated scf accuracy    <       0.10190351 Ry

     total magnetization       =     2.68 Bohr mag/cell
     absolute magnetization    =     2.79 Bohr mag/cell
[tb_dev] Currently allocated     3.31E+00 Mbytes, locked:    0 /  10
[tb_pin] Currently allocated     0.00E+00 Mbytes, locked:    0 /   0

     iteration # 20     ecut=    60.00 Ry     beta= 0.40
     Davidson diagonalization with overlap

---- Real-time Memory Report at c_bands before calling an iterative solver
          2117 MiB given to the printing process from OS
          1227 MiB allocation reported by mallinfo(arena+hblkhd)
         36036 MiB available memory on the node where the printing process lives
     GPU memory used/free/total (MiB): 1498 / 14782 / 16280
------------------
     ethr =  1.97E-04,  avg # of iterations =  1.0

     total cpu time spent up to now is       72.5 secs

     total energy              =    -183.12954552 Ry
     estimated scf accuracy    <       0.08364791 Ry

     total magnetization       =     2.73 Bohr mag/cell
     absolute magnetization    =     2.83 Bohr mag/cell
[tb_dev] Currently allocated     3.31E+00 Mbytes, locked:    0 /  10
[tb_pin] Currently allocated     0.00E+00 Mbytes, locked:    0 /   0

     iteration # 21     ecut=    60.00 Ry     beta= 0.40
     Davidson diagonalization with overlap

---- Real-time Memory Report at c_bands before calling an iterative solver
          2127 MiB given to the printing process from OS
          1232 MiB allocation reported by mallinfo(arena+hblkhd)
         36034 MiB available memory on the node where the printing process lives
     GPU memory used/free/total (MiB): 1498 / 14782 / 16280
------------------
     ethr =  1.97E-04,  avg # of iterations =  1.0

     total cpu time spent up to now is       75.7 secs

     total energy              =    -183.12979317 Ry
     estimated scf accuracy    <       0.02771703 Ry

     total magnetization       =     3.03 Bohr mag/cell
     absolute magnetization    =     3.10 Bohr mag/cell
[tb_dev] Currently allocated     3.31E+00 Mbytes, locked:    0 /  10
[tb_pin] Currently allocated     0.00E+00 Mbytes, locked:    0 /   0

     iteration # 22     ecut=    60.00 Ry     beta= 0.40
     Davidson diagonalization with overlap

---- Real-time Memory Report at c_bands before calling an iterative solver
          2133 MiB given to the printing process from OS
          1237 MiB allocation reported by mallinfo(arena+hblkhd)
         36030 MiB available memory on the node where the printing process lives
     GPU memory used/free/total (MiB): 1498 / 14782 / 16280
------------------
     ethr =  9.24E-05,  avg # of iterations =  1.1

     total cpu time spent up to now is       78.8 secs

     total energy              =    -183.12987185 Ry
     estimated scf accuracy    <       0.01242630 Ry

     total magnetization       =     3.13 Bohr mag/cell
     absolute magnetization    =     3.19 Bohr mag/cell
[tb_dev] Currently allocated     3.31E+00 Mbytes, locked:    0 /  10
[tb_pin] Currently allocated     0.00E+00 Mbytes, locked:    0 /   0

     iteration # 23     ecut=    60.00 Ry     beta= 0.40
     Davidson diagonalization with overlap

---- Real-time Memory Report at c_bands before calling an iterative solver
          2140 MiB given to the printing process from OS
          1243 MiB allocation reported by mallinfo(arena+hblkhd)
         36023 MiB available memory on the node where the printing process lives
     GPU memory used/free/total (MiB): 1498 / 14782 / 16280
------------------
     ethr =  4.14E-05,  avg # of iterations =  1.2

     total cpu time spent up to now is       82.2 secs

     total energy              =    -183.12799344 Ry
     estimated scf accuracy    <       0.00510525 Ry

     total magnetization       =     3.23 Bohr mag/cell
     absolute magnetization    =     3.28 Bohr mag/cell
[tb_dev] Currently allocated     3.31E+00 Mbytes, locked:    0 /  10
[tb_pin] Currently allocated     0.00E+00 Mbytes, locked:    0 /   0

     iteration # 24     ecut=    60.00 Ry     beta= 0.40
     Davidson diagonalization with overlap

---- Real-time Memory Report at c_bands before calling an iterative solver
          2147 MiB given to the printing process from OS
          1248 MiB allocation reported by mallinfo(arena+hblkhd)
         36016 MiB available memory on the node where the printing process lives
     GPU memory used/free/total (MiB): 1498 / 14782 / 16280
------------------
     ethr =  1.70E-05,  avg # of iterations =  6.2

     total cpu time spent up to now is       88.4 secs

     total energy              =    -183.12907968 Ry
     estimated scf accuracy    <       0.00768405 Ry

     total magnetization       =     3.59 Bohr mag/cell
     absolute magnetization    =     3.62 Bohr mag/cell
[tb_dev] Currently allocated     3.31E+00 Mbytes, locked:    0 /  10
[tb_pin] Currently allocated     0.00E+00 Mbytes, locked:    0 /   0

     iteration # 25     ecut=    60.00 Ry     beta= 0.40
     Davidson diagonalization with overlap

---- Real-time Memory Report at c_bands before calling an iterative solver
          2153 MiB given to the printing process from OS
          1254 MiB allocation reported by mallinfo(arena+hblkhd)
         36011 MiB available memory on the node where the printing process lives
     GPU memory used/free/total (MiB): 1498 / 14782 / 16280
------------------
     ethr =  1.70E-05,  avg # of iterations =  1.3

     total cpu time spent up to now is       91.8 secs

     total energy              =    -183.12864810 Ry
     estimated scf accuracy    <       0.00556930 Ry

     total magnetization       =     3.68 Bohr mag/cell
     absolute magnetization    =     3.71 Bohr mag/cell
[tb_dev] Currently allocated     3.31E+00 Mbytes, locked:    0 /  10
[tb_pin] Currently allocated     0.00E+00 Mbytes, locked:    0 /   0

     iteration # 26     ecut=    60.00 Ry     beta= 0.40
     Davidson diagonalization with overlap

---- Real-time Memory Report at c_bands before calling an iterative solver
          2160 MiB given to the printing process from OS
          1259 MiB allocation reported by mallinfo(arena+hblkhd)
         36004 MiB available memory on the node where the printing process lives
     GPU memory used/free/total (MiB): 1498 / 14782 / 16280
------------------
     ethr =  1.70E-05,  avg # of iterations =  1.0

     total cpu time spent up to now is       94.8 secs

     total energy              =    -183.12892328 Ry
     estimated scf accuracy    <       0.00082653 Ry

     total magnetization       =     3.63 Bohr mag/cell
     absolute magnetization    =     3.67 Bohr mag/cell
[tb_dev] Currently allocated     3.31E+00 Mbytes, locked:    0 /  10
[tb_pin] Currently allocated     0.00E+00 Mbytes, locked:    0 /   0

     iteration # 27     ecut=    60.00 Ry     beta= 0.40
     Davidson diagonalization with overlap

---- Real-time Memory Report at c_bands before calling an iterative solver
          2166 MiB given to the printing process from OS
          1265 MiB allocation reported by mallinfo(arena+hblkhd)
         35998 MiB available memory on the node where the printing process lives
     GPU memory used/free/total (MiB): 1498 / 14782 / 16280
------------------
     ethr =  2.76E-06,  avg # of iterations =  3.3

     total cpu time spent up to now is       99.2 secs

     total energy              =    -183.12904721 Ry
     estimated scf accuracy    <       0.00009511 Ry

     total magnetization       =     3.47 Bohr mag/cell
     absolute magnetization    =     3.51 Bohr mag/cell
[tb_dev] Currently allocated     3.31E+00 Mbytes, locked:    0 /  10
[tb_pin] Currently allocated     0.00E+00 Mbytes, locked:    0 /   0

     iteration # 28     ecut=    60.00 Ry     beta= 0.40
     Davidson diagonalization with overlap

---- Real-time Memory Report at c_bands before calling an iterative solver
          2171 MiB given to the printing process from OS
          1270 MiB allocation reported by mallinfo(arena+hblkhd)
         35991 MiB available memory on the node where the printing process lives
     GPU memory used/free/total (MiB): 1498 / 14782 / 16280
------------------
     c_bands:  1 eigenvalues not converged
     c_bands:  1 eigenvalues not converged
     c_bands:  1 eigenvalues not converged
     ethr =  3.17E-07,  avg # of iterations =  4.8

     total cpu time spent up to now is      105.0 secs

     total energy              =    -183.12909738 Ry
     estimated scf accuracy    <       0.00030200 Ry

     total magnetization       =     3.37 Bohr mag/cell
     absolute magnetization    =     3.41 Bohr mag/cell
[tb_dev] Currently allocated     3.31E+00 Mbytes, locked:    0 /  10
[tb_pin] Currently allocated     0.00E+00 Mbytes, locked:    0 /   0

     iteration # 29     ecut=    60.00 Ry     beta= 0.40
     Davidson diagonalization with overlap

---- Real-time Memory Report at c_bands before calling an iterative solver
          2176 MiB given to the printing process from OS
          1276 MiB allocation reported by mallinfo(arena+hblkhd)
         35987 MiB available memory on the node where the printing process lives
     GPU memory used/free/total (MiB): 1520 / 14760 / 16280
------------------
     ethr =  3.17E-07,  avg # of iterations =  2.0

     total cpu time spent up to now is      108.6 secs

     total energy              =    -183.12912461 Ry
     estimated scf accuracy    <       0.00002395 Ry

     total magnetization       =     3.42 Bohr mag/cell
     absolute magnetization    =     3.45 Bohr mag/cell
[tb_dev] Currently allocated     3.31E+00 Mbytes, locked:    0 /  10
[tb_pin] Currently allocated     0.00E+00 Mbytes, locked:    0 /   0

     iteration # 30     ecut=    60.00 Ry     beta= 0.40
     Davidson diagonalization with overlap

---- Real-time Memory Report at c_bands before calling an iterative solver
          2183 MiB given to the printing process from OS
          1281 MiB allocation reported by mallinfo(arena+hblkhd)
         35982 MiB available memory on the node where the printing process lives
     GPU memory used/free/total (MiB): 1520 / 14760 / 16280
------------------
     ethr =  7.98E-08,  avg # of iterations =  2.2

     total cpu time spent up to now is      112.5 secs

     total energy              =    -183.12914142 Ry
     estimated scf accuracy    <       0.00008222 Ry

     total magnetization       =     3.42 Bohr mag/cell
     absolute magnetization    =     3.46 Bohr mag/cell
[tb_dev] Currently allocated     3.31E+00 Mbytes, locked:    0 /  10
[tb_pin] Currently allocated     0.00E+00 Mbytes, locked:    0 /   0

     iteration # 31     ecut=    60.00 Ry     beta= 0.40
     Davidson diagonalization with overlap

---- Real-time Memory Report at c_bands before calling an iterative solver
          2188 MiB given to the printing process from OS
          1287 MiB allocation reported by mallinfo(arena+hblkhd)
         35976 MiB available memory on the node where the printing process lives
     GPU memory used/free/total (MiB): 1520 / 14760 / 16280
------------------
     ethr =  7.98E-08,  avg # of iterations =  1.2

     total cpu time spent up to now is      115.8 secs

     total energy              =    -183.12912928 Ry
     estimated scf accuracy    <       0.00012363 Ry

     total magnetization       =     3.43 Bohr mag/cell
     absolute magnetization    =     3.47 Bohr mag/cell
[tb_dev] Currently allocated     3.31E+00 Mbytes, locked:    0 /  10
[tb_pin] Currently allocated     0.00E+00 Mbytes, locked:    0 /   0

     iteration # 32     ecut=    60.00 Ry     beta= 0.40
     Davidson diagonalization with overlap

---- Real-time Memory Report at c_bands before calling an iterative solver
          2194 MiB given to the printing process from OS
          1293 MiB allocation reported by mallinfo(arena+hblkhd)
         35967 MiB available memory on the node where the printing process lives
     GPU memory used/free/total (MiB): 1520 / 14760 / 16280
------------------
     ethr =  7.98E-08,  avg # of iterations =  1.6

     total cpu time spent up to now is      119.1 secs

     total energy              =    -183.12914417 Ry
     estimated scf accuracy    <       0.00000520 Ry

     total magnetization       =     3.39 Bohr mag/cell
     absolute magnetization    =     3.43 Bohr mag/cell
[tb_dev] Currently allocated     3.31E+00 Mbytes, locked:    0 /  10
[tb_pin] Currently allocated     0.00E+00 Mbytes, locked:    0 /   0

     iteration # 33     ecut=    60.00 Ry     beta= 0.40
     Davidson diagonalization with overlap

---- Real-time Memory Report at c_bands before calling an iterative solver
          2200 MiB given to the printing process from OS
          1298 MiB allocation reported by mallinfo(arena+hblkhd)
         35965 MiB available memory on the node where the printing process lives
     GPU memory used/free/total (MiB): 1520 / 14760 / 16280
------------------
     ethr =  1.73E-08,  avg # of iterations =  3.8

     total cpu time spent up to now is      124.2 secs

     total energy              =    -183.12915175 Ry
     estimated scf accuracy    <       0.00000577 Ry

     total magnetization       =     3.37 Bohr mag/cell
     absolute magnetization    =     3.40 Bohr mag/cell
[tb_dev] Currently allocated     3.31E+00 Mbytes, locked:    0 /  10
[tb_pin] Currently allocated     0.00E+00 Mbytes, locked:    0 /   0

     iteration # 34     ecut=    60.00 Ry     beta= 0.40
     Davidson diagonalization with overlap

---- Real-time Memory Report at c_bands before calling an iterative solver
          2201 MiB given to the printing process from OS
          1259 MiB allocation reported by mallinfo(arena+hblkhd)
         35997 MiB available memory on the node where the printing process lives
     GPU memory used/free/total (MiB): 1520 / 14760 / 16280
------------------
     ethr =  1.73E-08,  avg # of iterations =  1.1

     total cpu time spent up to now is      127.5 secs

     total energy              =    -183.12916082 Ry
     estimated scf accuracy    <       0.00000615 Ry

     total magnetization       =     3.36 Bohr mag/cell
     absolute magnetization    =     3.40 Bohr mag/cell
[tb_dev] Currently allocated     3.31E+00 Mbytes, locked:    0 /  10
[tb_pin] Currently allocated     0.00E+00 Mbytes, locked:    0 /   0

     iteration # 35     ecut=    60.00 Ry     beta= 0.40
     Davidson diagonalization with overlap

---- Real-time Memory Report at c_bands before calling an iterative solver
          2201 MiB given to the printing process from OS
          1264 MiB allocation reported by mallinfo(arena+hblkhd)
         35990 MiB available memory on the node where the printing process lives
     GPU memory used/free/total (MiB): 1520 / 14760 / 16280
------------------
     ethr =  1.73E-08,  avg # of iterations =  3.2

     total cpu time spent up to now is      132.3 secs

     total energy              =    -183.12867052 Ry
     estimated scf accuracy    <       0.00000704 Ry

     total magnetization       =     3.34 Bohr mag/cell
     absolute magnetization    =     3.37 Bohr mag/cell
[tb_dev] Currently allocated     3.31E+00 Mbytes, locked:    0 /  10
[tb_pin] Currently allocated     0.00E+00 Mbytes, locked:    0 /   0

     iteration # 36     ecut=    60.00 Ry     beta= 0.40
     Davidson diagonalization with overlap

---- Real-time Memory Report at c_bands before calling an iterative solver
          2201 MiB given to the printing process from OS
          1270 MiB allocation reported by mallinfo(arena+hblkhd)
         35982 MiB available memory on the node where the printing process lives
     GPU memory used/free/total (MiB): 1520 / 14760 / 16280
------------------
     ethr =  1.73E-08,  avg # of iterations =  7.6

     total cpu time spent up to now is      140.8 secs

     total energy              =    -183.12904625 Ry
     estimated scf accuracy    <       0.00001852 Ry

     total magnetization       =     3.48 Bohr mag/cell
     absolute magnetization    =     3.52 Bohr mag/cell
[tb_dev] Currently allocated     3.31E+00 Mbytes, locked:    0 /  10
[tb_pin] Currently allocated     0.00E+00 Mbytes, locked:    0 /   0

     iteration # 37     ecut=    60.00 Ry     beta= 0.40
     Davidson diagonalization with overlap

---- Real-time Memory Report at c_bands before calling an iterative solver
          2201 MiB given to the printing process from OS
          1275 MiB allocation reported by mallinfo(arena+hblkhd)
         35981 MiB available memory on the node where the printing process lives
     GPU memory used/free/total (MiB): 1520 / 14760 / 16280
------------------
     c_bands:  1 eigenvalues not converged
     ethr =  1.73E-08,  avg # of iterations =  5.0

     total cpu time spent up to now is      146.9 secs

     total energy              =    -183.12900515 Ry
     estimated scf accuracy    <       0.00001138 Ry

     total magnetization       =     3.42 Bohr mag/cell
     absolute magnetization    =     3.46 Bohr mag/cell
[tb_dev] Currently allocated     3.31E+00 Mbytes, locked:    0 /  10
[tb_pin] Currently allocated     0.00E+00 Mbytes, locked:    0 /   0

     iteration # 38     ecut=    60.00 Ry     beta= 0.40
     Davidson diagonalization with overlap

---- Real-time Memory Report at c_bands before calling an iterative solver
          2204 MiB given to the printing process from OS
          1281 MiB allocation reported by mallinfo(arena+hblkhd)
         35974 MiB available memory on the node where the printing process lives
     GPU memory used/free/total (MiB): 1520 / 14760 / 16280
------------------
     c_bands:  1 eigenvalues not converged
     ethr =  1.73E-08,  avg # of iterations =  7.7

     total cpu time spent up to now is      155.2 secs

     total energy              =    -183.12897024 Ry
     estimated scf accuracy    <       0.00002144 Ry

     total magnetization       =     3.33 Bohr mag/cell
     absolute magnetization    =     3.37 Bohr mag/cell
[tb_dev] Currently allocated     3.31E+00 Mbytes, locked:    0 /  10
[tb_pin] Currently allocated     0.00E+00 Mbytes, locked:    0 /   0

     iteration # 39     ecut=    60.00 Ry     beta= 0.40
     Davidson diagonalization with overlap

---- Real-time Memory Report at c_bands before calling an iterative solver
          2209 MiB given to the printing process from OS
          1287 MiB allocation reported by mallinfo(arena+hblkhd)
         35969 MiB available memory on the node where the printing process lives
     GPU memory used/free/total (MiB): 1520 / 14760 / 16280
------------------
     c_bands:  1 eigenvalues not converged
     ethr =  1.73E-08,  avg # of iterations =  7.8

     total cpu time spent up to now is      163.9 secs

     total energy              =    -183.12895368 Ry
     estimated scf accuracy    <       0.00013700 Ry

     total magnetization       =     3.16 Bohr mag/cell
     absolute magnetization    =     3.20 Bohr mag/cell
[tb_dev] Currently allocated     3.31E+00 Mbytes, locked:    0 /  10
[tb_pin] Currently allocated     0.00E+00 Mbytes, locked:    0 /   0

     iteration # 40     ecut=    60.00 Ry     beta= 0.40
     Davidson diagonalization with overlap

---- Real-time Memory Report at c_bands before calling an iterative solver
          2216 MiB given to the printing process from OS
          1295 MiB allocation reported by mallinfo(arena+hblkhd)
         35960 MiB available memory on the node where the printing process lives
     GPU memory used/free/total (MiB): 1520 / 14760 / 16280
------------------
     c_bands:  1 eigenvalues not converged
     c_bands:  1 eigenvalues not converged
     ethr =  1.73E-08,  avg # of iterations =  6.9

     total cpu time spent up to now is      171.6 secs

     total energy              =    -183.12849366 Ry
     estimated scf accuracy    <       0.00004157 Ry

     total magnetization       =     3.30 Bohr mag/cell
     absolute magnetization    =     3.34 Bohr mag/cell
[tb_dev] Currently allocated     3.31E+00 Mbytes, locked:    0 /  10
[tb_pin] Currently allocated     0.00E+00 Mbytes, locked:    0 /   0

     iteration # 41     ecut=    60.00 Ry     beta= 0.40
     Davidson diagonalization with overlap

---- Real-time Memory Report at c_bands before calling an iterative solver
          2222 MiB given to the printing process from OS
          1301 MiB allocation reported by mallinfo(arena+hblkhd)
         35959 MiB available memory on the node where the printing process lives
     GPU memory used/free/total (MiB): 1520 / 14760 / 16280
------------------
     ethr =  1.73E-08,  avg # of iterations =  8.4

     total cpu time spent up to now is      180.7 secs

     total energy              =    -183.12870720 Ry
     estimated scf accuracy    <       0.00005334 Ry

     total magnetization       =     3.50 Bohr mag/cell
     absolute magnetization    =     3.54 Bohr mag/cell
[tb_dev] Currently allocated     3.31E+00 Mbytes, locked:    0 /  10
[tb_pin] Currently allocated     0.00E+00 Mbytes, locked:    0 /   0

     iteration # 42     ecut=    60.00 Ry     beta= 0.40
     Davidson diagonalization with overlap

---- Real-time Memory Report at c_bands before calling an iterative solver
          2227 MiB given to the printing process from OS
          1306 MiB allocation reported by mallinfo(arena+hblkhd)
         35954 MiB available memory on the node where the printing process lives
     GPU memory used/free/total (MiB): 1520 / 14760 / 16280
------------------
     ethr =  1.73E-08,  avg # of iterations =  7.4

     total cpu time spent up to now is      189.0 secs

     total energy              =    -183.12853377 Ry
     estimated scf accuracy    <       0.00012061 Ry

     total magnetization       =     3.60 Bohr mag/cell
     absolute magnetization    =     3.64 Bohr mag/cell
[tb_dev] Currently allocated     3.31E+00 Mbytes, locked:    0 /  10
[tb_pin] Currently allocated     0.00E+00 Mbytes, locked:    0 /   0

     iteration # 43     ecut=    60.00 Ry     beta= 0.40
     Davidson diagonalization with overlap

---- Real-time Memory Report at c_bands before calling an iterative solver
          2234 MiB given to the printing process from OS
          1312 MiB allocation reported by mallinfo(arena+hblkhd)
         35947 MiB available memory on the node where the printing process lives
     GPU memory used/free/total (MiB): 1520 / 14760 / 16280
------------------
     c_bands:  1 eigenvalues not converged
     ethr =  1.73E-08,  avg # of iterations =  7.5

     total cpu time spent up to now is      197.3 secs

     total energy              =    -183.12879401 Ry
     estimated scf accuracy    <       0.00032009 Ry

     total magnetization       =     3.67 Bohr mag/cell
     absolute magnetization    =     3.72 Bohr mag/cell
[tb_dev] Currently allocated     3.31E+00 Mbytes, locked:    0 /  10
[tb_pin] Currently allocated     0.00E+00 Mbytes, locked:    0 /   0

     iteration # 44     ecut=    60.00 Ry     beta= 0.40
     Davidson diagonalization with overlap

---- Real-time Memory Report at c_bands before calling an iterative solver
          2241 MiB given to the printing process from OS
          1319 MiB allocation reported by mallinfo(arena+hblkhd)
         35936 MiB available memory on the node where the printing process lives
     GPU memory used/free/total (MiB): 1520 / 14760 / 16280
------------------
     c_bands:  1 eigenvalues not converged
     ethr =  1.73E-08,  avg # of iterations =  6.2

     total cpu time spent up to now is      204.6 secs

     total energy              =    -183.12888756 Ry
     estimated scf accuracy    <       0.00012391 Ry

     total magnetization       =     3.60 Bohr mag/cell
     absolute magnetization    =     3.65 Bohr mag/cell
[tb_dev] Currently allocated     3.31E+00 Mbytes, locked:    0 /  10
[tb_pin] Currently allocated     0.00E+00 Mbytes, locked:    0 /   0

     iteration # 45     ecut=    60.00 Ry     beta= 0.40
     Davidson diagonalization with overlap

---- Real-time Memory Report at c_bands before calling an iterative solver
          2247 MiB given to the printing process from OS
          1325 MiB allocation reported by mallinfo(arena+hblkhd)
         35934 MiB available memory on the node where the printing process lives
     GPU memory used/free/total (MiB): 1520 / 14760 / 16280
------------------
     ethr =  1.73E-08,  avg # of iterations =  7.2

     total cpu time spent up to now is      212.5 secs

     total energy              =    -183.12905409 Ry
     estimated scf accuracy    <       0.00003876 Ry

     total magnetization       =     3.52 Bohr mag/cell
     absolute magnetization    =     3.56 Bohr mag/cell
[tb_dev] Currently allocated     3.31E+00 Mbytes, locked:    0 /  10
[tb_pin] Currently allocated     0.00E+00 Mbytes, locked:    0 /   0

     iteration # 46     ecut=    60.00 Ry     beta= 0.40
     Davidson diagonalization with overlap

---- Real-time Memory Report at c_bands before calling an iterative solver
          2253 MiB given to the printing process from OS
          1330 MiB allocation reported by mallinfo(arena+hblkhd)
         35930 MiB available memory on the node where the printing process lives
     GPU memory used/free/total (MiB): 1520 / 14760 / 16280
------------------
     ethr =  1.73E-08,  avg # of iterations =  3.3

     total cpu time spent up to now is      217.3 secs

     total energy              =    -183.12907584 Ry
     estimated scf accuracy    <       0.00002611 Ry

     total magnetization       =     3.49 Bohr mag/cell
     absolute magnetization    =     3.53 Bohr mag/cell
[tb_dev] Currently allocated     3.31E+00 Mbytes, locked:    0 /  10
[tb_pin] Currently allocated     0.00E+00 Mbytes, locked:    0 /   0

     iteration # 47     ecut=    60.00 Ry     beta= 0.40
     Davidson diagonalization with overlap

---- Real-time Memory Report at c_bands before calling an iterative solver
          2260 MiB given to the printing process from OS
          1337 MiB allocation reported by mallinfo(arena+hblkhd)
         35922 MiB available memory on the node where the printing process lives
     GPU memory used/free/total (MiB): 1520 / 14760 / 16280
------------------
     ethr =  1.73E-08,  avg # of iterations =  5.1

     total cpu time spent up to now is      223.6 secs

     total energy              =    -183.12905798 Ry
     estimated scf accuracy    <       0.00001964 Ry

     total magnetization       =     3.44 Bohr mag/cell
     absolute magnetization    =     3.48 Bohr mag/cell
[tb_dev] Currently allocated     3.31E+00 Mbytes, locked:    0 /  10
[tb_pin] Currently allocated     0.00E+00 Mbytes, locked:    0 /   0

     iteration # 48     ecut=    60.00 Ry     beta= 0.40
     Davidson diagonalization with overlap

---- Real-time Memory Report at c_bands before calling an iterative solver
          2265 MiB given to the printing process from OS
          1345 MiB allocation reported by mallinfo(arena+hblkhd)
         35911 MiB available memory on the node where the printing process lives
     GPU memory used/free/total (MiB): 1520 / 14760 / 16280
------------------
     ethr =  1.73E-08,  avg # of iterations =  6.8

     total cpu time spent up to now is      231.1 secs

     total energy              =    -183.12896892 Ry
     estimated scf accuracy    <       0.00002180 Ry

     total magnetization       =     3.36 Bohr mag/cell
     absolute magnetization    =     3.39 Bohr mag/cell
[tb_dev] Currently allocated     3.31E+00 Mbytes, locked:    0 /  10
[tb_pin] Currently allocated     0.00E+00 Mbytes, locked:    0 /   0

     iteration # 49     ecut=    60.00 Ry     beta= 0.40
     Davidson diagonalization with overlap

---- Real-time Memory Report at c_bands before calling an iterative solver
          2270 MiB given to the printing process from OS
          1350 MiB allocation reported by mallinfo(arena+hblkhd)
         35909 MiB available memory on the node where the printing process lives
     GPU memory used/free/total (MiB): 1520 / 14760 / 16280
------------------
     c_bands:  1 eigenvalues not converged
     ethr =  1.73E-08,  avg # of iterations =  6.1

     total cpu time spent up to now is      238.2 secs

     total energy              =    -183.12911207 Ry
     estimated scf accuracy    <       0.00002184 Ry

     total magnetization       =     3.45 Bohr mag/cell
     absolute magnetization    =     3.49 Bohr mag/cell
[tb_dev] Currently allocated     3.31E+00 Mbytes, locked:    0 /  10
[tb_pin] Currently allocated     0.00E+00 Mbytes, locked:    0 /   0

     iteration # 50     ecut=    60.00 Ry     beta= 0.40
     Davidson diagonalization with overlap

---- Real-time Memory Report at c_bands before calling an iterative solver
          2277 MiB given to the printing process from OS
          1356 MiB allocation reported by mallinfo(arena+hblkhd)
         35904 MiB available memory on the node where the printing process lives
     GPU memory used/free/total (MiB): 1520 / 14760 / 16280
------------------
     ethr =  1.73E-08,  avg # of iterations =  2.0

     total cpu time spent up to now is      242.0 secs

     total energy              =    -183.12905041 Ry
     estimated scf accuracy    <       0.00001960 Ry

     total magnetization       =     3.43 Bohr mag/cell
     absolute magnetization    =     3.47 Bohr mag/cell
[tb_dev] Currently allocated     3.31E+00 Mbytes, locked:    0 /  10
[tb_pin] Currently allocated     0.00E+00 Mbytes, locked:    0 /   0

     iteration # 51     ecut=    60.00 Ry     beta= 0.40
     Davidson diagonalization with overlap

---- Real-time Memory Report at c_bands before calling an iterative solver
          2282 MiB given to the printing process from OS
          1361 MiB allocation reported by mallinfo(arena+hblkhd)
         35898 MiB available memory on the node where the printing process lives
     GPU memory used/free/total (MiB): 1520 / 14760 / 16280
------------------
     ethr =  1.73E-08,  avg # of iterations =  3.3

     total cpu time spent up to now is      246.9 secs

     total energy              =    -183.12887009 Ry
     estimated scf accuracy    <       0.00002495 Ry

     total magnetization       =     3.47 Bohr mag/cell
     absolute magnetization    =     3.51 Bohr mag/cell
[tb_dev] Currently allocated     3.31E+00 Mbytes, locked:    0 /  10
[tb_pin] Currently allocated     0.00E+00 Mbytes, locked:    0 /   0

     iteration # 52     ecut=    60.00 Ry     beta= 0.40
     Davidson diagonalization with overlap

---- Real-time Memory Report at c_bands before calling an iterative solver
          2288 MiB given to the printing process from OS
          1367 MiB allocation reported by mallinfo(arena+hblkhd)
         35888 MiB available memory on the node where the printing process lives
     GPU memory used/free/total (MiB): 1520 / 14760 / 16280
------------------
     ethr =  1.73E-08,  avg # of iterations =  6.7

     total cpu time spent up to now is      254.6 secs

     total energy              =    -183.12887562 Ry
     estimated scf accuracy    <       0.00005470 Ry

     total magnetization       =     3.55 Bohr mag/cell
     absolute magnetization    =     3.59 Bohr mag/cell
[tb_dev] Currently allocated     3.31E+00 Mbytes, locked:    0 /  10
[tb_pin] Currently allocated     0.00E+00 Mbytes, locked:    0 /   0

     iteration # 53     ecut=    60.00 Ry     beta= 0.40
     Davidson diagonalization with overlap

---- Real-time Memory Report at c_bands before calling an iterative solver
          2295 MiB given to the printing process from OS
          1372 MiB allocation reported by mallinfo(arena+hblkhd)
         35888 MiB available memory on the node where the printing process lives
     GPU memory used/free/total (MiB): 1520 / 14760 / 16280
------------------
     ethr =  1.73E-08,  avg # of iterations =  7.4

     total cpu time spent up to now is      262.7 secs

     total energy              =    -183.12891235 Ry
     estimated scf accuracy    <       0.00002169 Ry

     total magnetization       =     3.44 Bohr mag/cell
     absolute magnetization    =     3.47 Bohr mag/cell
[tb_dev] Currently allocated     3.31E+00 Mbytes, locked:    0 /  10
[tb_pin] Currently allocated     0.00E+00 Mbytes, locked:    0 /   0

     iteration # 54     ecut=    60.00 Ry     beta= 0.40
     Davidson diagonalization with overlap

---- Real-time Memory Report at c_bands before calling an iterative solver
          2301 MiB given to the printing process from OS
          1379 MiB allocation reported by mallinfo(arena+hblkhd)
         35881 MiB available memory on the node where the printing process lives
     GPU memory used/free/total (MiB): 1520 / 14760 / 16280
------------------
     ethr =  1.73E-08,  avg # of iterations =  7.6

     total cpu time spent up to now is      271.1 secs

     total energy              =    -183.12913882 Ry
     estimated scf accuracy    <       0.00004806 Ry

     total magnetization       =     3.29 Bohr mag/cell
     absolute magnetization    =     3.33 Bohr mag/cell
[tb_dev] Currently allocated     3.31E+00 Mbytes, locked:    0 /  10
[tb_pin] Currently allocated     0.00E+00 Mbytes, locked:    0 /   0

     iteration # 55     ecut=    60.00 Ry     beta= 0.40
     Davidson diagonalization with overlap

---- Real-time Memory Report at c_bands before calling an iterative solver
          2307 MiB given to the printing process from OS
          1385 MiB allocation reported by mallinfo(arena+hblkhd)
         35874 MiB available memory on the node where the printing process lives
     GPU memory used/free/total (MiB): 1520 / 14760 / 16280
------------------
     c_bands:  1 eigenvalues not converged
     ethr =  1.73E-08,  avg # of iterations =  7.2

     total cpu time spent up to now is      279.2 secs

     total energy              =    -183.12933397 Ry
     estimated scf accuracy    <       0.00017049 Ry

     total magnetization       =     3.16 Bohr mag/cell
     absolute magnetization    =     3.20 Bohr mag/cell
[tb_dev] Currently allocated     3.31E+00 Mbytes, locked:    0 /  10
[...]
[tb_dev] Currently allocated     3.31E+00 Mbytes, locked:    0 /  10
[tb_pin] Currently allocated     0.00E+00 Mbytes, locked:    0 /   0

     iteration # 65     ecut=    60.00 Ry     beta= 0.40
     Davidson diagonalization with overlap

---- Real-time Memory Report at c_bands before calling an iterative solver
          2367 MiB given to the printing process from OS
          1445 MiB allocation reported by mallinfo(arena+hblkhd)
         35814 MiB available memory on the node where the printing process lives
     GPU memory used/free/total (MiB): 1520 / 14760 / 16280
------------------
     ethr =  1.73E-08,  avg # of iterations =  4.3

     total cpu time spent up to now is      338.6 secs

     total energy              =    -183.12900715 Ry
     estimated scf accuracy    <       0.00002779 Ry

     total magnetization       =     3.48 Bohr mag/cell
     absolute magnetization    =     3.52 Bohr mag/cell
[tb_dev] Currently allocated     3.31E+00 Mbytes, locked:    0 /  10
[tb_pin] Currently allocated     0.00E+00 Mbytes, locked:    0 /   0

     iteration # 66     ecut=    60.00 Ry     beta= 0.40
     Davidson diagonalization with overlap

---- Real-time Memory Report at c_bands before calling an iterative solver
          2374 MiB given to the printing process from OS
          1451 MiB allocation reported by mallinfo(arena+hblkhd)
         35809 MiB available memory on the node where the printing process lives
     GPU memory used/free/total (MiB): 1520 / 14760 / 16280
------------------
     ethr =  1.73E-08,  avg # of iterations =  6.8

     total cpu time spent up to now is      346.3 secs

     total energy              =    -183.12915985 Ry
     estimated scf accuracy    <       0.00002208 Ry

     total magnetization       =     3.39 Bohr mag/cell
     absolute magnetization    =     3.42 Bohr mag/cell
[tb_dev] Currently allocated     3.31E+00 Mbytes, locked:    0 /  10
[tb_pin] Currently allocated     0.00E+00 Mbytes, locked:    0 /   0

     iteration # 67     ecut=    60.00 Ry     beta= 0.40
     Davidson diagonalization with overlap

---- Real-time Memory Report at c_bands before calling an iterative solver
          2379 MiB given to the printing process from OS
          1457 MiB allocation reported by mallinfo(arena+hblkhd)
         35803 MiB available memory on the node where the printing process lives
     GPU memory used/free/total (MiB): 1520 / 14760 / 16280
------------------
     ethr =  1.73E-08,  avg # of iterations =  2.4

     total cpu time spent up to now is      350.7 secs

     total energy              =    -183.12917807 Ry
     estimated scf accuracy    <       0.00002531 Ry

     total magnetization       =     3.36 Bohr mag/cell
     absolute magnetization    =     3.39 Bohr mag/cell
[tb_dev] Currently allocated     3.31E+00 Mbytes, locked:    0 /  10
[tb_pin] Currently allocated     0.00E+00 Mbytes, locked:    0 /   0

     iteration # 68     ecut=    60.00 Ry     beta= 0.40
     Davidson diagonalization with overlap

---- Real-time Memory Report at c_bands before calling an iterative solver
          2384 MiB given to the printing process from OS
          1462 MiB allocation reported by mallinfo(arena+hblkhd)
         35793 MiB available memory on the node where the printing process lives
     GPU memory used/free/total (MiB): 1520 / 14760 / 16280
------------------
     ethr =  1.73E-08,  avg # of iterations =  1.6

     total cpu time spent up to now is      354.1 secs

     total energy              =    -183.12919008 Ry
     estimated scf accuracy    <       0.00002681 Ry

     total magnetization       =     3.35 Bohr mag/cell
     absolute magnetization    =     3.38 Bohr mag/cell
[tb_dev] Currently allocated     3.31E+00 Mbytes, locked:    0 /  10
[tb_pin] Currently allocated     0.00E+00 Mbytes, locked:    0 /   0

     iteration # 69     ecut=    60.00 Ry     beta= 0.40
     Davidson diagonalization with overlap

---- Real-time Memory Report at c_bands before calling an iterative solver
          2390 MiB given to the printing process from OS
          1468 MiB allocation reported by mallinfo(arena+hblkhd)
         35791 MiB available memory on the node where the printing process lives
     GPU memory used/free/total (MiB): 1520 / 14760 / 16280
------------------
     ethr =  1.73E-08,  avg # of iterations =  3.9

     total cpu time spent up to now is      359.3 secs

     total energy              =    -183.12916402 Ry
     estimated scf accuracy    <       0.00003355 Ry

     total magnetization       =     3.32 Bohr mag/cell
     absolute magnetization    =     3.35 Bohr mag/cell
[tb_dev] Currently allocated     3.31E+00 Mbytes, locked:    0 /  10
[tb_pin] Currently allocated     0.00E+00 Mbytes, locked:    0 /   0

     iteration # 70     ecut=    60.00 Ry     beta= 0.40
     Davidson diagonalization with overlap

---- Real-time Memory Report at c_bands before calling an iterative solver
          2395 MiB given to the printing process from OS
          1473 MiB allocation reported by mallinfo(arena+hblkhd)
         35786 MiB available memory on the node where the printing process lives
     GPU memory used/free/total (MiB): 1520 / 14760 / 16280
------------------
     ethr =  1.73E-08,  avg # of iterations =  2.0

     total cpu time spent up to now is      363.4 secs

     total energy              =    -183.12918582 Ry
     estimated scf accuracy    <       0.00002726 Ry

     total magnetization       =     3.35 Bohr mag/cell
     absolute magnetization    =     3.38 Bohr mag/cell
[tb_dev] Currently allocated     3.31E+00 Mbytes, locked:    0 /  10
[tb_pin] Currently allocated     0.00E+00 Mbytes, locked:    0 /   0

     iteration # 71     ecut=    60.00 Ry     beta= 0.40
     Davidson diagonalization with overlap

---- Real-time Memory Report at c_bands before calling an iterative solver
          2402 MiB given to the printing process from OS
          1480 MiB allocation reported by mallinfo(arena+hblkhd)
         35777 MiB available memory on the node where the printing process lives
     GPU memory used/free/total (MiB): 1520 / 14760 / 16280
------------------
     ethr =  1.73E-08,  avg # of iterations =  1.0

     total cpu time spent up to now is      366.5 secs

     total energy              =    -183.12775038 Ry
     estimated scf accuracy    <       0.00002773 Ry

     total magnetization       =     3.34 Bohr mag/cell
     absolute magnetization    =     3.37 Bohr mag/cell
[tb_dev] Currently allocated     3.31E+00 Mbytes, locked:    0 /  10
[tb_pin] Currently allocated     0.00E+00 Mbytes, locked:    0 /   0

     iteration # 72     ecut=    60.00 Ry     beta= 0.40
     Davidson diagonalization with overlap

---- Real-time Memory Report at c_bands before calling an iterative solver
          2408 MiB given to the printing process from OS
          1486 MiB allocation reported by mallinfo(arena+hblkhd)
         35770 MiB available memory on the node where the printing process lives
     GPU memory used/free/total (MiB): 1520 / 14760 / 16280
------------------
     ethr =  1.73E-08,  avg # of iterations =  9.3

     total cpu time spent up to now is      376.5 secs

     total energy              =    -183.12808477 Ry
     estimated scf accuracy    <       0.00009549 Ry

     total magnetization       =     3.59 Bohr mag/cell
     absolute magnetization    =     3.64 Bohr mag/cell
[tb_dev] Currently allocated     3.31E+00 Mbytes, locked:    0 /  10
[tb_pin] Currently allocated     0.00E+00 Mbytes, locked:    0 /   0

     iteration # 73     ecut=    60.00 Ry     beta= 0.40
     Davidson diagonalization with overlap

---- Real-time Memory Report at c_bands before calling an iterative solver
          2414 MiB given to the printing process from OS
          1493 MiB allocation reported by mallinfo(arena+hblkhd)
         35766 MiB available memory on the node where the printing process lives
     GPU memory used/free/total (MiB): 1520 / 14760 / 16280
------------------
     ethr =  1.73E-08,  avg # of iterations =  9.6

     total cpu time spent up to now is      386.6 secs

     total energy              =    -183.12896205 Ry
     estimated scf accuracy    <       0.00003351 Ry

     total magnetization       =     3.33 Bohr mag/cell
     absolute magnetization    =     3.36 Bohr mag/cell
[tb_dev] Currently allocated     3.31E+00 Mbytes, locked:    0 /  10
[tb_pin] Currently allocated     0.00E+00 Mbytes, locked:    0 /   0

     iteration # 74     ecut=    60.00 Ry     beta= 0.40
     Davidson diagonalization with overlap

---- Real-time Memory Report at c_bands before calling an iterative solver
          2421 MiB given to the printing process from OS
          1500 MiB allocation reported by mallinfo(arena+hblkhd)
         35759 MiB available memory on the node where the printing process lives
     GPU memory used/free/total (MiB): 1520 / 14760 / 16280
------------------
     ethr =  1.73E-08,  avg # of iterations =  7.8

     total cpu time spent up to now is      395.2 secs

     total energy              =    -183.12910513 Ry
     estimated scf accuracy    <       0.00017541 Ry

     total magnetization       =     3.15 Bohr mag/cell
     absolute magnetization    =     3.20 Bohr mag/cell
[tb_dev] Currently allocated     3.31E+00 Mbytes, locked:    0 /  10
[tb_pin] Currently allocated     0.00E+00 Mbytes, locked:    0 /   0

     iteration # 75     ecut=    60.00 Ry     beta= 0.40
     Davidson diagonalization with overlap

---- Real-time Memory Report at c_bands before calling an iterative solver
          2427 MiB given to the printing process from OS
          1506 MiB allocation reported by mallinfo(arena+hblkhd)
         35750 MiB available memory on the node where the printing process lives
     GPU memory used/free/total (MiB): 1520 / 14760 / 16280
------------------
     ethr =  1.73E-08,  avg # of iterations =  8.5

     total cpu time spent up to now is      404.4 secs

     total energy              =    -183.12926539 Ry
     estimated scf accuracy    <       0.00112573 Ry

     total magnetization       =     2.89 Bohr mag/cell
     absolute magnetization    =     3.19 Bohr mag/cell
[tb_dev] Currently allocated     3.31E+00 Mbytes, locked:    0 /  10
[tb_pin] Currently allocated     0.00E+00 Mbytes, locked:    0 /   0

     iteration # 76     ecut=    60.00 Ry     beta= 0.40
     Davidson diagonalization with overlap

---- Real-time Memory Report at c_bands before calling an iterative solver
          2433 MiB given to the printing process from OS
          1511 MiB allocation reported by mallinfo(arena+hblkhd)
         35748 MiB available memory on the node where the printing process lives
     GPU memory used/free/total (MiB): 1520 / 14760 / 16280
------------------
     ethr =  1.73E-08,  avg # of iterations =  6.7

     total cpu time spent up to now is      412.2 secs

     total energy              =    -183.12846384 Ry
     estimated scf accuracy    <       0.00042028 Ry

     total magnetization       =     3.05 Bohr mag/cell
     absolute magnetization    =     3.17 Bohr mag/cell
[tb_dev] Currently allocated     3.31E+00 Mbytes, locked:    0 /  10
[tb_pin] Currently allocated     0.00E+00 Mbytes, locked:    0 /   0

     iteration # 77     ecut=    60.00 Ry     beta= 0.40
     Davidson diagonalization with overlap

---- Real-time Memory Report at c_bands before calling an iterative solver
          2439 MiB given to the printing process from OS
          1517 MiB allocation reported by mallinfo(arena+hblkhd)
         35740 MiB available memory on the node where the printing process lives
     GPU memory used/free/total (MiB): 1520 / 14760 / 16280
------------------
     ethr =  1.73E-08,  avg # of iterations =  8.4

     total cpu time spent up to now is      421.5 secs

     total energy              =    -183.12922631 Ry
     estimated scf accuracy    <       0.00005710 Ry

     total magnetization       =     3.29 Bohr mag/cell
     absolute magnetization    =     3.32 Bohr mag/cell
[tb_dev] Currently allocated     3.31E+00 Mbytes, locked:    0 /  10
[tb_pin] Currently allocated     0.00E+00 Mbytes, locked:    0 /   0

     iteration # 78     ecut=    60.00 Ry     beta= 0.40
     Davidson diagonalization with overlap

---- Real-time Memory Report at c_bands before calling an iterative solver
          2444 MiB given to the printing process from OS
          1523 MiB allocation reported by mallinfo(arena+hblkhd)
         35737 MiB available memory on the node where the printing process lives
     GPU memory used/free/total (MiB): 1520 / 14760 / 16280
------------------
     ethr =  1.73E-08,  avg # of iterations =  1.1

     total cpu time spent up to now is      424.7 secs

     total energy              =    -183.12914773 Ry
     estimated scf accuracy    <       0.00005535 Ry

     total magnetization       =     3.30 Bohr mag/cell
     absolute magnetization    =     3.33 Bohr mag/cell
[tb_dev] Currently allocated     3.31E+00 Mbytes, locked:    0 /  10
[tb_pin] Currently allocated     0.00E+00 Mbytes, locked:    0 /   0

     iteration # 79     ecut=    60.00 Ry     beta= 0.40
     Davidson diagonalization with overlap

---- Real-time Memory Report at c_bands before calling an iterative solver
          2450 MiB given to the printing process from OS
          1528 MiB allocation reported by mallinfo(arena+hblkhd)
         35727 MiB available memory on the node where the printing process lives
     GPU memory used/free/total (MiB): 1520 / 14760 / 16280
------------------
     ethr =  1.73E-08,  avg # of iterations =  4.1

     total cpu time spent up to now is      430.2 secs

     total energy              =    -183.12918957 Ry
     estimated scf accuracy    <       0.00003961 Ry

     total magnetization       =     3.35 Bohr mag/cell
     absolute magnetization    =     3.38 Bohr mag/cell
[tb_dev] Currently allocated     3.31E+00 Mbytes, locked:    0 /  10
[tb_pin] Currently allocated     0.00E+00 Mbytes, locked:    0 /   0

     iteration # 80     ecut=    60.00 Ry     beta= 0.40
     Davidson diagonalization with overlap

---- Real-time Memory Report at c_bands before calling an iterative solver
          2456 MiB given to the printing process from OS
          1534 MiB allocation reported by mallinfo(arena+hblkhd)
         35724 MiB available memory on the node where the printing process lives
     GPU memory used/free/total (MiB): 1520 / 14760 / 16280
------------------
     ethr =  1.73E-08,  avg # of iterations =  1.0

     total cpu time spent up to now is      433.3 secs

     total energy              =    -183.12919991 Ry
     estimated scf accuracy    <       0.00004034 Ry

     total magnetization       =     3.34 Bohr mag/cell
     absolute magnetization    =     3.37 Bohr mag/cell

     End of self-consistent calculation

     convergence NOT achieved after  80 iterations: stopping

     Writing config to output data dir ./out/aiida.save/
 
     init_run     :     20.53s CPU      4.87s WALL (       1 calls)
     electrons    :    758.59s CPU    427.81s WALL (       1 calls)

     Called by init_run:
     wfcinit      :      1.65s CPU      2.59s WALL (       1 calls)
                                        2.59s GPU  (       1 calls)
     wfcinit:atom :      0.04s CPU      0.06s WALL (     232 calls)
                                        0.05s GPU  (     232 calls)
     wfcinit:wfcr :      0.95s CPU      1.60s WALL (     232 calls)
                                        1.60s GPU  (     232 calls)
     potinit      :      6.70s CPU      0.66s WALL (       1 calls)
     hinit0       :      7.83s CPU      0.97s WALL (       1 calls)

     Called by electrons:
     c_bands      :    453.12s CPU    356.16s WALL (      80 calls)
     sum_band     :     39.88s CPU     46.57s WALL (      80 calls)
     v_of_rho     :     15.38s CPU      1.40s WALL (      81 calls)
     v_h          :      2.93s CPU      0.26s WALL (      81 calls)
     v_xc         :     12.45s CPU      1.13s WALL (      81 calls)
     newd         :     27.14s CPU      2.76s WALL (      81 calls)
                                        2.76s GPU  (      81 calls)
     PAW_pot      :    204.77s CPU     19.09s WALL (      81 calls)
     mix_rho      :     20.29s CPU      2.25s WALL (      80 calls)

     Called by c_bands:
     init_us_2    :     31.25s CPU     27.91s WALL (   37352 calls)
     init_us_2:gp :     30.49s CPU     27.28s WALL (   37352 calls)
     cegterg      :    399.93s CPU    317.45s WALL (   18560 calls)

     Called by sum_band:
     sum_band:wei :      0.38s CPU      0.39s WALL (      80 calls)
                                        0.39s GPU  (      80 calls)
     sum_band:loo :     36.44s CPU     42.96s WALL (      80 calls)
                                       42.96s GPU  (      80 calls)
     sum_band:buf :      7.18s CPU      8.37s WALL (   18560 calls)
                                        8.26s GPU  (   18560 calls)
     sum_band:ini :     11.22s CPU     13.61s WALL (   18560 calls)
                                       13.51s GPU  (   18560 calls)
     sum_band:cal :      0.56s CPU      1.54s WALL (   18560 calls)
                                        1.35s GPU  (   18560 calls)
     sum_band:bec :      3.31s CPU      4.02s WALL (   18560 calls)
                                        3.90s GPU  (   18560 calls)
     addusdens    :      2.03s CPU      2.16s WALL (      80 calls)
                                        2.16s GPU  (      80 calls)
     addusd:skk   :      0.01s CPU      0.02s WALL (     240 calls)
                                        0.02s GPU  (     240 calls)

     Called by *egterg:
     cdiaghg      :    145.88s CPU    118.92s WALL (   90166 calls)
                                      118.32s GPU  (   90166 calls)
     cegterg:over :     11.98s CPU      9.80s WALL (   71606 calls)
     cegterg:upda :     20.20s CPU     16.16s WALL (   71606 calls)
     cegterg:last :      7.04s CPU      5.91s WALL (   55301 calls)
     h_psi        :    167.09s CPU    131.72s WALL (   90398 calls)
                                      131.24s GPU  (   90398 calls)
     s_psi        :      9.90s CPU     11.52s WALL (   90398 calls)
                                       10.78s GPU  (   90398 calls)
     g_psi        :      0.68s CPU      1.67s WALL (   71606 calls)
                                        1.21s GPU  (   71606 calls)

     Called by h_psi:
     h_psi:calbec :      3.98s CPU      8.27s WALL (   90398 calls)
                                        7.72s GPU  (   90398 calls)
     vloc_psi     :    131.26s CPU    103.79s WALL (   90398 calls)
                                      103.24s GPU  (   90398 calls)
     add_vuspsi   :     14.36s CPU     13.94s WALL (   90398 calls)
                                       13.41s GPU  (   90398 calls)

     General routines
     calbec       :      3.41s CPU      2.85s WALL (  108958 calls)
     fft          :      2.38s CPU      0.32s WALL (    2023 calls)
                                        0.26s GPU  (    1861 calls)
     ffts         :      0.05s CPU      0.03s WALL (     322 calls)
                                        0.01s GPU  (     160 calls)
     fftw         :      7.80s CPU     65.52s WALL (  301390 calls)
                                       63.88s GPU  (  301390 calls)
     interpolate  :      2.17s CPU      0.20s WALL (     162 calls)
     davcio       :      1.04s CPU      0.23s WALL (     250 calls)
 
     Parallel routines

     PAW routines
     PAW_pot      :    204.77s CPU     19.09s WALL (      81 calls)
     PAW_symme    :      0.04s CPU      0.01s WALL (     161 calls)
 
     PWSCF        :  13m 3.06s CPU   7m13.63s WALL

 
   This run was terminated on:  20:26: 6  23Oct2023            

=------------------------------------------------------------------------------=
   JOB DONE.
=------------------------------------------------------------------------------=
