
     Program PWSCF v.7.2 starts on 23Oct2023 at  0:10:14 

     This program is part of the open-source Quantum ESPRESSO suite
     for quantum simulation of materials; please cite
         "P. Giannozzi et al., J. Phys.:Condens. Matter 21 395502 (2009);
         "P. Giannozzi et al., J. Phys.:Condens. Matter 29 465901 (2017);
         "P. Giannozzi et al., J. Chem. Phys. 152 154105 (2020);
          URL http://www.quantum-espresso.org", 
     in publications or presentations arising from this work. More details at
     http://www.quantum-espresso.org/quote

     Parallel version (MPI & OpenMP), running on      12 processor cores
     Number of MPI processes:                 1
     Threads/MPI process:                    12

     MPI processes distributed on     1 nodes
     60521 MiB available memory on the printing compute node when the environment starts
 
     Reading input from aiida.in

     Current dimensions of program PWSCF are:
     Max number of different atomic species (ntypx) = 10
     Max number of k-points (npk) =  40000
     Max angular momentum in pseudopotentials (lmaxx) =  4
     file Ba.pbesol-spn-kjpaw_psl.1.0.0.UPF: wavefunction(s)  5S 6S renormalized
     file In.pbesol-dn-rrkjus_psl.0.2.2.UPF: wavefunction(s)  5S renormalized
     Message from routine setup:
     using ibrav=0 with symmetry is DISCOURAGED, use correct ibrav instead
 
     Subspace diagonalization in iterative solution of the eigenvalue problem:
     a serial algorithm will be used

 
     G-vector sticks info
     --------------------
     sticks:   dense  smooth     PW     G-vecs:    dense   smooth      PW
     Sum        7965    3983   1163               692043   244787   39003
 
     Using Slab Decomposition
 


     bravais-lattice index     =            0
     lattice parameter (alat)  =      19.4906  a.u.
     unit-cell volume          =    3898.7096 (a.u.)^3
     number of atoms/cell      =           14
     number of atomic types    =            3
     number of electrons       =       143.00
     number of Kohn-Sham states=           86
     kinetic-energy cutoff     =      60.0000  Ry
     charge density cutoff     =     480.0000  Ry
     scf convergence threshold =      2.8E-09
     mixing beta               =       0.4000
     number of iterations used =            8  plain     mixing
     Exchange-correlation= PBESOL
                           (   1   4  10   8   0   0   0)

     GPU acceleration is ACTIVE.


     GPU used by master process:

        Device Number: 0
        Device name: Tesla P100-PCIE-16GB
        Compute capability : 60
        Ratio of single to double precision performance  : 2
        Memory Clock Rate (KHz): 715000
        Memory Bus Width (bits): 4096
        Peak Memory Bandwidth (GB/s): 732.16

     celldm(1)=  19.490585  celldm(2)=   0.000000  celldm(3)=   0.000000
     celldm(4)=   0.000000  celldm(5)=   0.000000  celldm(6)=   0.000000

     crystal axes: (cart. coord. in units of alat)
               a(1) = (  -0.677382   0.677382   0.286892 )  
               a(2) = (   0.677382  -0.677382   0.286892 )  
               a(3) = (   0.677382   0.677382  -0.286892 )  

     reciprocal axes: (cart. coord. in units 2 pi/alat)
               b(1) = ( -0.000000  0.738136  1.742814 )  
               b(2) = (  0.738136 -0.000000  1.742814 )  
               b(3) = (  0.738136  0.738136 -0.000000 )  


     PseudoPot. # 1 for Ba read from file:
     ./pseudo/Ba.pbesol-spn-kjpaw_psl.1.0.0.UPF
     MD5 check sum: f28c4a63d325c1a0d00fd3a4f19b8d73
     Pseudo is Projector augmented-wave + core cor, Zval = 10.0
     Generated using "atomic" code by A. Dal Corso  v.6.0 svn rev. 13079
     Shape of augmentation charge: PSQ
     Using radial grid of 1251 points,  7 beta functions with: 
                l(1) =   0
                l(2) =   0
                l(3) =   0
                l(4) =   1
                l(5) =   1
                l(6) =   2
                l(7) =   2
     Q(r) pseudized with 0 coefficients 


     PseudoPot. # 2 for H  read from file:
     ./pseudo/H.pbesol-rrkjus_psl.1.0.0.UPF
     MD5 check sum: 0324ed591cc0147dc3d88cad0d33f665
     Pseudo is Ultrasoft, Zval =  1.0
     Generated using "atomic" code by A. Dal Corso  v.6.0 svn rev. 13079
     Using radial grid of  929 points,  2 beta functions with: 
                l(1) =   0
                l(2) =   0
     Q(r) pseudized with 0 coefficients 


     PseudoPot. # 3 for In read from file:
     ./pseudo/In.pbesol-dn-rrkjus_psl.0.2.2.UPF
     MD5 check sum: 2a3399a31491503da6b8c7d8e01e9843
     Pseudo is Ultrasoft + core correction, Zval = 13.0
     Generated using "atomic" code by A. Dal Corso  v.6.0 svn rev. 13079
     Using radial grid of 1241 points,  6 beta functions with: 
                l(1) =   0
                l(2) =   0
                l(3) =   1
                l(4) =   1
                l(5) =   2
                l(6) =   2
     Q(r) pseudized with 0 coefficients 


     atomic species   valence    mass     pseudopotential
        Ba            10.00   137.32700     Ba( 1.00)
        H              1.00     1.00794     H ( 1.00)
        In            13.00   114.81800     In( 1.00)

     Starting magnetic structure 
     atomic species   magnetization
        Ba           0.100
        H            0.100
        In           0.100

      8 Sym. Ops., with inversion, found


                                    s                        frac. trans.

      isym =  1     identity                                     

 cryst.   s( 1) = (     1          0          0      )
                  (     0          1          0      )
                  (     0          0          1      )

 cart.    s( 1) = (  1.0000000  0.0000000 -0.0000000 )
                  (  0.0000000  1.0000000  0.0000000 )
                  (  0.0000000  0.0000000  1.0000000 )


      isym =  2     180 deg rotation - cart. axis [0,0,1]        

 cryst.   s( 2) = (     0          1          0      )
                  (     1          0          0      )
                  (    -1         -1         -1      )

 cart.    s( 2) = ( -1.0000000 -0.0000000 -0.0000000 )
                  ( -0.0000000 -1.0000000  0.0000000 )
                  ( -0.0000000 -0.0000000  1.0000000 )


      isym =  3      90 deg rotation - cart. axis [0,0,-1]       

 cryst.   s( 3) = (     1          1          1      )
                  (     0          0         -1      )
                  (    -1          0          0      )

 cart.    s( 3) = ( -0.0000000  1.0000000 -0.0000000 )
                  ( -1.0000000  0.0000000  0.0000000 )
                  ( -0.0000000  0.0000000  1.0000000 )


      isym =  4      90 deg rotation - cart. axis [0,0,1]        

 cryst.   s( 4) = (     0          0         -1      )
                  (     1          1          1      )
                  (     0         -1          0      )

 cart.    s( 4) = (  0.0000000 -1.0000000 -0.0000000 )
                  (  1.0000000 -0.0000000  0.0000000 )
                  (  0.0000000 -0.0000000  1.0000000 )


      isym =  5     inversion                                    

 cryst.   s( 5) = (    -1          0          0      )
                  (     0         -1          0      )
                  (     0          0         -1      )

 cart.    s( 5) = ( -1.0000000 -0.0000000  0.0000000 )
                  ( -0.0000000 -1.0000000 -0.0000000 )
                  ( -0.0000000 -0.0000000 -1.0000000 )


      isym =  6     inv. 180 deg rotation - cart. axis [0,0,1]   

 cryst.   s( 6) = (     0         -1          0      )
                  (    -1          0          0      )
                  (     1          1          1      )

 cart.    s( 6) = (  1.0000000  0.0000000  0.0000000 )
                  (  0.0000000  1.0000000 -0.0000000 )
                  (  0.0000000  0.0000000 -1.0000000 )


      isym =  7     inv.  90 deg rotation - cart. axis [0,0,-1]  

 cryst.   s( 7) = (    -1         -1         -1      )
                  (     0          0          1      )
                  (     1          0          0      )

 cart.    s( 7) = (  0.0000000 -1.0000000  0.0000000 )
                  (  1.0000000 -0.0000000 -0.0000000 )
                  (  0.0000000 -0.0000000 -1.0000000 )


      isym =  8     inv.  90 deg rotation - cart. axis [0,0,1]   

 cryst.   s( 8) = (     0          0          1      )
                  (    -1         -1         -1      )
                  (     0          1          0      )

 cart.    s( 8) = ( -0.0000000  1.0000000  0.0000000 )
                  ( -1.0000000  0.0000000 -0.0000000 )
                  ( -0.0000000  0.0000000 -1.0000000 )


   Cartesian axes

     site n.     atom                  positions (alat units)
         1           Ba  tau(   1) = (   0.1498369   0.5091203   0.2868923  )
         2           Ba  tau(   2) = (   0.1682617   0.8272189   0.0000000  )
         3           Ba  tau(   3) = (   1.2049271   0.8456437   0.2868923  )
         4           Ba  tau(   4) = (   1.1865023   0.5275451   0.0000000  )
         5           Ba  tau(   5) = (   1.2088559   1.1065713   0.0000000  )
         6           Ba  tau(   6) = (   0.9255748   0.5314739   0.2868923  )
         7           Ba  tau(   7) = (   0.1459081   0.2481928   0.0000000  )
         8           Ba  tau(   8) = (   0.4291892   0.8232901   0.2868923  )
         9           Ba  tau(   9) = (   0.0000000   0.0000000   0.2868923  )
        10           In  tau(  10) = (   0.9992739   0.8124520   0.0000000  )
        11           In  tau(  11) = (   1.2196941   0.3218919   0.2868923  )
        12           In  tau(  12) = (   0.3554901   0.5423120  -0.0000000  )
        13           In  tau(  13) = (   0.1350700   1.0328721   0.2868923  )
        14           H   tau(  14) = (   0.0000000   0.0000000   0.0000000  )

   Crystallographic axes

     site n.     atom                  positions (cryst. coord.)
         1           Ba  tau(   1) = (  0.8758000  0.6106000  0.4864000  )
         2           Ba  tau(   2) = (  0.6106000  0.1242000  0.7348000  )
         3           Ba  tau(   3) = (  1.1242000  1.3894000  1.5136000  )
         4           Ba  tau(   4) = (  0.3894000  0.8758000  1.2652000  )
         5           Ba  tau(   5) = (  0.8168000  0.8923000  1.7091000  )
         6           Ba  tau(   6) = (  0.8923000  1.1832000  1.0755000  )
         7           Ba  tau(   7) = (  0.1832000  0.1077000  0.2909000  )
         8           Ba  tau(   8) = (  1.1077000  0.8168000  0.9245000  )
         9           Ba  tau(   9) = (  0.5000000  0.5000000 -0.0000000  )
        10           In  tau(  10) = (  0.5997000  0.7376000  1.3373000  )
        11           In  tau(  11) = (  0.7376000  1.4003000  1.1379000  )
        12           In  tau(  12) = (  0.4003000  0.2624000  0.6627000  )
        13           In  tau(  13) = (  1.2624000  0.5997000  0.8621000  )
        14           H   tau(  14) = (  0.0000000  0.0000000  0.0000000  )

     number of k points=    78  Marzari-Vanderbilt smearing, width (Ry)=  0.0100
                       cart. coord. in units 2pi/alat
        k(    1) = (   0.0000000   0.0000000   0.0000000), wk =   0.0019531
        k(    2) = (   0.0922670   0.0922670  -0.0000000), wk =   0.0078125
        k(    3) = (   0.1845340   0.1845340  -0.0000000), wk =   0.0078125
        k(    4) = (   0.2768010   0.2768010  -0.0000000), wk =   0.0078125
        k(    5) = (  -0.3690680  -0.3690680   0.0000000), wk =   0.0039063
        k(    6) = (   0.0922670  -0.0000000   0.2178518), wk =   0.0156250
        k(    7) = (   0.1845340   0.0922670   0.2178518), wk =   0.0156250
        k(    8) = (   0.2768010   0.1845340   0.2178518), wk =   0.0156250
        k(    9) = (   0.3690680   0.2768010   0.2178518), wk =   0.0156250
        k(   10) = (   0.1845340  -0.0000000   0.4357035), wk =   0.0156250
        k(   11) = (   0.2768010   0.0922670   0.4357035), wk =   0.0156250
        k(   12) = (   0.3690680   0.1845340   0.4357035), wk =   0.0156250
        k(   13) = (   0.4613350   0.2768010   0.4357035), wk =   0.0156250
        k(   14) = (   0.0922670  -0.0922670   0.4357035), wk =   0.0156250
        k(   15) = (   0.2768010  -0.0000000   0.6535553), wk =   0.0156250
        k(   16) = (   0.3690680   0.0922670   0.6535553), wk =   0.0156250
        k(   17) = (   0.4613350   0.1845340   0.6535553), wk =   0.0156250
        k(   18) = (   0.0922670  -0.1845340   0.6535553), wk =   0.0156250
        k(   19) = (  -0.3690680   0.0000000  -0.8714070), wk =   0.0078125
        k(   20) = (  -0.2768010   0.0922670  -0.8714070), wk =   0.0156250
        k(   21) = (  -0.1845340   0.1845340  -0.8714070), wk =   0.0156250
        k(   22) = (   0.1845340   0.1845340   0.4357035), wk =   0.0156250
        k(   23) = (   0.2768010   0.2768010   0.4357035), wk =   0.0156250
        k(   24) = (   0.3690680   0.3690680   0.4357035), wk =   0.0078125
        k(   25) = (   0.0000000   0.0000000   0.4357035), wk =   0.0039063
        k(   26) = (   0.2768010   0.1845340   0.6535553), wk =   0.0156250
        k(   27) = (   0.3690680   0.2768010   0.6535553), wk =   0.0156250
        k(   28) = (   0.0000000  -0.0922670   0.6535553), wk =   0.0156250
        k(   29) = (   0.3690680   0.1845340   0.8714070), wk =   0.0156250
        k(   30) = (   0.4613350   0.2768010   0.8714070), wk =   0.0156250
        k(   31) = (   0.0000000  -0.1845340   0.8714070), wk =   0.0156250
        k(   32) = (   0.0922670  -0.0922670   0.8714070), wk =   0.0156250
        k(   33) = (  -0.7381359  -0.2768010  -0.6535553), wk =   0.0156250
        k(   34) = (  -0.6458689  -0.1845340  -0.6535553), wk =   0.0156250
        k(   35) = (  -0.0000000   0.3690680  -0.4357035), wk =   0.0156250
        k(   36) = (  -0.6458689  -0.2768010  -0.4357035), wk =   0.0156250
        k(   37) = (  -0.5536019  -0.1845340  -0.4357035), wk =   0.0156250
        k(   38) = (   0.0000000   0.2768010  -0.2178518), wk =   0.0156250
        k(   39) = (   0.0922670   0.3690680  -0.2178518), wk =   0.0156250
        k(   40) = (  -0.5536019  -0.2768010  -0.2178518), wk =   0.0156250
        k(   41) = (   0.0000000   0.1845340  -0.0000000), wk =   0.0078125
        k(   42) = (   0.0922670   0.2768010  -0.0000000), wk =   0.0078125
        k(   43) = (   0.1845340   0.3690680  -0.0000000), wk =   0.0078125
        k(   44) = (  -0.4613350  -0.2768010   0.0000000), wk =   0.0078125
        k(   45) = (   0.3690680   0.3690680   0.8714070), wk =   0.0039063
        k(   46) = (   0.0000000   0.0000000   0.8714070), wk =   0.0039063
        k(   47) = (   0.0000000  -0.0922670   1.0892588), wk =   0.0156250
        k(   48) = (  -0.7381359  -0.1845340  -0.4357035), wk =   0.0156250
        k(   49) = (  -0.6458689  -0.0922670  -0.4357035), wk =   0.0156250
        k(   50) = (  -0.0000000   0.4613350  -0.2178518), wk =   0.0156250
        k(   51) = (  -0.6458689  -0.1845340  -0.2178518), wk =   0.0156250
        k(   52) = (   0.0000000   0.3690680  -0.0000000), wk =   0.0078125
        k(   53) = (   0.0922670   0.4613350  -0.0000000), wk =   0.0078125
        k(   54) = (  -0.5536019  -0.1845340   0.0000000), wk =   0.0078125
        k(   55) = (   0.0000000   0.0000000   1.3071105), wk =   0.0039063
        k(   56) = (  -0.7381359  -0.0922670  -0.2178518), wk =   0.0156250
        k(   57) = (  -0.0000000   0.5536019  -0.0000000), wk =   0.0078125
        k(   58) = (  -0.6458689  -0.0922670  -0.0000000), wk =   0.0078125
        k(   59) = (  -0.7381359  -0.7381359  -1.7428140), wk =   0.0019531
        k(   60) = (   0.0922670   0.1845340  -0.2178518), wk =   0.0156250
        k(   61) = (   0.1845340   0.2768010  -0.2178518), wk =   0.0156250
        k(   62) = (   0.2768010   0.3690680  -0.2178518), wk =   0.0156250
        k(   63) = (   0.0922670   0.2768010  -0.4357035), wk =   0.0156250
        k(   64) = (   0.1845340   0.3690680  -0.4357035), wk =   0.0156250
        k(   65) = (   0.0922670   0.3690680  -0.6535553), wk =   0.0156250
        k(   66) = (   0.1845340   0.4613350  -0.6535553), wk =   0.0156250
        k(   67) = (  -0.1845340   0.0922670  -0.6535553), wk =   0.0156250
        k(   68) = (   0.0922670  -0.2768010   0.8714070), wk =   0.0156250
        k(   69) = (   0.1845340   0.2768010  -0.6535553), wk =   0.0156250
        k(   70) = (   0.2768010   0.3690680  -0.6535553), wk =   0.0156250
        k(   71) = (  -0.1845340  -0.6458689   0.6535553), wk =   0.0156250
        k(   72) = (  -0.2768010  -0.6458689   0.4357035), wk =   0.0156250
        k(   73) = (   0.3690680   0.0922670   0.2178518), wk =   0.0156250
        k(   74) = (  -0.2768010  -0.5536019   0.2178518), wk =   0.0156250
        k(   75) = (   0.2768010   0.0922670  -0.0000000), wk =   0.0078125
        k(   76) = (   0.3690680   0.1845340  -0.0000000), wk =   0.0078125
        k(   77) = (  -0.1845340  -0.6458689   0.2178518), wk =   0.0156250
        k(   78) = (   0.4613350   0.0922670  -0.0000000), wk =   0.0078125

                       cryst. coord.
        k(    1) = (   0.0000000   0.0000000   0.0000000), wk =   0.0019531
        k(    2) = (   0.0000000  -0.0000000   0.1250000), wk =   0.0078125
        k(    3) = (   0.0000000  -0.0000000   0.2500000), wk =   0.0078125
        k(    4) = (  -0.0000000   0.0000000   0.3750000), wk =   0.0078125
        k(    5) = (  -0.0000000   0.0000000  -0.5000000), wk =   0.0039063
        k(    6) = (  -0.0000000   0.1250000   0.0000000), wk =   0.0156250
        k(    7) = (  -0.0000000   0.1250000   0.1250000), wk =   0.0156250
        k(    8) = (  -0.0000000   0.1250000   0.2500000), wk =   0.0156250
        k(    9) = (   0.0000000   0.1250000   0.3750000), wk =   0.0156250
        k(   10) = (  -0.0000000   0.2500000   0.0000000), wk =   0.0156250
        k(   11) = (  -0.0000000   0.2500000   0.1250000), wk =   0.0156250
        k(   12) = (  -0.0000000   0.2500000   0.2500000), wk =   0.0156250
        k(   13) = (   0.0000000   0.2500000   0.3750000), wk =   0.0156250
        k(   14) = (  -0.0000000   0.2500000  -0.1250000), wk =   0.0156250
        k(   15) = (  -0.0000000   0.3750000   0.0000000), wk =   0.0156250
        k(   16) = (  -0.0000000   0.3750000   0.1250000), wk =   0.0156250
        k(   17) = (  -0.0000000   0.3750000   0.2500000), wk =   0.0156250
        k(   18) = (  -0.0000000   0.3750000  -0.2500000), wk =   0.0156250
        k(   19) = (   0.0000000  -0.5000000  -0.0000000), wk =   0.0078125
        k(   20) = (   0.0000000  -0.5000000   0.1250000), wk =   0.0156250
        k(   21) = (   0.0000000  -0.5000000   0.2500000), wk =   0.0156250
        k(   22) = (   0.1250000   0.1250000   0.1250000), wk =   0.0156250
        k(   23) = (   0.1250000   0.1250000   0.2500000), wk =   0.0156250
        k(   24) = (   0.1250000   0.1250000   0.3750000), wk =   0.0078125
        k(   25) = (   0.1250000   0.1250000  -0.1250000), wk =   0.0039063
        k(   26) = (   0.1250000   0.2500000   0.1250000), wk =   0.0156250
        k(   27) = (   0.1250000   0.2500000   0.2500000), wk =   0.0156250
        k(   28) = (   0.1250000   0.2500000  -0.2500000), wk =   0.0156250
        k(   29) = (   0.1250000   0.3750000   0.1250000), wk =   0.0156250
        k(   30) = (   0.1250000   0.3750000   0.2500000), wk =   0.0156250
        k(   31) = (   0.1250000   0.3750000  -0.3750000), wk =   0.0156250
        k(   32) = (   0.1250000   0.3750000  -0.2500000), wk =   0.0156250
        k(   33) = (   0.1250000  -0.5000000  -0.5000000), wk =   0.0156250
        k(   34) = (   0.1250000  -0.5000000  -0.3750000), wk =   0.0156250
        k(   35) = (   0.1250000  -0.3750000   0.3750000), wk =   0.0156250
        k(   36) = (   0.1250000  -0.3750000  -0.5000000), wk =   0.0156250
        k(   37) = (   0.1250000  -0.3750000  -0.3750000), wk =   0.0156250
        k(   38) = (   0.1250000  -0.2500000   0.2500000), wk =   0.0156250
        k(   39) = (   0.1250000  -0.2500000   0.3750000), wk =   0.0156250
        k(   40) = (   0.1250000  -0.2500000  -0.5000000), wk =   0.0156250
        k(   41) = (   0.1250000  -0.1250000   0.1250000), wk =   0.0078125
        k(   42) = (   0.1250000  -0.1250000   0.2500000), wk =   0.0078125
        k(   43) = (   0.1250000  -0.1250000   0.3750000), wk =   0.0078125
        k(   44) = (   0.1250000  -0.1250000  -0.5000000), wk =   0.0078125
        k(   45) = (   0.2500000   0.2500000   0.2500000), wk =   0.0039063
        k(   46) = (   0.2500000   0.2500000  -0.2500000), wk =   0.0039063
        k(   47) = (   0.2500000   0.3750000  -0.3750000), wk =   0.0156250
        k(   48) = (   0.2500000  -0.5000000  -0.5000000), wk =   0.0156250
        k(   49) = (   0.2500000  -0.5000000  -0.3750000), wk =   0.0156250
        k(   50) = (   0.2500000  -0.3750000   0.3750000), wk =   0.0156250
        k(   51) = (   0.2500000  -0.3750000  -0.5000000), wk =   0.0156250
        k(   52) = (   0.2500000  -0.2500000   0.2500000), wk =   0.0078125
        k(   53) = (   0.2500000  -0.2500000   0.3750000), wk =   0.0078125
        k(   54) = (   0.2500000  -0.2500000  -0.5000000), wk =   0.0078125
        k(   55) = (   0.3750000   0.3750000  -0.3750000), wk =   0.0039063
        k(   56) = (   0.3750000  -0.5000000  -0.5000000), wk =   0.0156250
        k(   57) = (   0.3750000  -0.3750000   0.3750000), wk =   0.0078125
        k(   58) = (   0.3750000  -0.3750000  -0.5000000), wk =   0.0078125
        k(   59) = (  -0.5000000  -0.5000000  -0.5000000), wk =   0.0019531
        k(   60) = (   0.0000000  -0.1250000   0.2500000), wk =   0.0156250
        k(   61) = (   0.0000000  -0.1250000   0.3750000), wk =   0.0156250
        k(   62) = (  -0.0000000  -0.1250000   0.5000000), wk =   0.0156250
        k(   63) = (   0.0000000  -0.2500000   0.3750000), wk =   0.0156250
        k(   64) = (   0.0000000  -0.2500000   0.5000000), wk =   0.0156250
        k(   65) = (   0.0000000  -0.3750000   0.5000000), wk =   0.0156250
        k(   66) = (   0.0000000  -0.3750000   0.6250000), wk =   0.0156250
        k(   67) = (   0.0000000  -0.3750000   0.1250000), wk =   0.0156250
        k(   68) = (  -0.0000000   0.5000000  -0.3750000), wk =   0.0156250
        k(   69) = (  -0.1250000  -0.2500000   0.5000000), wk =   0.0156250
        k(   70) = (  -0.1250000  -0.2500000   0.6250000), wk =   0.0156250
        k(   71) = (  -0.1250000   0.5000000  -0.7500000), wk =   0.0156250
        k(   72) = (  -0.1250000   0.3750000  -0.7500000), wk =   0.0156250
        k(   73) = (  -0.1250000   0.2500000   0.2500000), wk =   0.0156250
        k(   74) = (  -0.1250000   0.2500000  -0.6250000), wk =   0.0156250
        k(   75) = (  -0.1250000   0.1250000   0.2500000), wk =   0.0078125
        k(   76) = (  -0.1250000   0.1250000   0.3750000), wk =   0.0078125
        k(   77) = (  -0.2500000   0.3750000  -0.6250000), wk =   0.0156250
        k(   78) = (  -0.2500000   0.2500000   0.3750000), wk =   0.0078125

     Dense  grid:   692043 G-vectors     FFT dimensions: ( 135, 135, 135)

     Smooth grid:   244787 G-vectors     FFT dimensions: ( 100, 100, 100)

     Dynamical RAM for                 wfc:      40.15 MB

     Dynamical RAM for     wfc (w. buffer):    6303.93 MB

     Dynamical RAM for           str. fact:      31.68 MB

     Dynamical RAM for           local pot:       0.00 MB

     Dynamical RAM for          nlocal pot:     114.39 MB

     Dynamical RAM for                qrad:       7.03 MB

     Dynamical RAM for          rho,v,vnew:     175.99 MB

     Dynamical RAM for               rhoin:      58.66 MB

     Dynamical RAM for            rho*nmix:     337.91 MB

     Dynamical RAM for           G-vectors:      41.47 MB

     Dynamical RAM for          h,s,v(r/c):       1.35 MB

     Dynamical RAM for          <psi|beta>:       0.32 MB

     Dynamical RAM for                 psi:      80.30 MB

     Dynamical RAM for                hpsi:      80.30 MB

     Dynamical RAM for                spsi:      80.30 MB

     Dynamical RAM for      wfcinit/wfcrot:      80.47 MB

     Dynamical RAM for           addusdens:    2270.34 MB

     Dynamical RAM for          addusforce:    2439.38 MB

     Dynamical RAM for         addusstress:    2338.98 MB

     Estimated static dynamical RAM per process >       6.73 GB

     Estimated max dynamical RAM per process >       9.44 GB
     Generating pointlists ...
     new r_m :   0.1183 (alat units)  2.3066 (a.u.) for type    1
     new r_m :   0.1183 (alat units)  2.3066 (a.u.) for type    2
     new r_m :   0.1406 (alat units)  2.7410 (a.u.) for type    3

     Initial potential from superposition of free atoms

     starting charge     142.8455, renormalised to     143.0000
     Starting wfcs are   82 randomized atomic wfcs +    4 random wfcs
     Checking if some PAW data can be deallocated... 

     total cpu time spent up to now is       26.2 secs

     Self-consistent Calculation
[tb_dev] Currently allocated     4.44E+01 Mbytes, locked:    0 /  17
[tb_pin] Currently allocated     0.00E+00 Mbytes, locked:    0 /   0

     iteration #  1     ecut=    60.00 Ry     beta= 0.40
     Davidson diagonalization with overlap

---- Real-time Memory Report at c_bands before calling an iterative solver
          8193 MiB given to the printing process from OS
          -730 MiB allocation reported by mallinfo(arena+hblkhd)
         51565 MiB available memory on the node where the printing process lives
     GPU memory used/free/total (MiB): 2764 / 13516 / 16280
------------------
     ethr =  1.00E-02,  avg # of iterations =  8.2

     negative rho (up, down):  3.778E+00 9.392E-01

     total cpu time spent up to now is       86.3 secs

     total energy              =   -4446.17497120 Ry
     estimated scf accuracy    <      42.15065140 Ry

     total magnetization       =     2.56 Bohr mag/cell
     absolute magnetization    =    33.74 Bohr mag/cell
[tb_dev] Currently allocated     4.44E+01 Mbytes, locked:    0 /  15
[tb_pin] Currently allocated     0.00E+00 Mbytes, locked:    0 /   0

     iteration #  2     ecut=    60.00 Ry     beta= 0.40
     Davidson diagonalization with overlap

---- Real-time Memory Report at c_bands before calling an iterative solver
          8525 MiB given to the printing process from OS
          -523 MiB allocation reported by mallinfo(arena+hblkhd)
         51393 MiB available memory on the node where the printing process lives
     GPU memory used/free/total (MiB): 6654 / 9626 / 16280
------------------
     ethr =  1.00E-02,  avg # of iterations =  1.5

     negative rho (up, down):  5.735E+00 1.885E+00

     total cpu time spent up to now is      124.1 secs

     total energy              =   -4445.97808714 Ry
     estimated scf accuracy    <       7.11325634 Ry

     total magnetization       =     2.55 Bohr mag/cell
     absolute magnetization    =    25.07 Bohr mag/cell
[tb_dev] Currently allocated     4.44E+01 Mbytes, locked:    0 /  15
[tb_pin] Currently allocated     0.00E+00 Mbytes, locked:    0 /   0

     iteration #  3     ecut=    60.00 Ry     beta= 0.40
     Davidson diagonalization with overlap

---- Real-time Memory Report at c_bands before calling an iterative solver
          8642 MiB given to the printing process from OS
          -463 MiB allocation reported by mallinfo(arena+hblkhd)
         51353 MiB available memory on the node where the printing process lives
     GPU memory used/free/total (MiB): 6654 / 9626 / 16280
------------------
     ethr =  4.97E-03,  avg # of iterations =  2.3

     negative rho (up, down):  5.403E+00 2.040E+00

     total cpu time spent up to now is      164.8 secs

     total energy              =   -4445.91784142 Ry
     estimated scf accuracy    <       6.55208687 Ry

     total magnetization       =     1.56 Bohr mag/cell
     absolute magnetization    =    15.61 Bohr mag/cell
[tb_dev] Currently allocated     4.44E+01 Mbytes, locked:    0 /  15
[tb_pin] Currently allocated     0.00E+00 Mbytes, locked:    0 /   0

     iteration #  4     ecut=    60.00 Ry     beta= 0.40
     Davidson diagonalization with overlap

---- Real-time Memory Report at c_bands before calling an iterative solver
          8691 MiB given to the printing process from OS
          -414 MiB allocation reported by mallinfo(arena+hblkhd)
         51297 MiB available memory on the node where the printing process lives
     GPU memory used/free/total (MiB): 6654 / 9626 / 16280
------------------
     ethr =  4.58E-03,  avg # of iterations =  1.9

     negative rho (up, down):  4.934E+00 1.787E+00

     total cpu time spent up to now is      203.4 secs

     total energy              =   -4446.44244958 Ry
     estimated scf accuracy    <       0.93316431 Ry

     total magnetization       =     1.96 Bohr mag/cell
     absolute magnetization    =    14.49 Bohr mag/cell
[tb_dev] Currently allocated     4.44E+01 Mbytes, locked:    0 /  15
[tb_pin] Currently allocated     0.00E+00 Mbytes, locked:    0 /   0

     iteration #  5     ecut=    60.00 Ry     beta= 0.40
     Davidson diagonalization with overlap

---- Real-time Memory Report at c_bands before calling an iterative solver
          8724 MiB given to the printing process from OS
          -436 MiB allocation reported by mallinfo(arena+hblkhd)
         51265 MiB available memory on the node where the printing process lives
     GPU memory used/free/total (MiB): 6654 / 9626 / 16280
------------------
     ethr =  6.53E-04,  avg # of iterations =  3.5

     negative rho (up, down):  5.036E+00 1.813E+00

     total cpu time spent up to now is      247.7 secs

     total energy              =   -4446.52752257 Ry
     estimated scf accuracy    <       4.34516524 Ry

     total magnetization       =     1.53 Bohr mag/cell
     absolute magnetization    =    19.75 Bohr mag/cell
[tb_dev] Currently allocated     4.44E+01 Mbytes, locked:    0 /  15
[tb_pin] Currently allocated     0.00E+00 Mbytes, locked:    0 /   0

     iteration #  6     ecut=    60.00 Ry     beta= 0.40
     Davidson diagonalization with overlap

---- Real-time Memory Report at c_bands before calling an iterative solver
          8766 MiB given to the printing process from OS
          -338 MiB allocation reported by mallinfo(arena+hblkhd)
         51228 MiB available memory on the node where the printing process lives
     GPU memory used/free/total (MiB): 6654 / 9626 / 16280
------------------
     ethr =  6.53E-04,  avg # of iterations =  1.5

     negative rho (up, down):  4.921E+00 1.812E+00

     total cpu time spent up to now is      285.5 secs

     total energy              =   -4446.55157838 Ry
     estimated scf accuracy    <       2.14543992 Ry

     total magnetization       =     1.61 Bohr mag/cell
     absolute magnetization    =    18.10 Bohr mag/cell
[tb_dev] Currently allocated     4.44E+01 Mbytes, locked:    0 /  15
[tb_pin] Currently allocated     0.00E+00 Mbytes, locked:    0 /   0

     iteration #  7     ecut=    60.00 Ry     beta= 0.40
     Davidson diagonalization with overlap

---- Real-time Memory Report at c_bands before calling an iterative solver
          8809 MiB given to the printing process from OS
          -297 MiB allocation reported by mallinfo(arena+hblkhd)
         51187 MiB available memory on the node where the printing process lives
     GPU memory used/free/total (MiB): 6654 / 9626 / 16280
------------------
     ethr =  6.53E-04,  avg # of iterations =  1.0

     negative rho (up, down):  4.677E+00 1.806E+00

     total cpu time spent up to now is      322.3 secs

     total energy              =   -4446.58749067 Ry
     estimated scf accuracy    <       1.40709692 Ry

     total magnetization       =     1.54 Bohr mag/cell
     absolute magnetization    =    17.08 Bohr mag/cell
[tb_dev] Currently allocated     4.44E+01 Mbytes, locked:    0 /  15
[tb_pin] Currently allocated     0.00E+00 Mbytes, locked:    0 /   0

     iteration #  8     ecut=    60.00 Ry     beta= 0.40
     Davidson diagonalization with overlap

---- Real-time Memory Report at c_bands before calling an iterative solver
          8848 MiB given to the printing process from OS
          -255 MiB allocation reported by mallinfo(arena+hblkhd)
         51145 MiB available memory on the node where the printing process lives
     GPU memory used/free/total (MiB): 6654 / 9626 / 16280
------------------
     ethr =  6.53E-04,  avg # of iterations =  2.5

     negative rho (up, down):  4.686E+00 1.817E+00

     total cpu time spent up to now is      364.9 secs

     total energy              =   -4446.70078411 Ry
     estimated scf accuracy    <      10.40014066 Ry

     total magnetization       =     1.46 Bohr mag/cell
     absolute magnetization    =    21.55 Bohr mag/cell
[tb_dev] Currently allocated     4.44E+01 Mbytes, locked:    0 /  15
[tb_pin] Currently allocated     0.00E+00 Mbytes, locked:    0 /   0

     iteration #  9     ecut=    60.00 Ry     beta= 0.40
     Davidson diagonalization with overlap

---- Real-time Memory Report at c_bands before calling an iterative solver
          8891 MiB given to the printing process from OS
          -214 MiB allocation reported by mallinfo(arena+hblkhd)
         51106 MiB available memory on the node where the printing process lives
     GPU memory used/free/total (MiB): 6654 / 9626 / 16280
------------------
     ethr =  6.53E-04,  avg # of iterations =  1.1

     negative rho (up, down):  4.567E+00 1.775E+00

     total cpu time spent up to now is      401.8 secs

     total energy              =   -4446.71786593 Ry
     estimated scf accuracy    <      10.24930570 Ry

     total magnetization       =     1.44 Bohr mag/cell
     absolute magnetization    =    19.93 Bohr mag/cell
[tb_dev] Currently allocated     4.44E+01 Mbytes, locked:    0 /  15
[tb_pin] Currently allocated     0.00E+00 Mbytes, locked:    0 /   0

     iteration # 10     ecut=    60.00 Ry     beta= 0.40
     Davidson diagonalization with overlap

---- Real-time Memory Report at c_bands before calling an iterative solver
          8933 MiB given to the printing process from OS
          -172 MiB allocation reported by mallinfo(arena+hblkhd)
         51037 MiB available memory on the node where the printing process lives
     GPU memory used/free/total (MiB): 6654 / 9626 / 16280
------------------
     ethr =  6.53E-04,  avg # of iterations =  1.1

     negative rho (up, down):  4.684E+00 1.644E+00

     total cpu time spent up to now is      438.8 secs

     total energy              =   -4446.58360221 Ry
     estimated scf accuracy    <      10.37255980 Ry

     total magnetization       =     1.45 Bohr mag/cell
     absolute magnetization    =    21.27 Bohr mag/cell
[tb_dev] Currently allocated     4.44E+01 Mbytes, locked:    0 /  15
[tb_pin] Currently allocated     0.00E+00 Mbytes, locked:    0 /   0

     iteration # 11     ecut=    60.00 Ry     beta= 0.40
     Davidson diagonalization with overlap

---- Real-time Memory Report at c_bands before calling an iterative solver
          8958 MiB given to the printing process from OS
          -210 MiB allocation reported by mallinfo(arena+hblkhd)
         51034 MiB available memory on the node where the printing process lives
     GPU memory used/free/total (MiB): 6654 / 9626 / 16280
------------------
     ethr =  6.53E-04,  avg # of iterations =  3.0

     negative rho (up, down):  4.799E+00 1.900E+00

     total cpu time spent up to now is      481.9 secs

     total energy              =   -4446.50167784 Ry
     estimated scf accuracy    <      12.37368450 Ry

     total magnetization       =     1.49 Bohr mag/cell
     absolute magnetization    =    20.17 Bohr mag/cell
[tb_dev] Currently allocated     4.44E+01 Mbytes, locked:    0 /  15
[tb_pin] Currently allocated     0.00E+00 Mbytes, locked:    0 /   0

     iteration # 12     ecut=    60.00 Ry     beta= 0.40
     Davidson diagonalization with overlap

---- Real-time Memory Report at c_bands before calling an iterative solver
          8977 MiB given to the printing process from OS
          -134 MiB allocation reported by mallinfo(arena+hblkhd)
         51010 MiB available memory on the node where the printing process lives
     GPU memory used/free/total (MiB): 6654 / 9626 / 16280
------------------
     ethr =  6.53E-04,  avg # of iterations =  2.6

     negative rho (up, down):  4.842E+00 1.961E+00

     total cpu time spent up to now is      524.9 secs

     total energy              =   -4446.60548041 Ry
     estimated scf accuracy    <       6.31727901 Ry

     total magnetization       =     1.40 Bohr mag/cell
     absolute magnetization    =    17.56 Bohr mag/cell
[tb_dev] Currently allocated     4.44E+01 Mbytes, locked:    0 /  15
[tb_pin] Currently allocated     0.00E+00 Mbytes, locked:    0 /   0

     iteration # 13     ecut=    60.00 Ry     beta= 0.40
     Davidson diagonalization with overlap

---- Real-time Memory Report at c_bands before calling an iterative solver
          8997 MiB given to the printing process from OS
          -172 MiB allocation reported by mallinfo(arena+hblkhd)
         51002 MiB available memory on the node where the printing process lives
     GPU memory used/free/total (MiB): 6654 / 9626 / 16280
------------------
     ethr =  6.53E-04,  avg # of iterations =  1.6

     negative rho (up, down):  4.722E+00 2.022E+00

     total cpu time spent up to now is      562.8 secs

     total energy              =   -4446.63136748 Ry
     estimated scf accuracy    <       5.25649335 Ry

     total magnetization       =     1.27 Bohr mag/cell
     absolute magnetization    =    18.21 Bohr mag/cell
[tb_dev] Currently allocated     4.44E+01 Mbytes, locked:    0 /  15
[tb_pin] Currently allocated     0.00E+00 Mbytes, locked:    0 /   0

     iteration # 14     ecut=    60.00 Ry     beta= 0.40
     Davidson diagonalization with overlap

---- Real-time Memory Report at c_bands before calling an iterative solver
          9015 MiB given to the printing process from OS
           -96 MiB allocation reported by mallinfo(arena+hblkhd)
         50977 MiB available memory on the node where the printing process lives
     GPU memory used/free/total (MiB): 6654 / 9626 / 16280
------------------
     ethr =  6.53E-04,  avg # of iterations =  1.6

     negative rho (up, down):  4.597E+00 2.102E+00

     total cpu time spent up to now is      601.3 secs

     total energy              =   -4446.62369569 Ry
     estimated scf accuracy    <       5.59787580 Ry

     total magnetization       =     1.17 Bohr mag/cell
     absolute magnetization    =    18.62 Bohr mag/cell
[tb_dev] Currently allocated     4.44E+01 Mbytes, locked:    0 /  15
[tb_pin] Currently allocated     0.00E+00 Mbytes, locked:    0 /   0

     iteration # 15     ecut=    60.00 Ry     beta= 0.40
     Davidson diagonalization with overlap

---- Real-time Memory Report at c_bands before calling an iterative solver
          9034 MiB given to the printing process from OS
          -134 MiB allocation reported by mallinfo(arena+hblkhd)
         50966 MiB available memory on the node where the printing process lives
     GPU memory used/free/total (MiB): 6654 / 9626 / 16280
------------------
     ethr =  6.53E-04,  avg # of iterations =  2.5

     negative rho (up, down):  4.680E+00 2.161E+00

     total cpu time spent up to now is      643.1 secs

     total energy              =   -4446.71085828 Ry
     estimated scf accuracy    <      10.44928375 Ry

     total magnetization       =     1.07 Bohr mag/cell
     absolute magnetization    =    10.20 Bohr mag/cell
[tb_dev] Currently allocated     4.44E+01 Mbytes, locked:    0 /  15
[tb_pin] Currently allocated     0.00E+00 Mbytes, locked:    0 /   0

     iteration # 16     ecut=    60.00 Ry     beta= 0.40
     Davidson diagonalization with overlap

---- Real-time Memory Report at c_bands before calling an iterative solver
          9054 MiB given to the printing process from OS
           -58 MiB allocation reported by mallinfo(arena+hblkhd)
         50942 MiB available memory on the node where the printing process lives
     GPU memory used/free/total (MiB): 6654 / 9626 / 16280
------------------
     ethr =  6.53E-04,  avg # of iterations =  2.0

     negative rho (up, down):  4.951E+00 2.541E+00

     total cpu time spent up to now is      681.9 secs

     total energy              =   -4446.40841869 Ry
     estimated scf accuracy    <      11.00747760 Ry

     total magnetization       =     0.75 Bohr mag/cell
     absolute magnetization    =     7.74 Bohr mag/cell
[tb_dev] Currently allocated     4.44E+01 Mbytes, locked:    0 /  15
[tb_pin] Currently allocated     0.00E+00 Mbytes, locked:    0 /   0

     iteration # 17     ecut=    60.00 Ry     beta= 0.40
     Davidson diagonalization with overlap

---- Real-time Memory Report at c_bands before calling an iterative solver
          9072 MiB given to the printing process from OS
           -96 MiB allocation reported by mallinfo(arena+hblkhd)
         50930 MiB available memory on the node where the printing process lives
     GPU memory used/free/total (MiB): 6654 / 9626 / 16280
------------------
     ethr =  6.53E-04,  avg # of iterations =  4.1

     negative rho (up, down):  4.732E+00 2.955E+00

     total cpu time spent up to now is      729.4 secs

     total energy              =   -4446.64351554 Ry
     estimated scf accuracy    <       5.12722627 Ry

     total magnetization       =     0.58 Bohr mag/cell
     absolute magnetization    =    11.29 Bohr mag/cell
[tb_dev] Currently allocated     4.44E+01 Mbytes, locked:    0 /  15
[tb_pin] Currently allocated     0.00E+00 Mbytes, locked:    0 /   0

     iteration # 18     ecut=    60.00 Ry     beta= 0.40
     Davidson diagonalization with overlap

---- Real-time Memory Report at c_bands before calling an iterative solver
          9091 MiB given to the printing process from OS
           -21 MiB allocation reported by mallinfo(arena+hblkhd)
         50904 MiB available memory on the node where the printing process lives
     GPU memory used/free/total (MiB): 6654 / 9626 / 16280
------------------
     ethr =  6.53E-04,  avg # of iterations =  3.1

     negative rho (up, down):  5.164E+00 1.858E+00

     total cpu time spent up to now is      771.9 secs

     total energy              =   -4446.59526320 Ry
     estimated scf accuracy    <       7.79371721 Ry

     total magnetization       =     0.20 Bohr mag/cell
     absolute magnetization    =     9.95 Bohr mag/cell
[tb_dev] Currently allocated     4.44E+01 Mbytes, locked:    0 /  15
[tb_pin] Currently allocated     0.00E+00 Mbytes, locked:    0 /   0

     iteration # 19     ecut=    60.00 Ry     beta= 0.40
     Davidson diagonalization with overlap

---- Real-time Memory Report at c_bands before calling an iterative solver
          9111 MiB given to the printing process from OS
           -58 MiB allocation reported by mallinfo(arena+hblkhd)
         50892 MiB available memory on the node where the printing process lives
     GPU memory used/free/total (MiB): 6654 / 9626 / 16280
------------------
     ethr =  6.53E-04,  avg # of iterations =  4.0

     negative rho (up, down):  5.053E+00 1.877E+00

     total cpu time spent up to now is      816.3 secs

     total energy              =   -4446.67880977 Ry
     estimated scf accuracy    <       9.61827311 Ry

     total magnetization       =     1.12 Bohr mag/cell
     absolute magnetization    =    11.83 Bohr mag/cell
[tb_dev] Currently allocated     4.44E+01 Mbytes, locked:    0 /  15
[tb_pin] Currently allocated     0.00E+00 Mbytes, locked:    0 /   0

     iteration # 20     ecut=    60.00 Ry     beta= 0.40
     Davidson diagonalization with overlap

---- Real-time Memory Report at c_bands before calling an iterative solver
          9129 MiB given to the printing process from OS
            16 MiB allocation reported by mallinfo(arena+hblkhd)
         50866 MiB available memory on the node where the printing process lives
     GPU memory used/free/total (MiB): 6654 / 9626 / 16280
------------------
     ethr =  6.53E-04,  avg # of iterations =  2.4

     negative rho (up, down):  5.192E+00 1.768E+00

     total cpu time spent up to now is      855.4 secs

     total energy              =   -4446.67282308 Ry
     estimated scf accuracy    <       9.82090976 Ry

     total magnetization       =     1.13 Bohr mag/cell
     absolute magnetization    =    12.42 Bohr mag/cell
[tb_dev] Currently allocated     4.44E+01 Mbytes, locked:    0 /  15
[tb_pin] Currently allocated     0.00E+00 Mbytes, locked:    0 /   0

     iteration # 21     ecut=    60.00 Ry     beta= 0.40
     Davidson diagonalization with overlap

---- Real-time Memory Report at c_bands before calling an iterative solver
          9148 MiB given to the printing process from OS
           -20 MiB allocation reported by mallinfo(arena+hblkhd)
         50856 MiB available memory on the node where the printing process lives
     GPU memory used/free/total (MiB): 6654 / 9626 / 16280
------------------
     ethr =  6.53E-04,  avg # of iterations =  1.5

     negative rho (up, down):  4.421E+00 1.998E+00

     total cpu time spent up to now is      893.4 secs

     total energy              =   -4446.55312408 Ry
     estimated scf accuracy    <       8.03841903 Ry

     total magnetization       =     1.29 Bohr mag/cell
     absolute magnetization    =    11.29 Bohr mag/cell
[tb_dev] Currently allocated     4.44E+01 Mbytes, locked:    0 /  15
[tb_pin] Currently allocated     0.00E+00 Mbytes, locked:    0 /   0

     iteration # 22     ecut=    60.00 Ry     beta= 0.40
     Davidson diagonalization with overlap

---- Real-time Memory Report at c_bands before calling an iterative solver
          9167 MiB given to the printing process from OS
            54 MiB allocation reported by mallinfo(arena+hblkhd)
         50828 MiB available memory on the node where the printing process lives
     GPU memory used/free/total (MiB): 6654 / 9626 / 16280
------------------
     ethr =  6.53E-04,  avg # of iterations =  4.0

     negative rho (up, down):  3.825E+00 2.622E+00

     total cpu time spent up to now is      938.9 secs

     total energy              =   -4446.51038768 Ry
     estimated scf accuracy    <       4.67599258 Ry

     total magnetization       =     1.07 Bohr mag/cell
     absolute magnetization    =     6.15 Bohr mag/cell
[tb_dev] Currently allocated     4.44E+01 Mbytes, locked:    0 /  15
[tb_pin] Currently allocated     0.00E+00 Mbytes, locked:    0 /   0

     iteration # 23     ecut=    60.00 Ry     beta= 0.40
     Davidson diagonalization with overlap

---- Real-time Memory Report at c_bands before calling an iterative solver
          9187 MiB given to the printing process from OS
            17 MiB allocation reported by mallinfo(arena+hblkhd)
         50819 MiB available memory on the node where the printing process lives
     GPU memory used/free/total (MiB): 6654 / 9626 / 16280
------------------
     ethr =  6.53E-04,  avg # of iterations =  4.5

     negative rho (up, down):  4.145E+00 2.476E+00

     total cpu time spent up to now is      987.2 secs

     total energy              =   -4446.67650371 Ry
     estimated scf accuracy    <      10.09047980 Ry

     total magnetization       =     0.55 Bohr mag/cell
     absolute magnetization    =    10.87 Bohr mag/cell
[tb_dev] Currently allocated     4.44E+01 Mbytes, locked:    0 /  15
[tb_pin] Currently allocated     0.00E+00 Mbytes, locked:    0 /   0

     iteration # 24     ecut=    60.00 Ry     beta= 0.40
     Davidson diagonalization with overlap

---- Real-time Memory Report at c_bands before calling an iterative solver
          9204 MiB given to the printing process from OS
            92 MiB allocation reported by mallinfo(arena+hblkhd)
         50790 MiB available memory on the node where the printing process lives
     GPU memory used/free/total (MiB): 6654 / 9626 / 16280
------------------
     ethr =  6.53E-04,  avg # of iterations =  3.0

     negative rho (up, down):  4.091E+00 2.683E+00

     total cpu time spent up to now is     1029.2 secs

     total energy              =   -4446.73300210 Ry
     estimated scf accuracy    <       8.49042253 Ry

     total magnetization       =     0.70 Bohr mag/cell
     absolute magnetization    =    11.02 Bohr mag/cell
[tb_dev] Currently allocated     4.44E+01 Mbytes, locked:    0 /  15
[tb_pin] Currently allocated     0.00E+00 Mbytes, locked:    0 /   0

     iteration # 25     ecut=    60.00 Ry     beta= 0.40
     Davidson diagonalization with overlap

---- Real-time Memory Report at c_bands before calling an iterative solver
          9224 MiB given to the printing process from OS
            55 MiB allocation reported by mallinfo(arena+hblkhd)
         50779 MiB available memory on the node where the printing process lives
     GPU memory used/free/total (MiB): 6654 / 9626 / 16280
------------------
     ethr =  6.53E-04,  avg # of iterations =  1.6

     negative rho (up, down):  4.062E+00 2.639E+00

     total cpu time spent up to now is     1067.3 secs

     total energy              =   -4446.75609007 Ry
     estimated scf accuracy    <       9.48701012 Ry

     total magnetization       =     0.53 Bohr mag/cell
     absolute magnetization    =     9.83 Bohr mag/cell
[tb_dev] Currently allocated     4.44E+01 Mbytes, locked:    0 /  15
[tb_pin] Currently allocated     0.00E+00 Mbytes, locked:    0 /   0

     iteration # 26     ecut=    60.00 Ry     beta= 0.40
     Davidson diagonalization with overlap

---- Real-time Memory Report at c_bands before calling an iterative solver
          9243 MiB given to the printing process from OS
           130 MiB allocation reported by mallinfo(arena+hblkhd)
         50751 MiB available memory on the node where the printing process lives
     GPU memory used/free/total (MiB): 6654 / 9626 / 16280
------------------
     ethr =  6.53E-04,  avg # of iterations =  1.0

     negative rho (up, down):  4.183E+00 3.080E+00

     total cpu time spent up to now is     1104.0 secs

     total energy              =   -4446.76626019 Ry
     estimated scf accuracy    <       9.73814333 Ry

     total magnetization       =     0.53 Bohr mag/cell
     absolute magnetization    =    10.47 Bohr mag/cell
[tb_dev] Currently allocated     4.44E+01 Mbytes, locked:    0 /  15
[tb_pin] Currently allocated     0.00E+00 Mbytes, locked:    0 /   0

     iteration # 27     ecut=    60.00 Ry     beta= 0.40
     Davidson diagonalization with overlap

---- Real-time Memory Report at c_bands before calling an iterative solver
          9261 MiB given to the printing process from OS
            93 MiB allocation reported by mallinfo(arena+hblkhd)
         50739 MiB available memory on the node where the printing process lives
     GPU memory used/free/total (MiB): 6654 / 9626 / 16280
------------------
     ethr =  6.53E-04,  avg # of iterations =  4.1

     negative rho (up, down):  3.862E+00 2.672E+00

     total cpu time spent up to now is     1151.1 secs

     total energy              =   -4446.51550738 Ry
     estimated scf accuracy    <      11.11911141 Ry

     total magnetization       =     0.11 Bohr mag/cell
     absolute magnetization    =     9.97 Bohr mag/cell
[tb_dev] Currently allocated     4.44E+01 Mbytes, locked:    0 /  15
[tb_pin] Currently allocated     0.00E+00 Mbytes, locked:    0 /   0

     iteration # 28     ecut=    60.00 Ry     beta= 0.40
     Davidson diagonalization with overlap

---- Real-time Memory Report at c_bands before calling an iterative solver
          9281 MiB given to the printing process from OS
           168 MiB allocation reported by mallinfo(arena+hblkhd)
         50715 MiB available memory on the node where the printing process lives
     GPU memory used/free/total (MiB): 6654 / 9626 / 16280
------------------
     ethr =  6.53E-04,  avg # of iterations =  4.0

     negative rho (up, down):  3.804E+00 2.334E+00

     total cpu time spent up to now is     1199.7 secs

     total energy              =   -4446.48589359 Ry
     estimated scf accuracy    <      10.93386568 Ry

     total magnetization       =     0.26 Bohr mag/cell
     absolute magnetization    =    18.03 Bohr mag/cell
[tb_dev] Currently allocated     4.44E+01 Mbytes, locked:    0 /  15
[tb_pin] Currently allocated     0.00E+00 Mbytes, locked:    0 /   0

     iteration # 29     ecut=    60.00 Ry     beta= 0.40
     Davidson diagonalization with overlap

---- Real-time Memory Report at c_bands before calling an iterative solver
          9301 MiB given to the printing process from OS
           131 MiB allocation reported by mallinfo(arena+hblkhd)
         50704 MiB available memory on the node where the printing process lives
     GPU memory used/free/total (MiB): 6654 / 9626 / 16280
------------------
     ethr =  6.53E-04,  avg # of iterations =  4.0

     negative rho (up, down):  3.984E+00 2.260E+00

     total cpu time spent up to now is     1247.3 secs

     total energy              =   -4446.49448512 Ry
     estimated scf accuracy    <       6.98405243 Ry

     total magnetization       =     0.64 Bohr mag/cell
     absolute magnetization    =    14.28 Bohr mag/cell
[tb_dev] Currently allocated     4.44E+01 Mbytes, locked:    0 /  15
[tb_pin] Currently allocated     0.00E+00 Mbytes, locked:    0 /   0

     iteration # 30     ecut=    60.00 Ry     beta= 0.40
     Davidson diagonalization with overlap

---- Real-time Memory Report at c_bands before calling an iterative solver
          9318 MiB given to the printing process from OS
           206 MiB allocation reported by mallinfo(arena+hblkhd)
         50678 MiB available memory on the node where the printing process lives
     GPU memory used/free/total (MiB): 6654 / 9626 / 16280
------------------
     ethr =  6.53E-04,  avg # of iterations =  3.1

     negative rho (up, down):  4.034E+00 2.139E+00

     total cpu time spent up to now is     1291.3 secs

     total energy              =   -4446.71876355 Ry
     estimated scf accuracy    <       5.94234043 Ry

     total magnetization       =     0.59 Bohr mag/cell
     absolute magnetization    =     8.97 Bohr mag/cell
[tb_dev] Currently allocated     4.44E+01 Mbytes, locked:    0 /  15
[tb_pin] Currently allocated     0.00E+00 Mbytes, locked:    0 /   0

     iteration # 31     ecut=    60.00 Ry     beta= 0.40
     Davidson diagonalization with overlap

---- Real-time Memory Report at c_bands before calling an iterative solver
          9338 MiB given to the printing process from OS
           168 MiB allocation reported by mallinfo(arena+hblkhd)
         50667 MiB available memory on the node where the printing process lives
     GPU memory used/free/total (MiB): 6654 / 9626 / 16280
------------------
     ethr =  6.53E-04,  avg # of iterations =  1.8

     negative rho (up, down):  4.242E+00 2.312E+00

     total cpu time spent up to now is     1329.9 secs

     total energy              =   -4446.53218226 Ry
     estimated scf accuracy    <       6.32521913 Ry

     total magnetization       =     0.55 Bohr mag/cell
     absolute magnetization    =    11.08 Bohr mag/cell
[tb_dev] Currently allocated     4.44E+01 Mbytes, locked:    0 /  15
[tb_pin] Currently allocated     0.00E+00 Mbytes, locked:    0 /   0

     iteration # 32     ecut=    60.00 Ry     beta= 0.40
     Davidson diagonalization with overlap

---- Real-time Memory Report at c_bands before calling an iterative solver
          9357 MiB given to the printing process from OS
           244 MiB allocation reported by mallinfo(arena+hblkhd)
         50638 MiB available memory on the node where the printing process lives
     GPU memory used/free/total (MiB): 6654 / 9626 / 16280
------------------
     ethr =  6.53E-04,  avg # of iterations =  4.2

     negative rho (up, down):  4.117E+00 2.236E+00

     total cpu time spent up to now is     1379.1 secs

     total energy              =   -4446.54371200 Ry
     estimated scf accuracy    <      14.91273752 Ry

     total magnetization       =     0.70 Bohr mag/cell
     absolute magnetization    =     7.03 Bohr mag/cell
[tb_dev] Currently allocated     4.44E+01 Mbytes, locked:    0 /  15
[tb_pin] Currently allocated     0.00E+00 Mbytes, locked:    0 /   0

     iteration # 33     ecut=    60.00 Ry     beta= 0.40
     Davidson diagonalization with overlap

---- Real-time Memory Report at c_bands before calling an iterative solver
          9375 MiB given to the printing process from OS
           206 MiB allocation reported by mallinfo(arena+hblkhd)
         50626 MiB available memory on the node where the printing process lives
     GPU memory used/free/total (MiB): 6654 / 9626 / 16280
------------------
     ethr =  6.53E-04,  avg # of iterations =  2.7

     negative rho (up, down):  4.271E+00 2.162E+00

     total cpu time spent up to now is     1421.2 secs

     total energy              =   -4446.70514038 Ry
     estimated scf accuracy    <       7.22292244 Ry

     total magnetization       =     0.69 Bohr mag/cell
     absolute magnetization    =     7.27 Bohr mag/cell
[tb_dev] Currently allocated     4.44E+01 Mbytes, locked:    0 /  15
[tb_pin] Currently allocated     0.00E+00 Mbytes, locked:    0 /   0

     iteration # 34     ecut=    60.00 Ry     beta= 0.40
     Davidson diagonalization with overlap

---- Real-time Memory Report at c_bands before calling an iterative solver
          9394 MiB given to the printing process from OS
           282 MiB allocation reported by mallinfo(arena+hblkhd)
         50600 MiB available memory on the node where the printing process lives
     GPU memory used/free/total (MiB): 6654 / 9626 / 16280
------------------
     ethr =  6.53E-04,  avg # of iterations =  3.0

     negative rho (up, down):  3.646E+00 2.159E+00

     total cpu time spent up to now is     1462.9 secs

     total energy              =   -4446.58470742 Ry
     estimated scf accuracy    <       9.37126120 Ry

     total magnetization       =     0.77 Bohr mag/cell
     absolute magnetization    =     8.71 Bohr mag/cell
[tb_dev] Currently allocated     4.44E+01 Mbytes, locked:    0 /  15
[tb_pin] Currently allocated     0.00E+00 Mbytes, locked:    0 /   0

     iteration # 35     ecut=    60.00 Ry     beta= 0.40
     Davidson diagonalization with overlap

---- Real-time Memory Report at c_bands before calling an iterative solver
          9422 MiB given to the printing process from OS
           244 MiB allocation reported by mallinfo(arena+hblkhd)
         50589 MiB available memory on the node where the printing process lives
     GPU memory used/free/total (MiB): 6654 / 9626 / 16280
------------------
     ethr =  6.53E-04,  avg # of iterations =  4.0

     negative rho (up, down):  3.643E+00 2.515E+00

     total cpu time spent up to now is     1509.1 secs

     total energy              =   -4446.47881083 Ry
     estimated scf accuracy    <       5.12393764 Ry

     total magnetization       =     0.81 Bohr mag/cell
     absolute magnetization    =    11.74 Bohr mag/cell
[tb_dev] Currently allocated     4.44E+01 Mbytes, locked:    0 /  15
[tb_pin] Currently allocated     0.00E+00 Mbytes, locked:    0 /   0

     iteration # 36     ecut=    60.00 Ry     beta= 0.40
     Davidson diagonalization with overlap

---- Real-time Memory Report at c_bands before calling an iterative solver
          9440 MiB given to the printing process from OS
           320 MiB allocation reported by mallinfo(arena+hblkhd)
         50555 MiB available memory on the node where the printing process lives
     GPU memory used/free/total (MiB): 6654 / 9626 / 16280
------------------
     ethr =  6.53E-04,  avg # of iterations =  4.0

     negative rho (up, down):  3.614E+00 2.458E+00

     total cpu time spent up to now is     1554.6 secs

     total energy              =   -4446.62869267 Ry
     estimated scf accuracy    <       3.81277918 Ry

     total magnetization       =     0.39 Bohr mag/cell
     absolute magnetization    =    11.74 Bohr mag/cell
[tb_dev] Currently allocated     4.44E+01 Mbytes, locked:    0 /  15
[tb_pin] Currently allocated     0.00E+00 Mbytes, locked:    0 /   0

     iteration # 37     ecut=    60.00 Ry     beta= 0.40
     Davidson diagonalization with overlap

---- Real-time Memory Report at c_bands before calling an iterative solver
          9459 MiB given to the printing process from OS
           281 MiB allocation reported by mallinfo(arena+hblkhd)
         50544 MiB available memory on the node where the printing process lives
     GPU memory used/free/total (MiB): 6654 / 9626 / 16280
------------------
     ethr =  6.53E-04,  avg # of iterations =  1.6

     negative rho (up, down):  3.594E+00 2.495E+00

     total cpu time spent up to now is     1593.0 secs

     total energy              =   -4446.65377815 Ry
     estimated scf accuracy    <       2.09819440 Ry

     total magnetization       =     0.48 Bohr mag/cell
     absolute magnetization    =    11.42 Bohr mag/cell
[tb_dev] Currently allocated     4.44E+01 Mbytes, locked:    0 /  15
[tb_pin] Currently allocated     0.00E+00 Mbytes, locked:    0 /   0

     iteration # 38     ecut=    60.00 Ry     beta= 0.40
     Davidson diagonalization with overlap

---- Real-time Memory Report at c_bands before calling an iterative solver
          9478 MiB given to the printing process from OS
           357 MiB allocation reported by mallinfo(arena+hblkhd)
         50512 MiB available memory on the node where the printing process lives
     GPU memory used/free/total (MiB): 6654 / 9626 / 16280
------------------
     ethr =  6.53E-04,  avg # of iterations =  1.0

     negative rho (up, down):  3.433E+00 2.812E+00

     total cpu time spent up to now is     1629.7 secs

     total energy              =   -4446.60937422 Ry
     estimated scf accuracy    <       1.70320861 Ry

     total magnetization       =     0.47 Bohr mag/cell
     absolute magnetization    =    11.14 Bohr mag/cell
[tb_dev] Currently allocated     4.44E+01 Mbytes, locked:    0 /  15
[tb_pin] Currently allocated     0.00E+00 Mbytes, locked:    0 /   0

     iteration # 39     ecut=    60.00 Ry     beta= 0.40
     Davidson diagonalization with overlap

---- Real-time Memory Report at c_bands before calling an iterative solver
          9497 MiB given to the printing process from OS
           320 MiB allocation reported by mallinfo(arena+hblkhd)
         50512 MiB available memory on the node where the printing process lives
     GPU memory used/free/total (MiB): 6654 / 9626 / 16280
------------------
     ethr =  6.53E-04,  avg # of iterations =  3.3

     negative rho (up, down):  3.488E+00 2.499E+00

     total cpu time spent up to now is     1672.2 secs

     total energy              =   -4446.65119729 Ry
     estimated scf accuracy    <       3.58708453 Ry

     total magnetization       =     0.38 Bohr mag/cell
     absolute magnetization    =     6.63 Bohr mag/cell
[tb_dev] Currently allocated     4.44E+01 Mbytes, locked:    0 /  15
[tb_pin] Currently allocated     0.00E+00 Mbytes, locked:    0 /   0

     iteration # 40     ecut=    60.00 Ry     beta= 0.40
     Davidson diagonalization with overlap

---- Real-time Memory Report at c_bands before calling an iterative solver
          9523 MiB given to the printing process from OS
           395 MiB allocation reported by mallinfo(arena+hblkhd)
         50469 MiB available memory on the node where the printing process lives
     GPU memory used/free/total (MiB): 6654 / 9626 / 16280
------------------
     ethr =  6.53E-04,  avg # of iterations =  1.6

     negative rho (up, down):  3.510E+00 2.333E+00

     total cpu time spent up to now is     1710.2 secs

     total energy              =   -4446.57844774 Ry
     estimated scf accuracy    <       2.83141791 Ry

     total magnetization       =     0.42 Bohr mag/cell
     absolute magnetization    =     6.91 Bohr mag/cell
[tb_dev] Currently allocated     4.44E+01 Mbytes, locked:    0 /  15
[tb_pin] Currently allocated     0.00E+00 Mbytes, locked:    0 /   0

     iteration # 41     ecut=    60.00 Ry     beta= 0.40
     Davidson diagonalization with overlap

---- Real-time Memory Report at c_bands before calling an iterative solver
          9543 MiB given to the printing process from OS
           358 MiB allocation reported by mallinfo(arena+hblkhd)
         50472 MiB available memory on the node where the printing process lives
     GPU memory used/free/total (MiB): 6654 / 9626 / 16280
------------------
     ethr =  6.53E-04,  avg # of iterations =  2.3

     negative rho (up, down):  3.622E+00 2.160E+00

     total cpu time spent up to now is     1750.6 secs

     total energy              =   -4446.63866887 Ry
     estimated scf accuracy    <       0.59617788 Ry

     total magnetization       =     0.50 Bohr mag/cell
     absolute magnetization    =     7.41 Bohr mag/cell
[tb_dev] Currently allocated     4.44E+01 Mbytes, locked:    0 /  15
[tb_pin] Currently allocated     0.00E+00 Mbytes, locked:    0 /   0

     iteration # 42     ecut=    60.00 Ry     beta= 0.40
     Davidson diagonalization with overlap

---- Real-time Memory Report at c_bands before calling an iterative solver
          9562 MiB given to the printing process from OS
           433 MiB allocation reported by mallinfo(arena+hblkhd)
         50433 MiB available memory on the node where the printing process lives
     GPU memory used/free/total (MiB): 6654 / 9626 / 16280
------------------
     ethr =  4.17E-04,  avg # of iterations =  2.2

     negative rho (up, down):  3.649E+00 2.217E+00

     total cpu time spent up to now is     1790.2 secs

     total energy              =   -4446.58438459 Ry
     estimated scf accuracy    <       0.82040418 Ry

     total magnetization       =     0.44 Bohr mag/cell
     absolute magnetization    =    10.17 Bohr mag/cell
[tb_dev] Currently allocated     4.44E+01 Mbytes, locked:    0 /  15
[tb_pin] Currently allocated     0.00E+00 Mbytes, locked:    0 /   0

     iteration # 43     ecut=    60.00 Ry     beta= 0.40
     Davidson diagonalization with overlap

---- Real-time Memory Report at c_bands before calling an iterative solver
          9580 MiB given to the printing process from OS
           396 MiB allocation reported by mallinfo(arena+hblkhd)
         50431 MiB available memory on the node where the printing process lives
     GPU memory used/free/total (MiB): 6654 / 9626 / 16280
------------------
     ethr =  4.17E-04,  avg # of iterations =  4.0

     negative rho (up, down):  3.553E+00 2.179E+00

     total cpu time spent up to now is     1836.6 secs

     total energy              =   -4446.54717022 Ry
     estimated scf accuracy    <       5.89361649 Ry

     total magnetization       =     0.47 Bohr mag/cell
     absolute magnetization    =     9.94 Bohr mag/cell
[tb_dev] Currently allocated     4.44E+01 Mbytes, locked:    0 /  15
[tb_pin] Currently allocated     0.00E+00 Mbytes, locked:    0 /   0

     iteration # 44     ecut=    60.00 Ry     beta= 0.40
     Davidson diagonalization with overlap

---- Real-time Memory Report at c_bands before calling an iterative solver
          9599 MiB given to the printing process from OS
           471 MiB allocation reported by mallinfo(arena+hblkhd)
         50393 MiB available memory on the node where the printing process lives
     GPU memory used/free/total (MiB): 6654 / 9626 / 16280
------------------
     ethr =  4.17E-04,  avg # of iterations =  3.0

     negative rho (up, down):  3.524E+00 2.252E+00

     total cpu time spent up to now is     1880.6 secs

     total energy              =   -4446.63291571 Ry
     estimated scf accuracy    <       0.56351794 Ry

     total magnetization       =     0.42 Bohr mag/cell
     absolute magnetization    =     9.57 Bohr mag/cell
[tb_dev] Currently allocated     4.44E+01 Mbytes, locked:    0 /  15
[tb_pin] Currently allocated     0.00E+00 Mbytes, locked:    0 /   0

     iteration # 45     ecut=    60.00 Ry     beta= 0.40
     Davidson diagonalization with overlap

---- Real-time Memory Report at c_bands before calling an iterative solver
          9626 MiB given to the printing process from OS
           434 MiB allocation reported by mallinfo(arena+hblkhd)
         50401 MiB available memory on the node where the printing process lives
     GPU memory used/free/total (MiB): 6654 / 9626 / 16280
------------------
     ethr =  3.94E-04,  avg # of iterations =  1.6

     negative rho (up, down):  3.548E+00 2.256E+00

     total cpu time spent up to now is     1918.6 secs

     total energy              =   -4446.63848447 Ry
     estimated scf accuracy    <       0.44175812 Ry

     total magnetization       =     0.42 Bohr mag/cell
     absolute magnetization    =     9.52 Bohr mag/cell
[tb_dev] Currently allocated     4.44E+01 Mbytes, locked:    0 /  15
[tb_pin] Currently allocated     0.00E+00 Mbytes, locked:    0 /   0

     iteration # 46     ecut=    60.00 Ry     beta= 0.40
     Davidson diagonalization with overlap

---- Real-time Memory Report at c_bands before calling an iterative solver
          9644 MiB given to the printing process from OS
           490 MiB allocation reported by mallinfo(arena+hblkhd)
         50350 MiB available memory on the node where the printing process lives
     GPU memory used/free/total (MiB): 6654 / 9626 / 16280
------------------
     ethr =  3.09E-04,  avg # of iterations =  1.2

     negative rho (up, down):  3.570E+00 2.213E+00

     total cpu time spent up to now is     1955.8 secs

     total energy              =   -4446.64133819 Ry
     estimated scf accuracy    <       0.25526127 Ry

     total magnetization       =     0.39 Bohr mag/cell
     absolute magnetization    =     8.66 Bohr mag/cell
[tb_dev] Currently allocated     4.44E+01 Mbytes, locked:    0 /  15
[tb_pin] Currently allocated     0.00E+00 Mbytes, locked:    0 /   0

     iteration # 47     ecut=    60.00 Ry     beta= 0.40
     Davidson diagonalization with overlap

---- Real-time Memory Report at c_bands before calling an iterative solver
          9664 MiB given to the printing process from OS
           472 MiB allocation reported by mallinfo(arena+hblkhd)
         50344 MiB available memory on the node where the printing process lives
     GPU memory used/free/total (MiB): 6654 / 9626 / 16280
------------------
     ethr =  1.79E-04,  avg # of iterations =  1.5

     negative rho (up, down):  3.564E+00 2.246E+00

     total cpu time spent up to now is     1993.8 secs

     total energy              =   -4446.64091368 Ry
     estimated scf accuracy    <       0.23968226 Ry

     total magnetization       =     0.38 Bohr mag/cell
     absolute magnetization    =     9.24 Bohr mag/cell
[tb_dev] Currently allocated     4.44E+01 Mbytes, locked:    0 /  15
[tb_pin] Currently allocated     0.00E+00 Mbytes, locked:    0 /   0

     iteration # 48     ecut=    60.00 Ry     beta= 0.40
     Davidson diagonalization with overlap

---- Real-time Memory Report at c_bands before calling an iterative solver
          9683 MiB given to the printing process from OS
           528 MiB allocation reported by mallinfo(arena+hblkhd)
         50303 MiB available memory on the node where the printing process lives
     GPU memory used/free/total (MiB): 6654 / 9626 / 16280
------------------
     ethr =  1.68E-04,  avg # of iterations =  1.0

     negative rho (up, down):  3.587E+00 2.265E+00

     total cpu time spent up to now is     2030.7 secs

     total energy              =   -4446.64001117 Ry
     estimated scf accuracy    <       0.11579013 Ry

     total magnetization       =     0.37 Bohr mag/cell
     absolute magnetization    =     9.02 Bohr mag/cell
[tb_dev] Currently allocated     4.44E+01 Mbytes, locked:    0 /  15
[tb_pin] Currently allocated     0.00E+00 Mbytes, locked:    0 /   0

     iteration # 49     ecut=    60.00 Ry     beta= 0.40
     Davidson diagonalization with overlap

---- Real-time Memory Report at c_bands before calling an iterative solver
          9708 MiB given to the printing process from OS
           510 MiB allocation reported by mallinfo(arena+hblkhd)
         50319 MiB available memory on the node where the printing process lives
     GPU memory used/free/total (MiB): 6654 / 9626 / 16280
------------------
     ethr =  8.10E-05,  avg # of iterations =  2.6

     negative rho (up, down):  3.574E+00 2.244E+00

     total cpu time spent up to now is     2071.8 secs

     total energy              =   -4446.64051424 Ry
     estimated scf accuracy    <       0.28368150 Ry

     total magnetization       =     0.33 Bohr mag/cell
     absolute magnetization    =     7.85 Bohr mag/cell
[tb_dev] Currently allocated     4.44E+01 Mbytes, locked:    0 /  15
[tb_pin] Currently allocated     0.00E+00 Mbytes, locked:    0 /   0

     iteration # 50     ecut=    60.00 Ry     beta= 0.40
     Davidson diagonalization with overlap

---- Real-time Memory Report at c_bands before calling an iterative solver
          9728 MiB given to the printing process from OS
           566 MiB allocation reported by mallinfo(arena+hblkhd)
         50262 MiB available memory on the node where the printing process lives
     GPU memory used/free/total (MiB): 6654 / 9626 / 16280
------------------
     ethr =  8.10E-05,  avg # of iterations =  2.3

     negative rho (up, down):  3.594E+00 2.177E+00

     total cpu time spent up to now is     2111.7 secs

     total energy              =   -4446.63481765 Ry
     estimated scf accuracy    <       0.21191417 Ry

     total magnetization       =     0.39 Bohr mag/cell
     absolute magnetization    =     7.84 Bohr mag/cell
[tb_dev] Currently allocated     4.44E+01 Mbytes, locked:    0 /  15
[tb_pin] Currently allocated     0.00E+00 Mbytes, locked:    0 /   0

     iteration # 51     ecut=    60.00 Ry     beta= 0.40
     Davidson diagonalization with overlap

---- Real-time Memory Report at c_bands before calling an iterative solver
          9747 MiB given to the printing process from OS
           547 MiB allocation reported by mallinfo(arena+hblkhd)
         50280 MiB available memory on the node where the printing process lives
     GPU memory used/free/total (MiB): 6654 / 9626 / 16280
------------------
     ethr =  8.10E-05,  avg # of iterations =  4.0

     negative rho (up, down):  3.613E+00 2.217E+00

     total cpu time spent up to now is     2160.5 secs

     total energy              =   -4446.61515660 Ry
     estimated scf accuracy    <       1.74367865 Ry

     total magnetization       =     0.28 Bohr mag/cell
     absolute magnetization    =     4.89 Bohr mag/cell
[tb_dev] Currently allocated     4.44E+01 Mbytes, locked:    0 /  15
[tb_pin] Currently allocated     0.00E+00 Mbytes, locked:    0 /   0

     iteration # 52     ecut=    60.00 Ry     beta= 0.40
     Davidson diagonalization with overlap

---- Real-time Memory Report at c_bands before calling an iterative solver
          9765 MiB given to the printing process from OS
           566 MiB allocation reported by mallinfo(arena+hblkhd)
         50264 MiB available memory on the node where the printing process lives
     GPU memory used/free/total (MiB): 6654 / 9626 / 16280
------------------
     ethr =  8.10E-05,  avg # of iterations =  3.7

     negative rho (up, down):  3.590E+00 2.219E+00

     total cpu time spent up to now is     2207.6 secs

     total energy              =   -4446.63877066 Ry
     estimated scf accuracy    <       0.20341858 Ry

     total magnetization       =     0.30 Bohr mag/cell
     absolute magnetization    =     7.48 Bohr mag/cell
[tb_dev] Currently allocated     4.44E+01 Mbytes, locked:    0 /  15
[tb_pin] Currently allocated     0.00E+00 Mbytes, locked:    0 /   0

     iteration # 53     ecut=    60.00 Ry     beta= 0.40
     Davidson diagonalization with overlap

---- Real-time Memory Report at c_bands before calling an iterative solver
          9784 MiB given to the printing process from OS
           623 MiB allocation reported by mallinfo(arena+hblkhd)
         50198 MiB available memory on the node where the printing process lives
     GPU memory used/free/total (MiB): 6654 / 9626 / 16280
------------------
     ethr =  8.10E-05,  avg # of iterations =  1.7

     negative rho (up, down):  3.593E+00 2.215E+00

     total cpu time spent up to now is     2246.3 secs

     total energy              =   -4446.64296869 Ry
     estimated scf accuracy    <       0.03084213 Ry

     total magnetization       =     0.31 Bohr mag/cell
     absolute magnetization    =     7.95 Bohr mag/cell
[tb_dev] Currently allocated     4.44E+01 Mbytes, locked:    0 /  15
[tb_pin] Currently allocated     0.00E+00 Mbytes, locked:    0 /   0

     iteration # 54     ecut=    60.00 Ry     beta= 0.40
     Davidson diagonalization with overlap

---- Real-time Memory Report at c_bands before calling an iterative solver
          9811 MiB given to the printing process from OS
           604 MiB allocation reported by mallinfo(arena+hblkhd)
         50220 MiB available memory on the node where the printing process lives
     GPU memory used/free/total (MiB): 6654 / 9626 / 16280
------------------
     c_bands:  1 eigenvalues not converged
     ethr =  2.16E-05,  avg # of iterations =  3.6

     negative rho (up, down):  3.601E+00 2.223E+00

     total cpu time spent up to now is     2287.4 secs

     total energy              =   -4446.64302584 Ry
     estimated scf accuracy    <       0.02048809 Ry

     total magnetization       =     0.29 Bohr mag/cell
     absolute magnetization    =     8.16 Bohr mag/cell
[tb_dev] Currently allocated     4.44E+01 Mbytes, locked:    0 /  15
[tb_pin] Currently allocated     0.00E+00 Mbytes, locked:    0 /   0

     iteration # 55     ecut=    60.00 Ry     beta= 0.40
     Davidson diagonalization with overlap

---- Real-time Memory Report at c_bands before calling an iterative solver
          9829 MiB given to the printing process from OS
           623 MiB allocation reported by mallinfo(arena+hblkhd)
         50203 MiB available memory on the node where the printing process lives
     GPU memory used/free/total (MiB): 6654 / 9626 / 16280
------------------
     c_bands:  1 eigenvalues not converged
     ethr =  1.43E-05,  avg # of iterations =  3.6

     negative rho (up, down):  3.607E+00 2.213E+00

     total cpu time spent up to now is     2328.8 secs

     total energy              =   -4446.64131974 Ry
     estimated scf accuracy    <       0.03589689 Ry

     total magnetization       =     0.28 Bohr mag/cell
     absolute magnetization    =     7.83 Bohr mag/cell
[tb_dev] Currently allocated     4.44E+01 Mbytes, locked:    0 /  15
[tb_pin] Currently allocated     0.00E+00 Mbytes, locked:    0 /   0

     iteration # 56     ecut=    60.00 Ry     beta= 0.40
     Davidson diagonalization with overlap

---- Real-time Memory Report at c_bands before calling an iterative solver
          9849 MiB given to the printing process from OS
           642 MiB allocation reported by mallinfo(arena+hblkhd)
         50187 MiB available memory on the node where the printing process lives
     GPU memory used/free/total (MiB): 6654 / 9626 / 16280
------------------
     ethr =  1.43E-05,  avg # of iterations =  3.4

     negative rho (up, down):  3.603E+00 2.216E+00

     total cpu time spent up to now is     2372.1 secs

     total energy              =   -4446.64256804 Ry
     estimated scf accuracy    <       0.03796767 Ry

     total magnetization       =     0.28 Bohr mag/cell
     absolute magnetization    =     8.26 Bohr mag/cell
[tb_dev] Currently allocated     4.44E+01 Mbytes, locked:    0 /  15
[tb_pin] Currently allocated     0.00E+00 Mbytes, locked:    0 /   0

     iteration # 57     ecut=    60.00 Ry     beta= 0.40
     Davidson diagonalization with overlap

---- Real-time Memory Report at c_bands before calling an iterative solver
[...]
     estimated scf accuracy    <       0.03044192 Ry

     total magnetization       =     0.18 Bohr mag/cell
     absolute magnetization    =     7.43 Bohr mag/cell
[tb_dev] Currently allocated     4.44E+01 Mbytes, locked:    0 /  15
[tb_pin] Currently allocated     0.00E+00 Mbytes, locked:    0 /   0

     iteration # 66     ecut=    60.00 Ry     beta= 0.40
     Davidson diagonalization with overlap

---- Real-time Memory Report at c_bands before calling an iterative solver
          9994 MiB given to the printing process from OS
           869 MiB allocation reported by mallinfo(arena+hblkhd)
         49990 MiB available memory on the node where the printing process lives
     GPU memory used/free/total (MiB): 6654 / 9626 / 16280
------------------
     ethr =  1.88E-06,  avg # of iterations =  4.0

     negative rho (up, down):  3.602E+00 2.204E+00

     total cpu time spent up to now is     2800.6 secs

     total energy              =   -4446.64346515 Ry
     estimated scf accuracy    <       0.00171103 Ry

     total magnetization       =     0.17 Bohr mag/cell
     absolute magnetization    =     7.72 Bohr mag/cell
[tb_dev] Currently allocated     4.44E+01 Mbytes, locked:    0 /  15
[tb_pin] Currently allocated     0.00E+00 Mbytes, locked:    0 /   0

     iteration # 67     ecut=    60.00 Ry     beta= 0.40
     Davidson diagonalization with overlap

---- Real-time Memory Report at c_bands before calling an iterative solver
         10013 MiB given to the printing process from OS
           861 MiB allocation reported by mallinfo(arena+hblkhd)
         49974 MiB available memory on the node where the printing process lives
     GPU memory used/free/total (MiB): 6654 / 9626 / 16280
------------------
     ethr =  1.20E-06,  avg # of iterations =  2.9

     negative rho (up, down):  3.602E+00 2.207E+00

     total cpu time spent up to now is     2842.2 secs

     total energy              =   -4446.64353881 Ry
     estimated scf accuracy    <       0.00198206 Ry

     total magnetization       =     0.17 Bohr mag/cell
     absolute magnetization    =     7.58 Bohr mag/cell
[tb_dev] Currently allocated     4.44E+01 Mbytes, locked:    0 /  15
[tb_pin] Currently allocated     0.00E+00 Mbytes, locked:    0 /   0

     iteration # 68     ecut=    60.00 Ry     beta= 0.40
     Davidson diagonalization with overlap

---- Real-time Memory Report at c_bands before calling an iterative solver
         10031 MiB given to the printing process from OS
           880 MiB allocation reported by mallinfo(arena+hblkhd)
         49950 MiB available memory on the node where the printing process lives
     GPU memory used/free/total (MiB): 6654 / 9626 / 16280
------------------
     ethr =  1.20E-06,  avg # of iterations =  1.4

     negative rho (up, down):  3.602E+00 2.208E+00

     total cpu time spent up to now is     2879.7 secs

     total energy              =   -4446.64372539 Ry
     estimated scf accuracy    <       0.00066454 Ry

     total magnetization       =     0.17 Bohr mag/cell
     absolute magnetization    =     7.62 Bohr mag/cell
[tb_dev] Currently allocated     4.44E+01 Mbytes, locked:    0 /  15
[tb_pin] Currently allocated     0.00E+00 Mbytes, locked:    0 /   0

     iteration # 69     ecut=    60.00 Ry     beta= 0.40
     Davidson diagonalization with overlap

---- Real-time Memory Report at c_bands before calling an iterative solver
         10051 MiB given to the printing process from OS
           899 MiB allocation reported by mallinfo(arena+hblkhd)
         49933 MiB available memory on the node where the printing process lives
     GPU memory used/free/total (MiB): 6654 / 9626 / 16280
------------------
     ethr =  4.65E-07,  avg # of iterations =  1.9

     negative rho (up, down):  3.602E+00 2.208E+00

     total cpu time spent up to now is     2918.9 secs

     total energy              =   -4446.64358407 Ry
     estimated scf accuracy    <       0.00046290 Ry

     total magnetization       =     0.16 Bohr mag/cell
     absolute magnetization    =     7.73 Bohr mag/cell
[tb_dev] Currently allocated     4.44E+01 Mbytes, locked:    0 /  15
[tb_pin] Currently allocated     0.00E+00 Mbytes, locked:    0 /   0

     iteration # 70     ecut=    60.00 Ry     beta= 0.40
     Davidson diagonalization with overlap

---- Real-time Memory Report at c_bands before calling an iterative solver
         10070 MiB given to the printing process from OS
           918 MiB allocation reported by mallinfo(arena+hblkhd)
         49912 MiB available memory on the node where the printing process lives
     GPU memory used/free/total (MiB): 6654 / 9626 / 16280
------------------
     ethr =  3.24E-07,  avg # of iterations =  1.4

     negative rho (up, down):  3.602E+00 2.207E+00

     total cpu time spent up to now is     2956.6 secs

     total energy              =   -4446.64358990 Ry
     estimated scf accuracy    <       0.00028299 Ry

     total magnetization       =     0.16 Bohr mag/cell
     absolute magnetization    =     7.69 Bohr mag/cell
[tb_dev] Currently allocated     4.44E+01 Mbytes, locked:    0 /  15
[tb_pin] Currently allocated     0.00E+00 Mbytes, locked:    0 /   0

     iteration # 71     ecut=    60.00 Ry     beta= 0.40
     Davidson diagonalization with overlap

---- Real-time Memory Report at c_bands before calling an iterative solver
         10087 MiB given to the printing process from OS
           937 MiB allocation reported by mallinfo(arena+hblkhd)
         49895 MiB available memory on the node where the printing process lives
     GPU memory used/free/total (MiB): 6654 / 9626 / 16280
------------------
     ethr =  1.98E-07,  avg # of iterations =  1.0

     negative rho (up, down):  3.602E+00 2.207E+00

     total cpu time spent up to now is     2993.4 secs

     total energy              =   -4446.64363373 Ry
     estimated scf accuracy    <       0.00016596 Ry

     total magnetization       =     0.15 Bohr mag/cell
     absolute magnetization    =     7.67 Bohr mag/cell
[tb_dev] Currently allocated     4.44E+01 Mbytes, locked:    0 /  15
[tb_pin] Currently allocated     0.00E+00 Mbytes, locked:    0 /   0

     iteration # 72     ecut=    60.00 Ry     beta= 0.40
     Davidson diagonalization with overlap

---- Real-time Memory Report at c_bands before calling an iterative solver
         10107 MiB given to the printing process from OS
           956 MiB allocation reported by mallinfo(arena+hblkhd)
         49873 MiB available memory on the node where the printing process lives
     GPU memory used/free/total (MiB): 6654 / 9626 / 16280
------------------
     ethr =  1.16E-07,  avg # of iterations =  1.0

     negative rho (up, down):  3.602E+00 2.207E+00

     total cpu time spent up to now is     3030.2 secs

     total energy              =   -4446.64363721 Ry
     estimated scf accuracy    <       0.00013723 Ry

     total magnetization       =     0.13 Bohr mag/cell
     absolute magnetization    =     7.65 Bohr mag/cell
[tb_dev] Currently allocated     4.44E+01 Mbytes, locked:    0 /  15
[tb_pin] Currently allocated     0.00E+00 Mbytes, locked:    0 /   0

     iteration # 73     ecut=    60.00 Ry     beta= 0.40
     Davidson diagonalization with overlap

---- Real-time Memory Report at c_bands before calling an iterative solver
         10127 MiB given to the printing process from OS
          1021 MiB allocation reported by mallinfo(arena+hblkhd)
         49845 MiB available memory on the node where the printing process lives
     GPU memory used/free/total (MiB): 6654 / 9626 / 16280
------------------
     ethr =  9.60E-08,  avg # of iterations =  1.0

     negative rho (up, down):  3.601E+00 2.207E+00

     total cpu time spent up to now is     3067.0 secs

     total energy              =   -4446.64363236 Ry
     estimated scf accuracy    <       0.00010882 Ry

     total magnetization       =     0.12 Bohr mag/cell
     absolute magnetization    =     7.65 Bohr mag/cell
[tb_dev] Currently allocated     4.44E+01 Mbytes, locked:    0 /  15
[tb_pin] Currently allocated     0.00E+00 Mbytes, locked:    0 /   0

     iteration # 74     ecut=    60.00 Ry     beta= 0.40
     Davidson diagonalization with overlap

---- Real-time Memory Report at c_bands before calling an iterative solver
         10145 MiB given to the printing process from OS
          1040 MiB allocation reported by mallinfo(arena+hblkhd)
         49830 MiB available memory on the node where the printing process lives
     GPU memory used/free/total (MiB): 6654 / 9626 / 16280
------------------
     ethr =  7.61E-08,  avg # of iterations =  1.1

     negative rho (up, down):  3.601E+00 2.205E+00

     total cpu time spent up to now is     3104.0 secs

     total energy              =   -4446.64365117 Ry
     estimated scf accuracy    <       0.00008866 Ry

     total magnetization       =     0.12 Bohr mag/cell
     absolute magnetization    =     7.67 Bohr mag/cell
[tb_dev] Currently allocated     4.44E+01 Mbytes, locked:    0 /  15
[tb_pin] Currently allocated     0.00E+00 Mbytes, locked:    0 /   0

     iteration # 75     ecut=    60.00 Ry     beta= 0.40
     Davidson diagonalization with overlap

---- Real-time Memory Report at c_bands before calling an iterative solver
         10164 MiB given to the printing process from OS
          1059 MiB allocation reported by mallinfo(arena+hblkhd)
         49808 MiB available memory on the node where the printing process lives
     GPU memory used/free/total (MiB): 6654 / 9626 / 16280
------------------
     ethr =  6.20E-08,  avg # of iterations =  3.0

     negative rho (up, down):  3.601E+00 2.207E+00

     total cpu time spent up to now is     3146.4 secs

     total energy              =   -4446.64361695 Ry
     estimated scf accuracy    <       0.00014300 Ry

     total magnetization       =     0.08 Bohr mag/cell
     absolute magnetization    =     7.66 Bohr mag/cell
[tb_dev] Currently allocated     4.44E+01 Mbytes, locked:    0 /  15
[tb_pin] Currently allocated     0.00E+00 Mbytes, locked:    0 /   0

     iteration # 76     ecut=    60.00 Ry     beta= 0.40
     Davidson diagonalization with overlap

---- Real-time Memory Report at c_bands before calling an iterative solver
         10182 MiB given to the printing process from OS
          1078 MiB allocation reported by mallinfo(arena+hblkhd)
         49780 MiB available memory on the node where the printing process lives
     GPU memory used/free/total (MiB): 6654 / 9626 / 16280
------------------
     ethr =  6.20E-08,  avg # of iterations =  2.6

     negative rho (up, down):  3.601E+00 2.206E+00

     total cpu time spent up to now is     3189.4 secs

     total energy              =   -4446.64365239 Ry
     estimated scf accuracy    <       0.00043540 Ry

     total magnetization       =     0.10 Bohr mag/cell
     absolute magnetization    =     7.62 Bohr mag/cell
[tb_dev] Currently allocated     4.44E+01 Mbytes, locked:    0 /  15
[tb_pin] Currently allocated     0.00E+00 Mbytes, locked:    0 /   0

     iteration # 77     ecut=    60.00 Ry     beta= 0.40
     Davidson diagonalization with overlap

---- Real-time Memory Report at c_bands before calling an iterative solver
         10202 MiB given to the printing process from OS
          1097 MiB allocation reported by mallinfo(arena+hblkhd)
         49761 MiB available memory on the node where the printing process lives
     GPU memory used/free/total (MiB): 6654 / 9626 / 16280
------------------
     ethr =  6.20E-08,  avg # of iterations =  2.9

     negative rho (up, down):  3.602E+00 2.206E+00

     total cpu time spent up to now is     3231.0 secs

     total energy              =   -4446.64364668 Ry
     estimated scf accuracy    <       0.00000886 Ry

     total magnetization       =     0.09 Bohr mag/cell
     absolute magnetization    =     7.65 Bohr mag/cell
[tb_dev] Currently allocated     4.44E+01 Mbytes, locked:    0 /  15
[tb_pin] Currently allocated     0.00E+00 Mbytes, locked:    0 /   0

     iteration # 78     ecut=    60.00 Ry     beta= 0.40
     Davidson diagonalization with overlap

---- Real-time Memory Report at c_bands before calling an iterative solver
         10221 MiB given to the printing process from OS
          1115 MiB allocation reported by mallinfo(arena+hblkhd)
         49743 MiB available memory on the node where the printing process lives
     GPU memory used/free/total (MiB): 6654 / 9626 / 16280
------------------
     ethr =  6.20E-09,  avg # of iterations =  4.0

     negative rho (up, down):  3.601E+00 2.206E+00

     total cpu time spent up to now is     3280.7 secs

     total energy              =   -4446.64361428 Ry
     estimated scf accuracy    <       0.00015524 Ry

     total magnetization       =     0.09 Bohr mag/cell
     absolute magnetization    =     7.63 Bohr mag/cell
[tb_dev] Currently allocated     4.44E+01 Mbytes, locked:    0 /  15
[tb_pin] Currently allocated     0.00E+00 Mbytes, locked:    0 /   0

     iteration # 79     ecut=    60.00 Ry     beta= 0.40
     Davidson diagonalization with overlap

---- Real-time Memory Report at c_bands before calling an iterative solver
         10241 MiB given to the printing process from OS
          1134 MiB allocation reported by mallinfo(arena+hblkhd)
         49725 MiB available memory on the node where the printing process lives
     GPU memory used/free/total (MiB): 6654 / 9626 / 16280
------------------
     ethr =  6.20E-09,  avg # of iterations =  3.8

     negative rho (up, down):  3.602E+00 2.206E+00

     total cpu time spent up to now is     3329.0 secs

     total energy              =   -4446.64360179 Ry
     estimated scf accuracy    <       0.00006687 Ry

     total magnetization       =     0.09 Bohr mag/cell
     absolute magnetization    =     7.66 Bohr mag/cell
[tb_dev] Currently allocated     4.44E+01 Mbytes, locked:    0 /  15
[tb_pin] Currently allocated     0.00E+00 Mbytes, locked:    0 /   0

     iteration # 80     ecut=    60.00 Ry     beta= 0.40
     Davidson diagonalization with overlap

---- Real-time Memory Report at c_bands before calling an iterative solver
         10258 MiB given to the printing process from OS
          1153 MiB allocation reported by mallinfo(arena+hblkhd)
         49705 MiB available memory on the node where the printing process lives
     GPU memory used/free/total (MiB): 6654 / 9626 / 16280
------------------
     ethr =  6.20E-09,  avg # of iterations =  2.5

     negative rho (up, down):  3.602E+00 2.206E+00

     total cpu time spent up to now is     3370.8 secs

     total energy              =   -4446.64360834 Ry
     estimated scf accuracy    <       0.00002198 Ry

     total magnetization       =     0.09 Bohr mag/cell
     absolute magnetization    =     7.63 Bohr mag/cell

     End of self-consistent calculation

     convergence NOT achieved after  80 iterations: stopping

     Writing config to output data dir ./out/aiida.save/
 
     init_run     :     73.73s CPU     25.12s WALL (       1 calls)
     electrons    :   6207.96s CPU   3344.86s WALL (       1 calls)

     Called by init_run:
     wfcinit      :     13.88s CPU     16.98s WALL (       1 calls)
                                       16.98s GPU  (       1 calls)
     wfcinit:atom :      0.09s CPU      0.29s WALL (     156 calls)
                                        0.29s GPU  (     156 calls)
     wfcinit:wfcr :     11.19s CPU     12.03s WALL (     156 calls)
                                       12.02s GPU  (     156 calls)
     potinit      :     44.02s CPU      4.06s WALL (       1 calls)
     hinit0       :      8.55s CPU      2.52s WALL (       1 calls)

     Called by electrons:
     c_bands      :   2394.97s CPU   2471.41s WALL (      80 calls)
     sum_band     :    553.14s CPU    566.86s WALL (      80 calls)
     v_of_rho     :     84.16s CPU     13.41s WALL (      81 calls)
     v_h          :     20.41s CPU      1.89s WALL (      81 calls)
     v_xc         :     63.75s CPU     11.52s WALL (      81 calls)
     newd         :    173.54s CPU     18.31s WALL (      81 calls)
                                       18.31s GPU  (      81 calls)
     PAW_pot      :   2849.49s CPU    257.73s WALL (      81 calls)
     mix_rho      :    138.85s CPU     14.04s WALL (      80 calls)

     Called by c_bands:
     init_us_2    :     52.44s CPU     72.46s WALL (   25116 calls)
     init_us_2:gp :     51.94s CPU     71.95s WALL (   25116 calls)
     cegterg      :   1993.47s CPU   2045.80s WALL (   12480 calls)

     Called by sum_band:
     sum_band:wei :      1.15s CPU      1.16s WALL (      80 calls)
                                        1.15s GPU  (      80 calls)
     sum_band:loo :    528.83s CPU    542.35s WALL (      80 calls)
                                      542.36s GPU  (      80 calls)
     sum_band:buf :    162.24s CPU    163.63s WALL (   12480 calls)
                                      163.54s GPU  (   12480 calls)
     sum_band:ini :     25.46s CPU     31.99s WALL (   12480 calls)
                                       31.91s GPU  (   12480 calls)
     sum_band:cal :      0.54s CPU     22.60s WALL (   12480 calls)
                                       18.33s GPU  (   12480 calls)
     sum_band:bec :      5.47s CPU      5.75s WALL (   12480 calls)
                                        5.67s GPU  (   12480 calls)
     addusdens    :     15.82s CPU     16.01s WALL (      80 calls)
                                       16.01s GPU  (      80 calls)
     addusd:skk   :      0.09s CPU      0.09s WALL (     240 calls)
                                        0.09s GPU  (     240 calls)

     Called by *egterg:
     cdiaghg      :    272.46s CPU    309.91s WALL (   45657 calls)
                                      309.59s GPU  (   45657 calls)
     cegterg:over :     41.13s CPU     41.88s WALL (   33177 calls)
     cegterg:upda :     40.56s CPU     42.01s WALL (   33177 calls)
     cegterg:last :     41.03s CPU     41.41s WALL (   21557 calls)
     h_psi        :   1503.03s CPU   1514.94s WALL (   45813 calls)
                                     1512.64s GPU  (   45813 calls)
     s_psi        :     13.81s CPU     63.16s WALL (   45813 calls)
                                       58.11s GPU  (   45813 calls)
     g_psi        :      0.25s CPU      4.80s WALL (   33177 calls)
                                        4.59s GPU  (   33177 calls)

     Called by h_psi:
     h_psi:calbec :      1.69s CPU     49.86s WALL (   45813 calls)
                                       49.56s GPU  (   45813 calls)
     vloc_psi     :   1383.22s CPU   1393.36s WALL (   45813 calls)
                                     1393.08s GPU  (   45813 calls)
     add_vuspsi   :     15.55s CPU     61.92s WALL (   45813 calls)
                                       61.61s GPU  (   45813 calls)

     General routines
     calbec       :      1.68s CPU      1.72s WALL (   58293 calls)
     fft          :      8.09s CPU      1.88s WALL (    2023 calls)
                                        1.33s GPU  (    1861 calls)
     ffts         :      0.90s CPU      0.21s WALL (     322 calls)
                                        0.04s GPU  (     160 calls)
     fftw         :      8.12s CPU   1236.97s WALL (  433424 calls)
                                     1231.68s GPU  (  433424 calls)
     interpolate  :     28.11s CPU      2.46s WALL (     162 calls)
     davcio       :      0.11s CPU      4.50s WALL (     174 calls)
 
     Parallel routines

     PAW routines
     PAW_pot      :   2849.49s CPU    257.73s WALL (      81 calls)
     PAW_symme    :      1.17s CPU      0.19s WALL (     161 calls)
 
     PWSCF        :      1h44m CPU  56m16.76s WALL

 
   This run was terminated on:   1: 6:30  23Oct2023            

=------------------------------------------------------------------------------=
   JOB DONE.
=------------------------------------------------------------------------------=
