
     Program PWSCF v.7.2 starts on 23Oct2023 at 17:43:25 

     This program is part of the open-source Quantum ESPRESSO suite
     for quantum simulation of materials; please cite
         "P. Giannozzi et al., J. Phys.:Condens. Matter 21 395502 (2009);
         "P. Giannozzi et al., J. Phys.:Condens. Matter 29 465901 (2017);
         "P. Giannozzi et al., J. Chem. Phys. 152 154105 (2020);
          URL http://www.quantum-espresso.org", 
     in publications or presentations arising from this work. More details at
     http://www.quantum-espresso.org/quote

     Parallel version (MPI & OpenMP), running on      12 processor cores
     Number of MPI processes:                 1
     Threads/MPI process:                    12

     MPI processes distributed on     1 nodes
     60293 MiB available memory on the printing compute node when the environment starts
 
     Reading input from aiida.in

     Current dimensions of program PWSCF are:
     Max number of different atomic species (ntypx) = 10
     Max number of k-points (npk) =  40000
     Max angular momentum in pseudopotentials (lmaxx) =  4
     file Fe.pbesol-spn-kjpaw_psl.0.2.1.UPF: wavefunction(s)  3D renormalized
     Message from routine setup:
     using ibrav=0 with symmetry is DISCOURAGED, use correct ibrav instead
 
     Subspace diagonalization in iterative solution of the eigenvalue problem:
     a serial algorithm will be used

 
     G-vector sticks info
     --------------------
     sticks:   dense  smooth     PW     G-vecs:    dense   smooth      PW
     Sum        4741    1573    451               215583    41391    6423
 
     Using Slab Decomposition
 


     bravais-lattice index     =            0
     lattice parameter (alat)  =       7.9827  a.u.
     unit-cell volume          =     359.6932 (a.u.)^3
     number of atoms/cell      =            4
     number of atomic types    =            3
     number of electrons       =        60.00
     number of Kohn-Sham states=           36
     kinetic-energy cutoff     =      90.0000  Ry
     charge density cutoff     =    1080.0000  Ry
     scf convergence threshold =      8.0E-10
     mixing beta               =       0.4000
     number of iterations used =            8  plain     mixing
     Exchange-correlation= SLA  PW   PSX  PSC
                           (   1   4  10   8   0   0   0)

     GPU acceleration is ACTIVE.


     GPU used by master process:

        Device Number: 0
        Device name: Tesla P100-PCIE-16GB
        Compute capability : 60
        Ratio of single to double precision performance  : 2
        Memory Clock Rate (KHz): 715000
        Memory Bus Width (bits): 4096
        Peak Memory Bandwidth (GB/s): 732.16

     celldm(1)=   7.982687  celldm(2)=   0.000000  celldm(3)=   0.000000
     celldm(4)=   0.000000  celldm(5)=   0.000000  celldm(6)=   0.000000

     crystal axes: (cart. coord. in units of alat)
               a(1) = (   0.000000   0.707107   0.707107 )  
               a(2) = (   0.707107   0.000000   0.707107 )  
               a(3) = (   0.707107   0.707107   0.000000 )  

     reciprocal axes: (cart. coord. in units 2 pi/alat)
               b(1) = ( -0.707107  0.707107  0.707107 )  
               b(2) = (  0.707107 -0.707107  0.707107 )  
               b(3) = (  0.707107  0.707107 -0.707107 )  


     PseudoPot. # 1 for Cr read from file:
     ./pseudo/cr_pbesol_v1.5.uspp.F.UPF
     MD5 check sum: a621641e0be27168676a837af8893d0f
     Pseudo is Ultrasoft + core correction, Zval = 14.0
     Generated by new atomic code, or converted to UPF format
     Using radial grid of  857 points,  6 beta functions with: 
                l(1) =   0
                l(2) =   0
                l(3) =   1
                l(4) =   1
                l(5) =   2
                l(6) =   2
     Q(r) pseudized with  8 coefficients,  rinner =    0.950   0.950   0.950
                                                       0.950   0.950

     PseudoPot. # 2 for Fe read from file:
     ./pseudo/Fe.pbesol-spn-kjpaw_psl.0.2.1.UPF
     MD5 check sum: 4d7ec5aa2156491519a4322664fbbf52
     Pseudo is Projector augmented-wave + core cor, Zval = 16.0
     Generated using "atomic" code by A. Dal Corso  v.6.0 svn rev. 13079
     Shape of augmentation charge: PSQ
     Using radial grid of 1191 points,  6 beta functions with: 
                l(1) =   0
                l(2) =   0
                l(3) =   1
                l(4) =   1
                l(5) =   2
                l(6) =   2
     Q(r) pseudized with 0 coefficients 


     PseudoPot. # 3 for Sn read from file:
     ./pseudo/sn_pbesol_v1.4.uspp.F.UPF
     MD5 check sum: 463fec1d5456f1e96ec1bfcad4b7b038
     Pseudo is Ultrasoft + core correction, Zval = 14.0
     Generated by new atomic code, or converted to UPF format
     Using radial grid of  891 points,  6 beta functions with: 
                l(1) =   0
                l(2) =   0
                l(3) =   1
                l(4) =   1
                l(5) =   2
                l(6) =   2
     Q(r) pseudized with  8 coefficients,  rinner =    1.350   1.350   1.350
                                                       1.350   1.350

     atomic species   valence    mass     pseudopotential
        Cr            14.00    51.99610     Cr( 1.00)
        Fe            16.00    55.84500     Fe( 1.00)
        Sn            14.00   118.71000     Sn( 1.00)

     Starting magnetic structure 
     atomic species   magnetization
        Cr           0.357
        Fe           0.313
        Sn           0.100

     48 Sym. Ops., with inversion, found


                                    s                        frac. trans.

      isym =  1     identity                                     

 cryst.   s( 1) = (     1          0          0      )
                  (     0          1          0      )
                  (     0          0          1      )

 cart.    s( 1) = (  1.0000000 -0.0000000  0.0000000 )
                  ( -0.0000000  1.0000000  0.0000000 )
                  ( -0.0000000  0.0000000  1.0000000 )


      isym =  2     180 deg rotation - cart. axis [0,0,1]        

 cryst.   s( 2) = (     0          1         -1      )
                  (     1          0         -1      )
                  (     0          0         -1      )

 cart.    s( 2) = ( -1.0000000  0.0000000  0.0000000 )
                  (  0.0000000 -1.0000000  0.0000000 )
                  (  0.0000000 -0.0000000  1.0000000 )


      isym =  3     180 deg rotation - cart. axis [0,1,0]        

 cryst.   s( 3) = (     0         -1          1      )
                  (     0         -1          0      )
                  (     1         -1          0      )

 cart.    s( 3) = ( -1.0000000 -0.0000000 -0.0000000 )
                  (  0.0000000  1.0000000 -0.0000000 )
                  (  0.0000000  0.0000000 -1.0000000 )


      isym =  4     180 deg rotation - cart. axis [1,0,0]        

 cryst.   s( 4) = (    -1          0          0      )
                  (    -1          0          1      )
                  (    -1          1          0      )

 cart.    s( 4) = (  1.0000000  0.0000000 -0.0000000 )
                  ( -0.0000000 -1.0000000 -0.0000000 )
                  ( -0.0000000 -0.0000000 -1.0000000 )


      isym =  5     180 deg rotation - cart. axis [1,1,0]        

 cryst.   s( 5) = (    -1          0          1      )
                  (     0         -1          1      )
                  (     0          0          1      )

 cart.    s( 5) = ( -0.0000000  1.0000000 -0.0000000 )
                  (  1.0000000 -0.0000000 -0.0000000 )
                  (  0.0000000 -0.0000000 -1.0000000 )


      isym =  6     180 deg rotation - cart. axis [1,-1,0]       

 cryst.   s( 6) = (     0         -1          0      )
                  (    -1          0          0      )
                  (     0          0         -1      )

 cart.    s( 6) = (  0.0000000 -1.0000000 -0.0000000 )
                  ( -1.0000000  0.0000000 -0.0000000 )
                  ( -0.0000000  0.0000000 -1.0000000 )


      isym =  7      90 deg rotation - cart. axis [0,0,-1]       

 cryst.   s( 7) = (     0          1          0      )
                  (     0          1         -1      )
                  (    -1          1          0      )

 cart.    s( 7) = (  0.0000000  1.0000000  0.0000000 )
                  ( -1.0000000 -0.0000000  0.0000000 )
                  ( -0.0000000 -0.0000000  1.0000000 )


      isym =  8      90 deg rotation - cart. axis [0,0,1]        

 cryst.   s( 8) = (     1          0         -1      )
                  (     1          0          0      )
                  (     1         -1          0      )

 cart.    s( 8) = ( -0.0000000 -1.0000000  0.0000000 )
                  (  1.0000000  0.0000000  0.0000000 )
                  (  0.0000000  0.0000000  1.0000000 )


      isym =  9     180 deg rotation - cart. axis [1,0,1]        

 cryst.   s( 9) = (    -1          1          0      )
                  (     0          1          0      )
                  (     0          1         -1      )

 cart.    s( 9) = (  0.0000000  0.0000000  1.0000000 )
                  (  0.0000000 -1.0000000 -0.0000000 )
                  (  1.0000000 -0.0000000 -0.0000000 )


      isym = 10     180 deg rotation - cart. axis [-1,0,1]       

 cryst.   s(10) = (     0          0         -1      )
                  (     0         -1          0      )
                  (    -1          0          0      )

 cart.    s(10) = ( -0.0000000  0.0000000 -1.0000000 )
                  ( -0.0000000 -1.0000000  0.0000000 )
                  ( -1.0000000 -0.0000000  0.0000000 )


      isym = 11      90 deg rotation - cart. axis [0,1,0]        

 cryst.   s(11) = (     0          0          1      )
                  (    -1          0          1      )
                  (     0         -1          1      )

 cart.    s(11) = ( -0.0000000 -0.0000000  1.0000000 )
                  ( -0.0000000  1.0000000 -0.0000000 )
                  ( -1.0000000  0.0000000 -0.0000000 )


      isym = 12      90 deg rotation - cart. axis [0,-1,0]       

 cryst.   s(12) = (     1         -1          0      )
                  (     1          0         -1      )
                  (     1          0          0      )

 cart.    s(12) = (  0.0000000 -0.0000000 -1.0000000 )
                  (  0.0000000  1.0000000  0.0000000 )
                  (  1.0000000  0.0000000  0.0000000 )


      isym = 13     180 deg rotation - cart. axis [0,1,1]        

 cryst.   s(13) = (     1          0          0      )
                  (     1         -1          0      )
                  (     1          0         -1      )

 cart.    s(13) = ( -1.0000000  0.0000000 -0.0000000 )
                  (  0.0000000  0.0000000  1.0000000 )
                  (  0.0000000  1.0000000  0.0000000 )


      isym = 14     180 deg rotation - cart. axis [0,1,-1]       

 cryst.   s(14) = (    -1          0          0      )
                  (     0          0         -1      )
                  (     0         -1          0      )

 cart.    s(14) = ( -1.0000000 -0.0000000  0.0000000 )
                  (  0.0000000 -0.0000000 -1.0000000 )
                  (  0.0000000 -1.0000000 -0.0000000 )


      isym = 15      90 deg rotation - cart. axis [-1,0,0]       

 cryst.   s(15) = (     0         -1          1      )
                  (     0          0          1      )
                  (    -1          0          1      )

 cart.    s(15) = (  1.0000000 -0.0000000 -0.0000000 )
                  ( -0.0000000 -0.0000000  1.0000000 )
                  ( -0.0000000 -1.0000000  0.0000000 )


      isym = 16      90 deg rotation - cart. axis [1,0,0]        

 cryst.   s(16) = (     0          1         -1      )
                  (    -1          1          0      )
                  (     0          1          0      )

 cart.    s(16) = (  1.0000000  0.0000000  0.0000000 )
                  ( -0.0000000  0.0000000 -1.0000000 )
                  ( -0.0000000  1.0000000 -0.0000000 )


      isym = 17     120 deg rotation - cart. axis [-1,-1,-1]     

 cryst.   s(17) = (     0          0          1      )
                  (     1          0          0      )
                  (     0          1          0      )

 cart.    s(17) = (  0.0000000  1.0000000 -0.0000000 )
                  (  0.0000000 -0.0000000  1.0000000 )
                  (  1.0000000 -0.0000000  0.0000000 )


      isym = 18     120 deg rotation - cart. axis [-1,1,1]       

 cryst.   s(18) = (     1         -1          0      )
                  (     0         -1          1      )
                  (     0         -1          0      )

 cart.    s(18) = ( -0.0000000 -1.0000000 -0.0000000 )
                  ( -0.0000000  0.0000000  1.0000000 )
                  ( -1.0000000  0.0000000  0.0000000 )


      isym = 19     120 deg rotation - cart. axis [1,1,-1]       

 cryst.   s(19) = (    -1          1          0      )
                  (    -1          0          0      )
                  (    -1          0          1      )

 cart.    s(19) = ( -0.0000000  1.0000000  0.0000000 )
                  ( -0.0000000 -0.0000000 -1.0000000 )
                  ( -1.0000000 -0.0000000 -0.0000000 )


      isym = 20     120 deg rotation - cart. axis [1,-1,1]       

 cryst.   s(20) = (     0          0         -1      )
                  (     0          1         -1      )
                  (     1          0         -1      )

 cart.    s(20) = (  0.0000000 -1.0000000  0.0000000 )
                  (  0.0000000  0.0000000 -1.0000000 )
                  (  1.0000000  0.0000000 -0.0000000 )


      isym = 21     120 deg rotation - cart. axis [1,1,1]        

 cryst.   s(21) = (     0          1          0      )
                  (     0          0          1      )
                  (     1          0          0      )

 cart.    s(21) = ( -0.0000000  0.0000000  1.0000000 )
                  (  1.0000000  0.0000000 -0.0000000 )
                  (  0.0000000  1.0000000 -0.0000000 )


      isym = 22     120 deg rotation - cart. axis [-1,1,-1]      

 cryst.   s(22) = (    -1          0          1      )
                  (    -1          1          0      )
                  (    -1          0          0      )

 cart.    s(22) = (  0.0000000 -0.0000000  1.0000000 )
                  ( -1.0000000 -0.0000000 -0.0000000 )
                  ( -0.0000000 -1.0000000 -0.0000000 )


      isym = 23     120 deg rotation - cart. axis [1,-1,-1]      

 cryst.   s(23) = (     1          0         -1      )
                  (     0          0         -1      )
                  (     0          1         -1      )

 cart.    s(23) = (  0.0000000  0.0000000 -1.0000000 )
                  ( -1.0000000  0.0000000  0.0000000 )
                  ( -0.0000000  1.0000000  0.0000000 )


      isym = 24     120 deg rotation - cart. axis [-1,-1,1]      

 cryst.   s(24) = (     0         -1          0      )
                  (     1         -1          0      )
                  (     0         -1          1      )

 cart.    s(24) = ( -0.0000000 -0.0000000 -1.0000000 )
                  (  1.0000000 -0.0000000  0.0000000 )
                  (  0.0000000 -1.0000000  0.0000000 )


      isym = 25     inversion                                    

 cryst.   s(25) = (    -1          0          0      )
                  (     0         -1          0      )
                  (     0          0         -1      )

 cart.    s(25) = ( -1.0000000  0.0000000 -0.0000000 )
                  (  0.0000000 -1.0000000 -0.0000000 )
                  (  0.0000000 -0.0000000 -1.0000000 )


      isym = 26     inv. 180 deg rotation - cart. axis [0,0,1]   

 cryst.   s(26) = (     0         -1          1      )
                  (    -1          0          1      )
                  (     0          0          1      )

 cart.    s(26) = (  1.0000000 -0.0000000 -0.0000000 )
                  ( -0.0000000  1.0000000 -0.0000000 )
                  ( -0.0000000  0.0000000 -1.0000000 )


      isym = 27     inv. 180 deg rotation - cart. axis [0,1,0]   

 cryst.   s(27) = (     0          1         -1      )
                  (     0          1          0      )
                  (    -1          1          0      )

 cart.    s(27) = (  1.0000000  0.0000000  0.0000000 )
                  ( -0.0000000 -1.0000000  0.0000000 )
                  ( -0.0000000 -0.0000000  1.0000000 )


      isym = 28     inv. 180 deg rotation - cart. axis [1,0,0]   

 cryst.   s(28) = (     1          0          0      )
                  (     1          0         -1      )
                  (     1         -1          0      )

 cart.    s(28) = ( -1.0000000 -0.0000000  0.0000000 )
                  (  0.0000000  1.0000000  0.0000000 )
                  (  0.0000000  0.0000000  1.0000000 )


      isym = 29     inv. 180 deg rotation - cart. axis [1,1,0]   

 cryst.   s(29) = (     1          0         -1      )
                  (     0          1         -1      )
                  (     0          0         -1      )

 cart.    s(29) = (  0.0000000 -1.0000000  0.0000000 )
                  ( -1.0000000  0.0000000  0.0000000 )
                  ( -0.0000000  0.0000000  1.0000000 )


      isym = 30     inv. 180 deg rotation - cart. axis [1,-1,0]  

 cryst.   s(30) = (     0          1          0      )
                  (     1          0          0      )
                  (     0          0          1      )

 cart.    s(30) = ( -0.0000000  1.0000000  0.0000000 )
                  (  1.0000000 -0.0000000  0.0000000 )
                  (  0.0000000 -0.0000000  1.0000000 )


      isym = 31     inv.  90 deg rotation - cart. axis [0,0,-1]  

 cryst.   s(31) = (     0         -1          0      )
                  (     0         -1          1      )
                  (     1         -1          0      )

 cart.    s(31) = ( -0.0000000 -1.0000000 -0.0000000 )
                  (  1.0000000  0.0000000 -0.0000000 )
                  (  0.0000000  0.0000000 -1.0000000 )


      isym = 32     inv.  90 deg rotation - cart. axis [0,0,1]   

 cryst.   s(32) = (    -1          0          1      )
                  (    -1          0          0      )
                  (    -1          1          0      )

 cart.    s(32) = (  0.0000000  1.0000000 -0.0000000 )
                  ( -1.0000000 -0.0000000 -0.0000000 )
                  ( -0.0000000 -0.0000000 -1.0000000 )


      isym = 33     inv. 180 deg rotation - cart. axis [1,0,1]   

 cryst.   s(33) = (     1         -1          0      )
                  (     0         -1          0      )
                  (     0         -1          1      )

 cart.    s(33) = ( -0.0000000 -0.0000000 -1.0000000 )
                  ( -0.0000000  1.0000000  0.0000000 )
                  ( -1.0000000  0.0000000  0.0000000 )


      isym = 34     inv. 180 deg rotation - cart. axis [-1,0,1]  

 cryst.   s(34) = (     0          0          1      )
                  (     0          1          0      )
                  (     1          0          0      )

 cart.    s(34) = (  0.0000000 -0.0000000  1.0000000 )
                  (  0.0000000  1.0000000 -0.0000000 )
                  (  1.0000000  0.0000000 -0.0000000 )


      isym = 35     inv.  90 deg rotation - cart. axis [0,1,0]   

 cryst.   s(35) = (     0          0         -1      )
                  (     1          0         -1      )
                  (     0          1         -1      )

 cart.    s(35) = (  0.0000000  0.0000000 -1.0000000 )
                  (  0.0000000 -1.0000000  0.0000000 )
                  (  1.0000000 -0.0000000  0.0000000 )


      isym = 36     inv.  90 deg rotation - cart. axis [0,-1,0]  

 cryst.   s(36) = (    -1          1          0      )
                  (    -1          0          1      )
                  (    -1          0          0      )

 cart.    s(36) = ( -0.0000000  0.0000000  1.0000000 )
                  ( -0.0000000 -1.0000000 -0.0000000 )
                  ( -1.0000000 -0.0000000 -0.0000000 )


      isym = 37     inv. 180 deg rotation - cart. axis [0,1,1]   

 cryst.   s(37) = (    -1          0          0      )
                  (    -1          1          0      )
                  (    -1          0          1      )

 cart.    s(37) = (  1.0000000 -0.0000000  0.0000000 )
                  ( -0.0000000 -0.0000000 -1.0000000 )
                  ( -0.0000000 -1.0000000 -0.0000000 )


      isym = 38     inv. 180 deg rotation - cart. axis [0,1,-1]  

 cryst.   s(38) = (     1          0          0      )
                  (     0          0          1      )
                  (     0          1          0      )

 cart.    s(38) = (  1.0000000  0.0000000 -0.0000000 )
                  ( -0.0000000  0.0000000  1.0000000 )
                  ( -0.0000000  1.0000000  0.0000000 )


      isym = 39     inv.  90 deg rotation - cart. axis [-1,0,0]  

 cryst.   s(39) = (     0          1         -1      )
                  (     0          0         -1      )
                  (     1          0         -1      )

 cart.    s(39) = ( -1.0000000  0.0000000  0.0000000 )
                  (  0.0000000  0.0000000 -1.0000000 )
                  (  0.0000000  1.0000000 -0.0000000 )


      isym = 40     inv.  90 deg rotation - cart. axis [1,0,0]   

 cryst.   s(40) = (     0         -1          1      )
                  (     1         -1          0      )
                  (     0         -1          0      )

 cart.    s(40) = ( -1.0000000 -0.0000000 -0.0000000 )
                  (  0.0000000 -0.0000000  1.0000000 )
                  (  0.0000000 -1.0000000  0.0000000 )


      isym = 41     inv. 120 deg rotation - cart. axis [-1,-1,-1]

 cryst.   s(41) = (     0          0         -1      )
                  (    -1          0          0      )
                  (     0         -1          0      )

 cart.    s(41) = ( -0.0000000 -1.0000000  0.0000000 )
                  ( -0.0000000  0.0000000 -1.0000000 )
                  ( -1.0000000  0.0000000 -0.0000000 )


      isym = 42     inv. 120 deg rotation - cart. axis [-1,1,1]  

 cryst.   s(42) = (    -1          1          0      )
                  (     0          1         -1      )
                  (     0          1          0      )

 cart.    s(42) = (  0.0000000  1.0000000  0.0000000 )
                  (  0.0000000 -0.0000000 -1.0000000 )
                  (  1.0000000 -0.0000000 -0.0000000 )


      isym = 43     inv. 120 deg rotation - cart. axis [1,1,-1]  

 cryst.   s(43) = (     1         -1          0      )
                  (     1          0          0      )
                  (     1          0         -1      )

 cart.    s(43) = (  0.0000000 -1.0000000 -0.0000000 )
                  (  0.0000000  0.0000000  1.0000000 )
                  (  1.0000000  0.0000000  0.0000000 )


      isym = 44     inv. 120 deg rotation - cart. axis [1,-1,1]  

 cryst.   s(44) = (     0          0          1      )
                  (     0         -1          1      )
                  (    -1          0          1      )

 cart.    s(44) = ( -0.0000000  1.0000000 -0.0000000 )
                  ( -0.0000000 -0.0000000  1.0000000 )
                  ( -1.0000000 -0.0000000  0.0000000 )


      isym = 45     inv. 120 deg rotation - cart. axis [1,1,1]   

 cryst.   s(45) = (     0         -1          0      )
                  (     0          0         -1      )
                  (    -1          0          0      )

 cart.    s(45) = (  0.0000000 -0.0000000 -1.0000000 )
                  ( -1.0000000 -0.0000000  0.0000000 )
                  ( -0.0000000 -1.0000000  0.0000000 )


      isym = 46     inv. 120 deg rotation - cart. axis [-1,1,-1] 

 cryst.   s(46) = (     1          0         -1      )
                  (     1         -1          0      )
                  (     1          0          0      )

 cart.    s(46) = ( -0.0000000  0.0000000 -1.0000000 )
                  (  1.0000000  0.0000000  0.0000000 )
                  (  0.0000000  1.0000000  0.0000000 )


      isym = 47     inv. 120 deg rotation - cart. axis [1,-1,-1] 

 cryst.   s(47) = (    -1          0          1      )
                  (     0          0          1      )
                  (     0         -1          1      )

 cart.    s(47) = ( -0.0000000 -0.0000000  1.0000000 )
                  (  1.0000000 -0.0000000 -0.0000000 )
                  (  0.0000000 -1.0000000 -0.0000000 )


      isym = 48     inv. 120 deg rotation - cart. axis [-1,-1,1] 

 cryst.   s(48) = (     0          1          0      )
                  (    -1          1          0      )
                  (     0          1         -1      )

 cart.    s(48) = (  0.0000000  0.0000000  1.0000000 )
                  ( -1.0000000  0.0000000 -0.0000000 )
                  ( -0.0000000  1.0000000 -0.0000000 )


   Cartesian axes

     site n.     atom                  positions (alat units)
         1           Cr  tau(   1) = (   0.7071068   0.0000000   0.0000000  )
         2           Fe  tau(   2) = (   0.3535534   0.3535534   1.0606602  )
         3           Fe  tau(   3) = (   0.3535534   1.0606602   1.0606602  )
         4           Sn  tau(   4) = (   0.0000000   0.0000000   0.0000000  )

   Crystallographic axes

     site n.     atom                  positions (cryst. coord.)
         1           Cr  tau(   1) = ( -0.5000000  0.5000000  0.5000000  )
         2           Fe  tau(   2) = (  0.7500000  0.7500000 -0.2500000  )
         3           Fe  tau(   3) = (  1.2500000  0.2500000  0.2500000  )
         4           Sn  tau(   4) = (  0.0000000  0.0000000  0.0000000  )

     number of k points=    84  Marzari-Vanderbilt smearing, width (Ry)=  0.0100
                       cart. coord. in units 2pi/alat
        k(    1) = (   0.0000000   0.0000000   0.0000000), wk =   0.0004552
        k(    2) = (   0.0543928   0.0543928  -0.0543928), wk =   0.0036413
        k(    3) = (   0.1087857   0.1087857  -0.1087857), wk =   0.0036413
        k(    4) = (   0.1631785   0.1631785  -0.1631785), wk =   0.0036413
        k(    5) = (   0.2175713   0.2175713  -0.2175713), wk =   0.0036413
        k(    6) = (   0.2719641   0.2719641  -0.2719641), wk =   0.0036413
        k(    7) = (   0.3263570   0.3263570  -0.3263570), wk =   0.0036413
        k(    8) = (   0.1087857  -0.0000000   0.0000000), wk =   0.0027310
        k(    9) = (   0.1631785   0.0543928  -0.0543928), wk =   0.0109240
        k(   10) = (   0.2175713   0.1087857  -0.1087857), wk =   0.0109240
        k(   11) = (   0.2719641   0.1631785  -0.1631785), wk =   0.0109240
        k(   12) = (   0.3263570   0.2175713  -0.2175713), wk =   0.0109240
        k(   13) = (   0.3807498   0.2719641  -0.2719641), wk =   0.0109240
        k(   14) = (  -0.2719641  -0.3807498   0.3807498), wk =   0.0109240
        k(   15) = (  -0.2175713  -0.3263570   0.3263570), wk =   0.0109240
        k(   16) = (  -0.1631785  -0.2719641   0.2719641), wk =   0.0109240
        k(   17) = (  -0.1087857  -0.2175713   0.2175713), wk =   0.0109240
        k(   18) = (  -0.0543928  -0.1631785   0.1631785), wk =   0.0109240
        k(   19) = (   0.0000000  -0.1087857   0.1087857), wk =   0.0054620
        k(   20) = (   0.2175713  -0.0000000   0.0000000), wk =   0.0027310
        k(   21) = (   0.2719641   0.0543928  -0.0543928), wk =   0.0109240
        k(   22) = (   0.3263570   0.1087857  -0.1087857), wk =   0.0109240
        k(   23) = (   0.3807498   0.1631785  -0.1631785), wk =   0.0109240
        k(   24) = (   0.4351426   0.2175713  -0.2175713), wk =   0.0109240
        k(   25) = (  -0.2175713  -0.4351426   0.4351426), wk =   0.0109240
        k(   26) = (  -0.1631785  -0.3807498   0.3807498), wk =   0.0109240
        k(   27) = (  -0.1087857  -0.3263570   0.3263570), wk =   0.0109240
        k(   28) = (  -0.0543928  -0.2719641   0.2719641), wk =   0.0109240
        k(   29) = (   0.0000000  -0.2175713   0.2175713), wk =   0.0054620
        k(   30) = (   0.3263570  -0.0000000   0.0000000), wk =   0.0027310
        k(   31) = (   0.3807498   0.0543928  -0.0543928), wk =   0.0109240
        k(   32) = (   0.4351426   0.1087857  -0.1087857), wk =   0.0109240
        k(   33) = (   0.4895355   0.1631785  -0.1631785), wk =   0.0109240
        k(   34) = (  -0.1631785  -0.4895355   0.4895355), wk =   0.0109240
        k(   35) = (  -0.1087857  -0.4351426   0.4351426), wk =   0.0109240
        k(   36) = (  -0.0543928  -0.3807498   0.3807498), wk =   0.0109240
        k(   37) = (   0.0000000  -0.3263570   0.3263570), wk =   0.0054620
        k(   38) = (   0.4351426  -0.0000000   0.0000000), wk =   0.0027310
        k(   39) = (   0.4895355   0.0543928  -0.0543928), wk =   0.0109240
        k(   40) = (   0.5439283   0.1087857  -0.1087857), wk =   0.0109240
        k(   41) = (  -0.1087857  -0.5439283   0.5439283), wk =   0.0109240
        k(   42) = (  -0.0543928  -0.4895355   0.4895355), wk =   0.0109240
        k(   43) = (   0.0000000  -0.4351426   0.4351426), wk =   0.0054620
        k(   44) = (   0.5439283  -0.0000000   0.0000000), wk =   0.0027310
        k(   45) = (   0.5983211   0.0543928  -0.0543928), wk =   0.0109240
        k(   46) = (  -0.0543928  -0.5983211   0.5983211), wk =   0.0109240
        k(   47) = (   0.0000000  -0.5439283   0.5439283), wk =   0.0054620
        k(   48) = (   0.6527140  -0.0000000   0.0000000), wk =   0.0027310
        k(   49) = (   0.0000000  -0.6527140   0.6527140), wk =   0.0054620
        k(   50) = (   0.2175713   0.1087857   0.0000000), wk =   0.0109240
        k(   51) = (   0.2719641   0.1631785  -0.0543928), wk =   0.0218480
        k(   52) = (   0.3263570   0.2175713  -0.1087857), wk =   0.0218480
        k(   53) = (   0.3807498   0.2719641  -0.1631785), wk =   0.0218480
        k(   54) = (  -0.2719641  -0.3807498   0.4895355), wk =   0.0218480
        k(   55) = (   0.3263570   0.1087857   0.0000000), wk =   0.0109240
        k(   56) = (   0.3807498   0.1631785  -0.0543928), wk =   0.0218480
        k(   57) = (   0.4351426   0.2175713  -0.1087857), wk =   0.0218480
        k(   58) = (  -0.2175713  -0.4351426   0.5439283), wk =   0.0218480
        k(   59) = (  -0.1631785  -0.3807498   0.4895355), wk =   0.0218480
        k(   60) = (  -0.1087857  -0.3263570   0.4351426), wk =   0.0218480
        k(   61) = (  -0.0543928  -0.2719641   0.3807498), wk =   0.0218480
        k(   62) = (   0.0000000  -0.2175713   0.3263570), wk =   0.0109240
        k(   63) = (   0.4351426   0.1087857   0.0000000), wk =   0.0109240
        k(   64) = (   0.4895355   0.1631785  -0.0543928), wk =   0.0218480
        k(   65) = (  -0.1631785  -0.4895355   0.5983211), wk =   0.0218480
        k(   66) = (  -0.1087857  -0.4351426   0.5439283), wk =   0.0218480
        k(   67) = (  -0.0543928  -0.3807498   0.4895355), wk =   0.0218480
        k(   68) = (   0.0000000  -0.3263570   0.4351426), wk =   0.0109240
        k(   69) = (   0.5439283   0.1087857   0.0000000), wk =   0.0109240
        k(   70) = (  -0.1087857  -0.5439283   0.6527140), wk =   0.0218480
        k(   71) = (  -0.0543928  -0.4895355   0.5983211), wk =   0.0218480
        k(   72) = (   0.0000000  -0.4351426   0.5439283), wk =   0.0109240
        k(   73) = (  -0.0543928  -0.5983211   0.7071068), wk =   0.0109240
        k(   74) = (   0.0000000  -0.5439283   0.6527140), wk =   0.0109240
        k(   75) = (   0.4351426   0.2175713   0.0000000), wk =   0.0109240
        k(   76) = (  -0.2175713  -0.4351426   0.6527140), wk =   0.0218480
        k(   77) = (  -0.1631785  -0.3807498   0.5983211), wk =   0.0218480
        k(   78) = (  -0.1631785  -0.4895355   0.7071068), wk =   0.0109240
        k(   79) = (  -0.1087857  -0.4351426   0.6527140), wk =   0.0218480
        k(   80) = (  -0.0543928  -0.3807498   0.5983211), wk =   0.0218480
        k(   81) = (   0.0000000  -0.3263570   0.5439283), wk =   0.0109240
        k(   82) = (  -0.0543928  -0.4895355   0.7071068), wk =   0.0109240
        k(   83) = (   0.0000000  -0.4351426   0.6527140), wk =   0.0109240
        k(   84) = (  -0.0543928  -0.3807498   0.7071068), wk =   0.0109240

                       cryst. coord.
        k(    1) = (   0.0000000   0.0000000   0.0000000), wk =   0.0004552
        k(    2) = (   0.0000000   0.0000000   0.0769231), wk =   0.0036413
        k(    3) = (   0.0000000   0.0000000   0.1538462), wk =   0.0036413
        k(    4) = (   0.0000000   0.0000000   0.2307692), wk =   0.0036413
        k(    5) = (   0.0000000   0.0000000   0.3076923), wk =   0.0036413
        k(    6) = (   0.0000000   0.0000000   0.3846154), wk =   0.0036413
        k(    7) = (   0.0000000   0.0000000   0.4615385), wk =   0.0036413
        k(    8) = (  -0.0000000   0.0769231   0.0769231), wk =   0.0027310
        k(    9) = (  -0.0000000   0.0769231   0.1538462), wk =   0.0109240
        k(   10) = (   0.0000000   0.0769231   0.2307692), wk =   0.0109240
        k(   11) = (  -0.0000000   0.0769231   0.3076923), wk =   0.0109240
        k(   12) = (   0.0000000   0.0769231   0.3846154), wk =   0.0109240
        k(   13) = (   0.0000000   0.0769231   0.4615385), wk =   0.0109240
        k(   14) = (   0.0000000   0.0769231  -0.4615385), wk =   0.0109240
        k(   15) = (   0.0000000   0.0769231  -0.3846154), wk =   0.0109240
        k(   16) = (  -0.0000000   0.0769231  -0.3076923), wk =   0.0109240
        k(   17) = (  -0.0000000   0.0769231  -0.2307692), wk =   0.0109240
        k(   18) = (  -0.0000000   0.0769231  -0.1538462), wk =   0.0109240
        k(   19) = (  -0.0000000   0.0769231  -0.0769231), wk =   0.0054620
        k(   20) = (  -0.0000000   0.1538462   0.1538462), wk =   0.0027310
        k(   21) = (  -0.0000000   0.1538462   0.2307692), wk =   0.0109240
        k(   22) = (  -0.0000000   0.1538462   0.3076923), wk =   0.0109240
        k(   23) = (  -0.0000000   0.1538462   0.3846154), wk =   0.0109240
        k(   24) = (   0.0000000   0.1538462   0.4615385), wk =   0.0109240
        k(   25) = (  -0.0000000   0.1538462  -0.4615385), wk =   0.0109240
        k(   26) = (   0.0000000   0.1538462  -0.3846154), wk =   0.0109240
        k(   27) = (  -0.0000000   0.1538462  -0.3076923), wk =   0.0109240
        k(   28) = (  -0.0000000   0.1538462  -0.2307692), wk =   0.0109240
        k(   29) = (  -0.0000000   0.1538462  -0.1538462), wk =   0.0054620
        k(   30) = (   0.0000000   0.2307692   0.2307692), wk =   0.0027310
        k(   31) = (   0.0000000   0.2307692   0.3076923), wk =   0.0109240
        k(   32) = (  -0.0000000   0.2307692   0.3846154), wk =   0.0109240
        k(   33) = (  -0.0000000   0.2307692   0.4615385), wk =   0.0109240
        k(   34) = (  -0.0000000   0.2307692  -0.4615385), wk =   0.0109240
        k(   35) = (   0.0000000   0.2307692  -0.3846154), wk =   0.0109240
        k(   36) = (   0.0000000   0.2307692  -0.3076923), wk =   0.0109240
        k(   37) = (   0.0000000   0.2307692  -0.2307692), wk =   0.0054620
        k(   38) = (  -0.0000000   0.3076923   0.3076923), wk =   0.0027310
        k(   39) = (  -0.0000000   0.3076923   0.3846154), wk =   0.0109240
        k(   40) = (  -0.0000000   0.3076923   0.4615385), wk =   0.0109240
        k(   41) = (  -0.0000000   0.3076923  -0.4615385), wk =   0.0109240
        k(   42) = (   0.0000000   0.3076923  -0.3846154), wk =   0.0109240
        k(   43) = (  -0.0000000   0.3076923  -0.3076923), wk =   0.0054620
        k(   44) = (  -0.0000000   0.3846154   0.3846154), wk =   0.0027310
        k(   45) = (  -0.0000000   0.3846154   0.4615385), wk =   0.0109240
        k(   46) = (  -0.0000000   0.3846154  -0.4615385), wk =   0.0109240
        k(   47) = (  -0.0000000   0.3846154  -0.3846154), wk =   0.0054620
        k(   48) = (   0.0000000   0.4615385   0.4615385), wk =   0.0027310
        k(   49) = (  -0.0000000   0.4615385  -0.4615385), wk =   0.0054620
        k(   50) = (   0.0769231   0.1538462   0.2307692), wk =   0.0109240
        k(   51) = (   0.0769231   0.1538462   0.3076923), wk =   0.0218480
        k(   52) = (   0.0769231   0.1538462   0.3846154), wk =   0.0218480
        k(   53) = (   0.0769231   0.1538462   0.4615385), wk =   0.0218480
        k(   54) = (   0.0769231   0.1538462  -0.4615385), wk =   0.0218480
        k(   55) = (   0.0769231   0.2307692   0.3076923), wk =   0.0109240
        k(   56) = (   0.0769231   0.2307692   0.3846154), wk =   0.0218480
        k(   57) = (   0.0769231   0.2307692   0.4615385), wk =   0.0218480
        k(   58) = (   0.0769231   0.2307692  -0.4615385), wk =   0.0218480
        k(   59) = (   0.0769231   0.2307692  -0.3846154), wk =   0.0218480
        k(   60) = (   0.0769231   0.2307692  -0.3076923), wk =   0.0218480
        k(   61) = (   0.0769231   0.2307692  -0.2307692), wk =   0.0218480
        k(   62) = (   0.0769231   0.2307692  -0.1538462), wk =   0.0109240
        k(   63) = (   0.0769231   0.3076923   0.3846154), wk =   0.0109240
        k(   64) = (   0.0769231   0.3076923   0.4615385), wk =   0.0218480
        k(   65) = (   0.0769231   0.3076923  -0.4615385), wk =   0.0218480
        k(   66) = (   0.0769231   0.3076923  -0.3846154), wk =   0.0218480
        k(   67) = (   0.0769231   0.3076923  -0.3076923), wk =   0.0218480
        k(   68) = (   0.0769231   0.3076923  -0.2307692), wk =   0.0109240
        k(   69) = (   0.0769231   0.3846154   0.4615385), wk =   0.0109240
        k(   70) = (   0.0769231   0.3846154  -0.4615385), wk =   0.0218480
        k(   71) = (   0.0769231   0.3846154  -0.3846154), wk =   0.0218480
        k(   72) = (   0.0769231   0.3846154  -0.3076923), wk =   0.0109240
        k(   73) = (   0.0769231   0.4615385  -0.4615385), wk =   0.0109240
        k(   74) = (   0.0769231   0.4615385  -0.3846154), wk =   0.0109240
        k(   75) = (   0.1538462   0.3076923   0.4615385), wk =   0.0109240
        k(   76) = (   0.1538462   0.3076923  -0.4615385), wk =   0.0218480
        k(   77) = (   0.1538462   0.3076923  -0.3846154), wk =   0.0218480
        k(   78) = (   0.1538462   0.3846154  -0.4615385), wk =   0.0109240
        k(   79) = (   0.1538462   0.3846154  -0.3846154), wk =   0.0218480
        k(   80) = (   0.1538462   0.3846154  -0.3076923), wk =   0.0218480
        k(   81) = (   0.1538462   0.3846154  -0.2307692), wk =   0.0109240
        k(   82) = (   0.1538462   0.4615385  -0.3846154), wk =   0.0109240
        k(   83) = (   0.1538462   0.4615385  -0.3076923), wk =   0.0109240
        k(   84) = (   0.2307692   0.4615385  -0.3076923), wk =   0.0109240

     Dense  grid:   215583 G-vectors     FFT dimensions: (  90,  90,  90)

     Smooth grid:    41391 G-vectors     FFT dimensions: (  50,  50,  50)

     Dynamical RAM for                 wfc:       2.85 MB

     Dynamical RAM for     wfc (w. buffer):     481.44 MB

     Dynamical RAM for           str. fact:       9.87 MB

     Dynamical RAM for           local pot:       0.00 MB

     Dynamical RAM for          nlocal pot:       5.70 MB

     Dynamical RAM for                qrad:       7.91 MB

     Dynamical RAM for          rho,v,vnew:      53.11 MB

     Dynamical RAM for               rhoin:      17.70 MB

     Dynamical RAM for            rho*nmix:     105.27 MB

     Dynamical RAM for           G-vectors:      12.65 MB

     Dynamical RAM for          h,s,v(r/c):       0.24 MB

     Dynamical RAM for          <psi|beta>:       0.04 MB

     Dynamical RAM for                 psi:       5.70 MB

     Dynamical RAM for                hpsi:       5.70 MB

     Dynamical RAM for                spsi:       5.70 MB

     Dynamical RAM for      wfcinit/wfcrot:       7.17 MB

     Dynamical RAM for           addusdens:     621.72 MB

     Dynamical RAM for          addusforce:     628.32 MB

     Dynamical RAM for         addusstress:     666.13 MB

     Estimated static dynamical RAM per process >     634.90 MB

     Estimated max dynamical RAM per process >       1.37 GB

     Check: negative core charge=   -0.000005
     Generating pointlists ...
     new r_m :   0.2526 (alat units)  2.0165 (a.u.) for type    1
     new r_m :   0.2526 (alat units)  2.0165 (a.u.) for type    2
     new r_m :   0.2526 (alat units)  2.0165 (a.u.) for type    3

     Initial potential from superposition of free atoms

     starting charge      57.9991, renormalised to      60.0000

     negative rho (up, down):  5.177E-04 2.438E-04
     Starting wfcs are   45 randomized atomic wfcs
     Checking if some PAW data can be deallocated... 

     total cpu time spent up to now is        8.2 secs

     per-process dynamical memory:  1295.7 Mb

     Self-consistent Calculation
[tb_dev] Currently allocated     7.83E+00 Mbytes, locked:    0 /  18
[tb_pin] Currently allocated     0.00E+00 Mbytes, locked:    0 /   0

     iteration #  1     ecut=    90.00 Ry     beta= 0.40
     Davidson diagonalization with overlap

---- Real-time Memory Report at c_bands before calling an iterative solver
          1597 MiB given to the printing process from OS
          1283 MiB allocation reported by mallinfo(arena+hblkhd)
         57643 MiB available memory on the node where the printing process lives
     GPU memory used/free/total (MiB): 1072 / 15208 / 16280
------------------
     ethr =  1.00E-02,  avg # of iterations =  2.5

     negative rho (up, down):  1.867E-05 4.116E-04

     total cpu time spent up to now is       14.2 secs

     total energy              =    -983.79007748 Ry
     estimated scf accuracy    <       9.38983830 Ry

     total magnetization       =     8.04 Bohr mag/cell
     absolute magnetization    =     8.19 Bohr mag/cell
[tb_dev] Currently allocated     7.83E+00 Mbytes, locked:    0 /  16
[tb_pin] Currently allocated     0.00E+00 Mbytes, locked:    0 /   0

     iteration #  2     ecut=    90.00 Ry     beta= 0.40
     Davidson diagonalization with overlap

---- Real-time Memory Report at c_bands before calling an iterative solver
          1762 MiB given to the printing process from OS
          1323 MiB allocation reported by mallinfo(arena+hblkhd)
         57609 MiB available memory on the node where the printing process lives
     GPU memory used/free/total (MiB): 1746 / 14534 / 16280
------------------
     ethr =  1.00E-02,  avg # of iterations =  4.5

     negative rho (up, down):  4.117E-05 6.769E-04

     total cpu time spent up to now is       22.3 secs

     total energy              =    -986.66492715 Ry
     estimated scf accuracy    <      36.36914301 Ry

     total magnetization       =     0.72 Bohr mag/cell
     absolute magnetization    =     0.87 Bohr mag/cell
[tb_dev] Currently allocated     7.83E+00 Mbytes, locked:    0 /  16
[tb_pin] Currently allocated     0.00E+00 Mbytes, locked:    0 /   0

     iteration #  3     ecut=    90.00 Ry     beta= 0.40
     Davidson diagonalization with overlap

---- Real-time Memory Report at c_bands before calling an iterative solver
          1898 MiB given to the printing process from OS
          1331 MiB allocation reported by mallinfo(arena+hblkhd)
         57601 MiB available memory on the node where the printing process lives
     GPU memory used/free/total (MiB): 1876 / 14404 / 16280
------------------
     ethr =  1.00E-02,  avg # of iterations =  2.1

     negative rho (up, down):  4.352E-05 7.084E-04

     total cpu time spent up to now is       28.1 secs

     total energy              =    -988.02702683 Ry
     estimated scf accuracy    <       8.12205346 Ry

     total magnetization       =     2.46 Bohr mag/cell
     absolute magnetization    =     2.93 Bohr mag/cell
[tb_dev] Currently allocated     7.83E+00 Mbytes, locked:    0 /  16
[tb_pin] Currently allocated     0.00E+00 Mbytes, locked:    0 /   0

     iteration #  4     ecut=    90.00 Ry     beta= 0.40
     Davidson diagonalization with overlap

---- Real-time Memory Report at c_bands before calling an iterative solver
          2034 MiB given to the printing process from OS
          1338 MiB allocation reported by mallinfo(arena+hblkhd)
         57596 MiB available memory on the node where the printing process lives
     GPU memory used/free/total (MiB): 1906 / 14374 / 16280
------------------
     ethr =  1.00E-02,  avg # of iterations =  1.3

     negative rho (up, down):  3.892E-05 1.179E-03

     total cpu time spent up to now is       33.0 secs

     total energy              =    -987.37533554 Ry
     estimated scf accuracy    <       6.06395071 Ry

     total magnetization       =     2.85 Bohr mag/cell
     absolute magnetization    =     3.32 Bohr mag/cell
[tb_dev] Currently allocated     7.83E+00 Mbytes, locked:    0 /  16
[tb_pin] Currently allocated     0.00E+00 Mbytes, locked:    0 /   0

     iteration #  5     ecut=    90.00 Ry     beta= 0.40
     Davidson diagonalization with overlap

---- Real-time Memory Report at c_bands before calling an iterative solver
          2082 MiB given to the printing process from OS
          1346 MiB allocation reported by mallinfo(arena+hblkhd)
         57589 MiB available memory on the node where the printing process lives
     GPU memory used/free/total (MiB): 1906 / 14374 / 16280
------------------
     ethr =  1.00E-02,  avg # of iterations =  3.0

     negative rho (up, down):  3.434E-05 1.166E-03

     total cpu time spent up to now is       39.2 secs

     total energy              =    -988.30069556 Ry
     estimated scf accuracy    <       3.36125828 Ry

     total magnetization       =     7.72 Bohr mag/cell
     absolute magnetization    =     8.02 Bohr mag/cell
[tb_dev] Currently allocated     7.83E+00 Mbytes, locked:    0 /  16
[tb_pin] Currently allocated     0.00E+00 Mbytes, locked:    0 /   0

     iteration #  6     ecut=    90.00 Ry     beta= 0.40
     Davidson diagonalization with overlap

---- Real-time Memory Report at c_bands before calling an iterative solver
          2130 MiB given to the printing process from OS
          1353 MiB allocation reported by mallinfo(arena+hblkhd)
         57581 MiB available memory on the node where the printing process lives
     GPU memory used/free/total (MiB): 1906 / 14374 / 16280
------------------
     ethr =  5.60E-03,  avg # of iterations =  1.9

     negative rho (up, down):  3.669E-05 1.475E-03

     total cpu time spent up to now is       44.5 secs

     total energy              =    -988.75551650 Ry
     estimated scf accuracy    <       7.49384396 Ry

     total magnetization       =     7.61 Bohr mag/cell
     absolute magnetization    =     7.82 Bohr mag/cell
[tb_dev] Currently allocated     7.83E+00 Mbytes, locked:    0 /  16
[tb_pin] Currently allocated     0.00E+00 Mbytes, locked:    0 /   0

     iteration #  7     ecut=    90.00 Ry     beta= 0.40
     Davidson diagonalization with overlap

---- Real-time Memory Report at c_bands before calling an iterative solver
          2177 MiB given to the printing process from OS
          1361 MiB allocation reported by mallinfo(arena+hblkhd)
         57576 MiB available memory on the node where the printing process lives
     GPU memory used/free/total (MiB): 1906 / 14374 / 16280
------------------
     ethr =  5.60E-03,  avg # of iterations =  1.4

     negative rho (up, down):  1.645E-05 1.028E-03

     total cpu time spent up to now is       49.4 secs

     total energy              =    -987.37336482 Ry
     estimated scf accuracy    <      13.02193687 Ry

     total magnetization       =     7.25 Bohr mag/cell
     absolute magnetization    =     7.46 Bohr mag/cell
[tb_dev] Currently allocated     7.83E+00 Mbytes, locked:    0 /  16
[tb_pin] Currently allocated     0.00E+00 Mbytes, locked:    0 /   0

     iteration #  8     ecut=    90.00 Ry     beta= 0.40
     Davidson diagonalization with overlap

---- Real-time Memory Report at c_bands before calling an iterative solver
          2226 MiB given to the printing process from OS
          1370 MiB allocation reported by mallinfo(arena+hblkhd)
         57566 MiB available memory on the node where the printing process lives
     GPU memory used/free/total (MiB): 1906 / 14374 / 16280
------------------
     ethr =  5.60E-03,  avg # of iterations =  1.6

     negative rho (up, down):  1.930E-05 1.218E-03

     total cpu time spent up to now is       54.7 secs

     total energy              =    -988.01807658 Ry
     estimated scf accuracy    <       0.23613176 Ry

     total magnetization       =     4.30 Bohr mag/cell
     absolute magnetization    =     4.79 Bohr mag/cell
[tb_dev] Currently allocated     7.83E+00 Mbytes, locked:    0 /  16
[tb_pin] Currently allocated     0.00E+00 Mbytes, locked:    0 /   0

     iteration #  9     ecut=    90.00 Ry     beta= 0.40
     Davidson diagonalization with overlap

---- Real-time Memory Report at c_bands before calling an iterative solver
          2267 MiB given to the printing process from OS
          1378 MiB allocation reported by mallinfo(arena+hblkhd)
         57558 MiB available memory on the node where the printing process lives
     GPU memory used/free/total (MiB): 1906 / 14374 / 16280
------------------
     ethr =  3.94E-04,  avg # of iterations =  2.2

     negative rho (up, down):  1.710E-05 1.271E-03

     total cpu time spent up to now is       60.2 secs

     total energy              =    -988.08120806 Ry
     estimated scf accuracy    <       1.12407128 Ry

     total magnetization       =     6.40 Bohr mag/cell
     absolute magnetization    =     6.68 Bohr mag/cell
[tb_dev] Currently allocated     7.83E+00 Mbytes, locked:    0 /  16
[tb_pin] Currently allocated     0.00E+00 Mbytes, locked:    0 /   0

     iteration # 10     ecut=    90.00 Ry     beta= 0.40
     Davidson diagonalization with overlap

---- Real-time Memory Report at c_bands before calling an iterative solver
          2295 MiB given to the printing process from OS
          1385 MiB allocation reported by mallinfo(arena+hblkhd)
         57551 MiB available memory on the node where the printing process lives
     GPU memory used/free/total (MiB): 1906 / 14374 / 16280
------------------
     ethr =  3.94E-04,  avg # of iterations =  1.1

     negative rho (up, down):  7.250E-06 1.447E-03

     total cpu time spent up to now is       65.0 secs

     total energy              =    -988.06877132 Ry
     estimated scf accuracy    <       0.59630371 Ry

     total magnetization       =     6.06 Bohr mag/cell
     absolute magnetization    =     6.38 Bohr mag/cell
[tb_dev] Currently allocated     7.83E+00 Mbytes, locked:    0 /  16
[tb_pin] Currently allocated     0.00E+00 Mbytes, locked:    0 /   0

     iteration # 11     ecut=    90.00 Ry     beta= 0.40
     Davidson diagonalization with overlap

---- Real-time Memory Report at c_bands before calling an iterative solver
          2300 MiB given to the printing process from OS
          1389 MiB allocation reported by mallinfo(arena+hblkhd)
         57549 MiB available memory on the node where the printing process lives
     GPU memory used/free/total (MiB): 1906 / 14374 / 16280
------------------
     ethr =  3.94E-04,  avg # of iterations =  1.2

     negative rho (up, down):  0.000E+00 1.917E-03

     total cpu time spent up to now is       69.9 secs

     total energy              =    -988.04644516 Ry
     estimated scf accuracy    <       0.27467951 Ry

     total magnetization       =     5.35 Bohr mag/cell
     absolute magnetization    =     5.73 Bohr mag/cell
[tb_dev] Currently allocated     7.83E+00 Mbytes, locked:    0 /  16
[tb_pin] Currently allocated     0.00E+00 Mbytes, locked:    0 /   0

     iteration # 12     ecut=    90.00 Ry     beta= 0.40
     Davidson diagonalization with overlap

---- Real-time Memory Report at c_bands before calling an iterative solver
          2305 MiB given to the printing process from OS
          1393 MiB allocation reported by mallinfo(arena+hblkhd)
         57544 MiB available memory on the node where the printing process lives
     GPU memory used/free/total (MiB): 1906 / 14374 / 16280
------------------
     ethr =  3.94E-04,  avg # of iterations =  1.2

     negative rho (up, down):  4.255E-06 1.748E-03

     total cpu time spent up to now is       74.8 secs

     total energy              =    -988.06969126 Ry
     estimated scf accuracy    <       0.13029052 Ry

     total magnetization       =     4.16 Bohr mag/cell
     absolute magnetization    =     4.65 Bohr mag/cell
[tb_dev] Currently allocated     7.83E+00 Mbytes, locked:    0 /  16
[tb_pin] Currently allocated     0.00E+00 Mbytes, locked:    0 /   0

     iteration # 13     ecut=    90.00 Ry     beta= 0.40
     Davidson diagonalization with overlap

---- Real-time Memory Report at c_bands before calling an iterative solver
          2308 MiB given to the printing process from OS
          1397 MiB allocation reported by mallinfo(arena+hblkhd)
         57542 MiB available memory on the node where the printing process lives
     GPU memory used/free/total (MiB): 1906 / 14374 / 16280
------------------
     ethr =  2.17E-04,  avg # of iterations =  1.0

     negative rho (up, down):  7.309E-06 1.597E-03

     total cpu time spent up to now is       79.7 secs

     total energy              =    -988.07023556 Ry
     estimated scf accuracy    <       0.09444787 Ry

     total magnetization       =     4.30 Bohr mag/cell
     absolute magnetization    =     4.77 Bohr mag/cell
[tb_dev] Currently allocated     7.83E+00 Mbytes, locked:    0 /  16
[tb_pin] Currently allocated     0.00E+00 Mbytes, locked:    0 /   0

     iteration # 14     ecut=    90.00 Ry     beta= 0.40
     Davidson diagonalization with overlap

---- Real-time Memory Report at c_bands before calling an iterative solver
          2313 MiB given to the printing process from OS
          1401 MiB allocation reported by mallinfo(arena+hblkhd)
         57539 MiB available memory on the node where the printing process lives
     GPU memory used/free/total (MiB): 1906 / 14374 / 16280
------------------
     ethr =  1.57E-04,  avg # of iterations =  1.0

     negative rho (up, down):  1.216E-05 1.359E-03

     total cpu time spent up to now is       84.4 secs

     total energy              =    -988.07361080 Ry
     estimated scf accuracy    <       0.01025573 Ry

     total magnetization       =     4.40 Bohr mag/cell
     absolute magnetization    =     4.85 Bohr mag/cell
[tb_dev] Currently allocated     7.83E+00 Mbytes, locked:    0 /  16
[tb_pin] Currently allocated     0.00E+00 Mbytes, locked:    0 /   0

     iteration # 15     ecut=    90.00 Ry     beta= 0.40
     Davidson diagonalization with overlap

---- Real-time Memory Report at c_bands before calling an iterative solver
          2318 MiB given to the printing process from OS
          1405 MiB allocation reported by mallinfo(arena+hblkhd)
         57533 MiB available memory on the node where the printing process lives
     GPU memory used/free/total (MiB): 1906 / 14374 / 16280
------------------
     ethr =  1.71E-05,  avg # of iterations =  1.8

     negative rho (up, down):  2.507E-05 1.104E-03

     total cpu time spent up to now is       89.6 secs

     total energy              =    -988.07344650 Ry
     estimated scf accuracy    <       0.01386602 Ry

     total magnetization       =     4.25 Bohr mag/cell
     absolute magnetization    =     4.68 Bohr mag/cell
[tb_dev] Currently allocated     7.83E+00 Mbytes, locked:    0 /  16
[tb_pin] Currently allocated     0.00E+00 Mbytes, locked:    0 /   0

     iteration # 16     ecut=    90.00 Ry     beta= 0.40
     Davidson diagonalization with overlap

---- Real-time Memory Report at c_bands before calling an iterative solver
          2321 MiB given to the printing process from OS
          1409 MiB allocation reported by mallinfo(arena+hblkhd)
         57529 MiB available memory on the node where the printing process lives
     GPU memory used/free/total (MiB): 1906 / 14374 / 16280
------------------
     ethr =  1.71E-05,  avg # of iterations =  2.1

     negative rho (up, down):  2.849E-05 1.064E-03

     total cpu time spent up to now is       95.1 secs

     total energy              =    -988.07595023 Ry
     estimated scf accuracy    <       0.00166039 Ry

     total magnetization       =     3.90 Bohr mag/cell
     absolute magnetization    =     4.30 Bohr mag/cell
[tb_dev] Currently allocated     7.83E+00 Mbytes, locked:    0 /  16
[tb_pin] Currently allocated     0.00E+00 Mbytes, locked:    0 /   0

     iteration # 17     ecut=    90.00 Ry     beta= 0.40
     Davidson diagonalization with overlap

---- Real-time Memory Report at c_bands before calling an iterative solver
          2327 MiB given to the printing process from OS
          1419 MiB allocation reported by mallinfo(arena+hblkhd)
         57520 MiB available memory on the node where the printing process lives
     GPU memory used/free/total (MiB): 1906 / 14374 / 16280
------------------
     ethr =  2.77E-06,  avg # of iterations =  4.9

     negative rho (up, down):  3.289E-05 9.990E-04

     total cpu time spent up to now is      102.5 secs

     total energy              =    -988.07596390 Ry
     estimated scf accuracy    <       0.00035471 Ry

     total magnetization       =     3.85 Bohr mag/cell
     absolute magnetization    =     4.23 Bohr mag/cell
[tb_dev] Currently allocated     7.83E+00 Mbytes, locked:    0 /  16
[tb_pin] Currently allocated     0.00E+00 Mbytes, locked:    0 /   0

     iteration # 18     ecut=    90.00 Ry     beta= 0.40
     Davidson diagonalization with overlap

---- Real-time Memory Report at c_bands before calling an iterative solver
          2331 MiB given to the printing process from OS
          1417 MiB allocation reported by mallinfo(arena+hblkhd)
         57524 MiB available memory on the node where the printing process lives
     GPU memory used/free/total (MiB): 1906 / 14374 / 16280
------------------
     ethr =  5.91E-07,  avg # of iterations =  4.9

     negative rho (up, down):  3.156E-05 1.019E-03

     total cpu time spent up to now is      110.6 secs

     total energy              =    -988.07627122 Ry
     estimated scf accuracy    <       0.00043458 Ry

     total magnetization       =     3.74 Bohr mag/cell
     absolute magnetization    =     4.09 Bohr mag/cell
[tb_dev] Currently allocated     7.83E+00 Mbytes, locked:    0 /  16
[tb_pin] Currently allocated     0.00E+00 Mbytes, locked:    0 /   0

     iteration # 19     ecut=    90.00 Ry     beta= 0.40
     Davidson diagonalization with overlap

---- Real-time Memory Report at c_bands before calling an iterative solver
          2335 MiB given to the printing process from OS
          1421 MiB allocation reported by mallinfo(arena+hblkhd)
         57522 MiB available memory on the node where the printing process lives
     GPU memory used/free/total (MiB): 1906 / 14374 / 16280
------------------
     ethr =  5.91E-07,  avg # of iterations =  1.2

     negative rho (up, down):  3.197E-05 1.013E-03

     total cpu time spent up to now is      115.5 secs

     total energy              =    -988.07629286 Ry
     estimated scf accuracy    <       0.00002440 Ry

     total magnetization       =     3.75 Bohr mag/cell
     absolute magnetization    =     4.10 Bohr mag/cell
[tb_dev] Currently allocated     7.83E+00 Mbytes, locked:    0 /  16
[tb_pin] Currently allocated     0.00E+00 Mbytes, locked:    0 /   0

     iteration # 20     ecut=    90.00 Ry     beta= 0.40
     Davidson diagonalization with overlap

---- Real-time Memory Report at c_bands before calling an iterative solver
          2339 MiB given to the printing process from OS
          1425 MiB allocation reported by mallinfo(arena+hblkhd)
         57516 MiB available memory on the node where the printing process lives
     GPU memory used/free/total (MiB): 1906 / 14374 / 16280
------------------
     ethr =  4.07E-08,  avg # of iterations =  5.0

     negative rho (up, down):  3.115E-05 1.025E-03

     total cpu time spent up to now is      123.7 secs

     total energy              =    -988.07634697 Ry
     estimated scf accuracy    <       0.00004902 Ry

     total magnetization       =     3.71 Bohr mag/cell
     absolute magnetization    =     4.05 Bohr mag/cell
[tb_dev] Currently allocated     7.83E+00 Mbytes, locked:    0 /  16
[tb_pin] Currently allocated     0.00E+00 Mbytes, locked:    0 /   0

     iteration # 21     ecut=    90.00 Ry     beta= 0.40
     Davidson diagonalization with overlap

---- Real-time Memory Report at c_bands before calling an iterative solver
          2342 MiB given to the printing process from OS
          1429 MiB allocation reported by mallinfo(arena+hblkhd)
         57513 MiB available memory on the node where the printing process lives
     GPU memory used/free/total (MiB): 1906 / 14374 / 16280
------------------
     ethr =  4.07E-08,  avg # of iterations =  1.7

     negative rho (up, down):  3.131E-05 1.024E-03

     total cpu time spent up to now is      128.9 secs

     total energy              =    -988.07634487 Ry
     estimated scf accuracy    <       0.00001302 Ry

     total magnetization       =     3.71 Bohr mag/cell
     absolute magnetization    =     4.06 Bohr mag/cell
[tb_dev] Currently allocated     7.83E+00 Mbytes, locked:    0 /  16
[tb_pin] Currently allocated     0.00E+00 Mbytes, locked:    0 /   0

     iteration # 22     ecut=    90.00 Ry     beta= 0.40
     Davidson diagonalization with overlap

---- Real-time Memory Report at c_bands before calling an iterative solver
          2347 MiB given to the printing process from OS
          1439 MiB allocation reported by mallinfo(arena+hblkhd)
         57502 MiB available memory on the node where the printing process lives
     GPU memory used/free/total (MiB): 1906 / 14374 / 16280
------------------
     ethr =  2.17E-08,  avg # of iterations =  4.4

     negative rho (up, down):  3.186E-05 1.015E-03

     total cpu time spent up to now is      136.4 secs

     total energy              =    -988.07634982 Ry
     estimated scf accuracy    <       0.00002303 Ry

     total magnetization       =     3.68 Bohr mag/cell
     absolute magnetization    =     4.02 Bohr mag/cell
[tb_dev] Currently allocated     7.83E+00 Mbytes, locked:    0 /  16
[tb_pin] Currently allocated     0.00E+00 Mbytes, locked:    0 /   0

     iteration # 23     ecut=    90.00 Ry     beta= 0.40
     Davidson diagonalization with overlap

---- Real-time Memory Report at c_bands before calling an iterative solver
          2350 MiB given to the printing process from OS
          1443 MiB allocation reported by mallinfo(arena+hblkhd)
         57501 MiB available memory on the node where the printing process lives
     GPU memory used/free/total (MiB): 1906 / 14374 / 16280
------------------
     ethr =  2.17E-08,  avg # of iterations =  2.1

     negative rho (up, down):  3.133E-05 1.025E-03

     total cpu time spent up to now is      141.9 secs

     total energy              =    -988.07635967 Ry
     estimated scf accuracy    <       0.00000956 Ry

     total magnetization       =     3.69 Bohr mag/cell
     absolute magnetization    =     4.03 Bohr mag/cell
[tb_dev] Currently allocated     7.83E+00 Mbytes, locked:    0 /  16
[tb_pin] Currently allocated     0.00E+00 Mbytes, locked:    0 /   0

     iteration # 24     ecut=    90.00 Ry     beta= 0.40
     Davidson diagonalization with overlap

---- Real-time Memory Report at c_bands before calling an iterative solver
          2355 MiB given to the printing process from OS
          1447 MiB allocation reported by mallinfo(arena+hblkhd)
         57495 MiB available memory on the node where the printing process lives
     GPU memory used/free/total (MiB): 1906 / 14374 / 16280
------------------
     ethr =  1.59E-08,  avg # of iterations =  2.0

     negative rho (up, down):  3.141E-05 1.025E-03

     total cpu time spent up to now is      147.3 secs

     total energy              =    -988.07636249 Ry
     estimated scf accuracy    <       0.00000835 Ry

     total magnetization       =     3.68 Bohr mag/cell
     absolute magnetization    =     4.01 Bohr mag/cell
[tb_dev] Currently allocated     7.83E+00 Mbytes, locked:    0 /  16
[tb_pin] Currently allocated     0.00E+00 Mbytes, locked:    0 /   0

     iteration # 25     ecut=    90.00 Ry     beta= 0.40
     Davidson diagonalization with overlap

---- Real-time Memory Report at c_bands before calling an iterative solver
          2359 MiB given to the printing process from OS
          1451 MiB allocation reported by mallinfo(arena+hblkhd)
         57489 MiB available memory on the node where the printing process lives
     GPU memory used/free/total (MiB): 1906 / 14374 / 16280
------------------
     ethr =  1.39E-08,  avg # of iterations =  3.8

     negative rho (up, down):  3.055E-05 1.041E-03

     total cpu time spent up to now is      154.3 secs

     total energy              =    -988.07637343 Ry
     estimated scf accuracy    <       0.00001633 Ry

     total magnetization       =     3.65 Bohr mag/cell
     absolute magnetization    =     3.98 Bohr mag/cell
[tb_dev] Currently allocated     7.83E+00 Mbytes, locked:    0 /  16
[tb_pin] Currently allocated     0.00E+00 Mbytes, locked:    0 /   0

     iteration # 26     ecut=    90.00 Ry     beta= 0.40
     Davidson diagonalization with overlap

---- Real-time Memory Report at c_bands before calling an iterative solver
          2364 MiB given to the printing process from OS
          1455 MiB allocation reported by mallinfo(arena+hblkhd)
         57486 MiB available memory on the node where the printing process lives
     GPU memory used/free/total (MiB): 1906 / 14374 / 16280
------------------
     ethr =  1.39E-08,  avg # of iterations =  3.9

     negative rho (up, down):  2.906E-05 1.070E-03

     total cpu time spent up to now is      161.3 secs

     total energy              =    -988.07619807 Ry
     estimated scf accuracy    <       0.00000477 Ry

     total magnetization       =     3.64 Bohr mag/cell
     absolute magnetization    =     3.97 Bohr mag/cell
[tb_dev] Currently allocated     7.83E+00 Mbytes, locked:    0 /  16
[tb_pin] Currently allocated     0.00E+00 Mbytes, locked:    0 /   0

     iteration # 27     ecut=    90.00 Ry     beta= 0.40
     Davidson diagonalization with overlap

---- Real-time Memory Report at c_bands before calling an iterative solver
          2369 MiB given to the printing process from OS
          1459 MiB allocation reported by mallinfo(arena+hblkhd)
         57481 MiB available memory on the node where the printing process lives
     GPU memory used/free/total (MiB): 1906 / 14374 / 16280
------------------
     ethr =  7.96E-09,  avg # of iterations =  6.7

     negative rho (up, down):  3.057E-05 1.041E-03

     total cpu time spent up to now is      171.5 secs

     total energy              =    -988.07610151 Ry
     estimated scf accuracy    <       0.00002012 Ry

     total magnetization       =     3.53 Bohr mag/cell
     absolute magnetization    =     3.86 Bohr mag/cell
[tb_dev] Currently allocated     7.83E+00 Mbytes, locked:    0 /  16
[tb_pin] Currently allocated     0.00E+00 Mbytes, locked:    0 /   0

     iteration # 28     ecut=    90.00 Ry     beta= 0.40
     Davidson diagonalization with overlap

---- Real-time Memory Report at c_bands before calling an iterative solver
          2372 MiB given to the printing process from OS
          1463 MiB allocation reported by mallinfo(arena+hblkhd)
         57480 MiB available memory on the node where the printing process lives
     GPU memory used/free/total (MiB): 1906 / 14374 / 16280
------------------
     ethr =  7.96E-09,  avg # of iterations =  7.5

     negative rho (up, down):  3.208E-05 1.010E-03

     total cpu time spent up to now is      181.9 secs

     total energy              =    -988.07587528 Ry
     estimated scf accuracy    <       0.00002048 Ry

     total magnetization       =     3.65 Bohr mag/cell
     absolute magnetization    =     3.99 Bohr mag/cell
[tb_dev] Currently allocated     7.83E+00 Mbytes, locked:    0 /  16
[tb_pin] Currently allocated     0.00E+00 Mbytes, locked:    0 /   0

     iteration # 29     ecut=    90.00 Ry     beta= 0.40
     Davidson diagonalization with overlap

---- Real-time Memory Report at c_bands before calling an iterative solver
          2378 MiB given to the printing process from OS
          1467 MiB allocation reported by mallinfo(arena+hblkhd)
         57475 MiB available memory on the node where the printing process lives
     GPU memory used/free/total (MiB): 1906 / 14374 / 16280
------------------
     ethr =  7.96E-09,  avg # of iterations =  8.1

     negative rho (up, down):  2.994E-05 1.051E-03

     total cpu time spent up to now is      193.5 secs

     total energy              =    -988.07580537 Ry
     estimated scf accuracy    <       0.00007446 Ry

     total magnetization       =     3.80 Bohr mag/cell
     absolute magnetization    =     4.14 Bohr mag/cell
[tb_dev] Currently allocated     7.83E+00 Mbytes, locked:    0 /  16
[tb_pin] Currently allocated     0.00E+00 Mbytes, locked:    0 /   0

     iteration # 30     ecut=    90.00 Ry     beta= 0.40
     Davidson diagonalization with overlap

---- Real-time Memory Report at c_bands before calling an iterative solver
          2381 MiB given to the printing process from OS
          1471 MiB allocation reported by mallinfo(arena+hblkhd)
         57471 MiB available memory on the node where the printing process lives
     GPU memory used/free/total (MiB): 1906 / 14374 / 16280
------------------
     ethr =  7.96E-09,  avg # of iterations =  8.0

     negative rho (up, down):  2.867E-05 1.075E-03

     total cpu time spent up to now is      205.0 secs

     total energy              =    -988.07621358 Ry
     estimated scf accuracy    <       0.00002198 Ry

     total magnetization       =     3.62 Bohr mag/cell
     absolute magnetization    =     3.96 Bohr mag/cell
[tb_dev] Currently allocated     7.83E+00 Mbytes, locked:    0 /  16
[tb_pin] Currently allocated     0.00E+00 Mbytes, locked:    0 /   0

     iteration # 31     ecut=    90.00 Ry     beta= 0.40
     Davidson diagonalization with overlap

---- Real-time Memory Report at c_bands before calling an iterative solver
          2385 MiB given to the printing process from OS
          1475 MiB allocation reported by mallinfo(arena+hblkhd)
         57467 MiB available memory on the node where the printing process lives
     GPU memory used/free/total (MiB): 1906 / 14374 / 16280
------------------
     ethr =  7.96E-09,  avg # of iterations =  7.5

     negative rho (up, down):  2.862E-05 1.076E-03

     total cpu time spent up to now is      215.8 secs

     total energy              =    -988.07645189 Ry
     estimated scf accuracy    <       0.00004504 Ry

     total magnetization       =     3.51 Bohr mag/cell
     absolute magnetization    =     3.84 Bohr mag/cell
[tb_dev] Currently allocated     7.83E+00 Mbytes, locked:    0 /  16
[tb_pin] Currently allocated     0.00E+00 Mbytes, locked:    0 /   0

     iteration # 32     ecut=    90.00 Ry     beta= 0.40
     Davidson diagonalization with overlap

---- Real-time Memory Report at c_bands before calling an iterative solver
          2390 MiB given to the printing process from OS
          1479 MiB allocation reported by mallinfo(arena+hblkhd)
         57465 MiB available memory on the node where the printing process lives
     GPU memory used/free/total (MiB): 1906 / 14374 / 16280
------------------
     ethr =  7.96E-09,  avg # of iterations =  1.8

     negative rho (up, down):  2.913E-05 1.067E-03

     total cpu time spent up to now is      221.0 secs

     total energy              =    -988.07637647 Ry
     estimated scf accuracy    <       0.00004835 Ry

     total magnetization       =     3.50 Bohr mag/cell
     absolute magnetization    =     3.83 Bohr mag/cell
[tb_dev] Currently allocated     7.83E+00 Mbytes, locked:    0 /  16
[tb_pin] Currently allocated     0.00E+00 Mbytes, locked:    0 /   0

     iteration # 33     ecut=    90.00 Ry     beta= 0.40
     Davidson diagonalization with overlap

---- Real-time Memory Report at c_bands before calling an iterative solver
          2393 MiB given to the printing process from OS
          1483 MiB allocation reported by mallinfo(arena+hblkhd)
         57459 MiB available memory on the node where the printing process lives
     GPU memory used/free/total (MiB): 1906 / 14374 / 16280
------------------
     ethr =  7.96E-09,  avg # of iterations =  4.9

     negative rho (up, down):  2.885E-05 1.072E-03

     total cpu time spent up to now is      229.1 secs

     total energy              =    -988.07642513 Ry
     estimated scf accuracy    <       0.00002815 Ry

     total magnetization       =     3.55 Bohr mag/cell
     absolute magnetization    =     3.88 Bohr mag/cell
[tb_dev] Currently allocated     7.83E+00 Mbytes, locked:    0 /  16
[tb_pin] Currently allocated     0.00E+00 Mbytes, locked:    0 /   0

     iteration # 34     ecut=    90.00 Ry     beta= 0.40
     Davidson diagonalization with overlap

---- Real-time Memory Report at c_bands before calling an iterative solver
          2398 MiB given to the printing process from OS
          1487 MiB allocation reported by mallinfo(arena+hblkhd)
         57455 MiB available memory on the node where the printing process lives
     GPU memory used/free/total (MiB): 1906 / 14374 / 16280
------------------
     ethr =  7.96E-09,  avg # of iterations =  3.6

     negative rho (up, down):  2.855E-05 1.078E-03

     total cpu time spent up to now is      236.0 secs

     total energy              =    -988.07644263 Ry
     estimated scf accuracy    <       0.00004197 Ry

     total magnetization       =     3.53 Bohr mag/cell
     absolute magnetization    =     3.85 Bohr mag/cell
[tb_dev] Currently allocated     7.83E+00 Mbytes, locked:    0 /  16
[tb_pin] Currently allocated     0.00E+00 Mbytes, locked:    0 /   0

     iteration # 35     ecut=    90.00 Ry     beta= 0.40
     Davidson diagonalization with overlap

---- Real-time Memory Report at c_bands before calling an iterative solver
          2401 MiB given to the printing process from OS
          1491 MiB allocation reported by mallinfo(arena+hblkhd)
         57448 MiB available memory on the node where the printing process lives
     GPU memory used/free/total (MiB): 1906 / 14374 / 16280
------------------
     ethr =  7.96E-09,  avg # of iterations =  3.5

     negative rho (up, down):  2.904E-05 1.068E-03

     total cpu time spent up to now is      242.7 secs

     total energy              =    -988.07639822 Ry
     estimated scf accuracy    <       0.00004724 Ry

     total magnetization       =     3.51 Bohr mag/cell
     absolute magnetization    =     3.83 Bohr mag/cell
[tb_dev] Currently allocated     7.83E+00 Mbytes, locked:    0 /  16
[tb_pin] Currently allocated     0.00E+00 Mbytes, locked:    0 /   0

     iteration # 36     ecut=    90.00 Ry     beta= 0.40
     Davidson diagonalization with overlap

---- Real-time Memory Report at c_bands before calling an iterative solver
          2405 MiB given to the printing process from OS
          1495 MiB allocation reported by mallinfo(arena+hblkhd)
         57447 MiB available memory on the node where the printing process lives
     GPU memory used/free/total (MiB): 1906 / 14374 / 16280
------------------
     ethr =  7.96E-09,  avg # of iterations =  4.7

     negative rho (up, down):  2.871E-05 1.074E-03

     total cpu time spent up to now is      250.5 secs

     total energy              =    -988.07642998 Ry
     estimated scf accuracy    <       0.00003426 Ry

     total magnetization       =     3.55 Bohr mag/cell
     absolute magnetization    =     3.88 Bohr mag/cell
[tb_dev] Currently allocated     7.83E+00 Mbytes, locked:    0 /  16
[tb_pin] Currently allocated     0.00E+00 Mbytes, locked:    0 /   0

     iteration # 37     ecut=    90.00 Ry     beta= 0.40
     Davidson diagonalization with overlap

---- Real-time Memory Report at c_bands before calling an iterative solver
          2410 MiB given to the printing process from OS
          1499 MiB allocation reported by mallinfo(arena+hblkhd)
         57441 MiB available memory on the node where the printing process lives
     GPU memory used/free/total (MiB): 1906 / 14374 / 16280
------------------
     ethr =  7.96E-09,  avg # of iterations =  3.5

     negative rho (up, down):  2.870E-05 1.075E-03

     total cpu time spent up to now is      257.1 secs

     total energy              =    -988.07644276 Ry
     estimated scf accuracy    <       0.00003775 Ry

     total magnetization       =     3.52 Bohr mag/cell
     absolute magnetization    =     3.85 Bohr mag/cell
[tb_dev] Currently allocated     7.83E+00 Mbytes, locked:    0 /  16
[tb_pin] Currently allocated     0.00E+00 Mbytes, locked:    0 /   0

     iteration # 38     ecut=    90.00 Ry     beta= 0.40
     Davidson diagonalization with overlap

---- Real-time Memory Report at c_bands before calling an iterative solver
          2413 MiB given to the printing process from OS
          1503 MiB allocation reported by mallinfo(arena+hblkhd)
         57435 MiB available memory on the node where the printing process lives
     GPU memory used/free/total (MiB): 1906 / 14374 / 16280
------------------
     ethr =  7.96E-09,  avg # of iterations =  1.1

     negative rho (up, down):  3.119E-05 1.027E-03

     total cpu time spent up to now is      262.0 secs

     total energy              =    -988.07541765 Ry
     estimated scf accuracy    <       0.00004076 Ry

     total magnetization       =     3.52 Bohr mag/cell
     absolute magnetization    =     3.85 Bohr mag/cell
[tb_dev] Currently allocated     7.83E+00 Mbytes, locked:    0 /  16
[tb_pin] Currently allocated     0.00E+00 Mbytes, locked:    0 /   0

     iteration # 39     ecut=    90.00 Ry     beta= 0.40
     Davidson diagonalization with overlap

---- Real-time Memory Report at c_bands before calling an iterative solver
          2418 MiB given to the printing process from OS
          1507 MiB allocation reported by mallinfo(arena+hblkhd)
         57433 MiB available memory on the node where the printing process lives
     GPU memory used/free/total (MiB): 1906 / 14374 / 16280
------------------
     ethr =  7.96E-09,  avg # of iterations =  8.1

     negative rho (up, down):  3.303E-05 9.913E-04

     total cpu time spent up to now is      273.7 secs

     total energy              =    -988.07576863 Ry
     estimated scf accuracy    <       0.00003704 Ry

     total magnetization       =     3.74 Bohr mag/cell
     absolute magnetization    =     4.08 Bohr mag/cell
[tb_dev] Currently allocated     7.83E+00 Mbytes, locked:    0 /  16
[tb_pin] Currently allocated     0.00E+00 Mbytes, locked:    0 /   0

     iteration # 40     ecut=    90.00 Ry     beta= 0.40
     Davidson diagonalization with overlap

---- Real-time Memory Report at c_bands before calling an iterative solver
          2421 MiB given to the printing process from OS
          1511 MiB allocation reported by mallinfo(arena+hblkhd)
         57432 MiB available memory on the node where the printing process lives
     GPU memory used/free/total (MiB): 1906 / 14374 / 16280
------------------
     ethr =  7.96E-09,  avg # of iterations =  8.2

     negative rho (up, down):  3.021E-05 1.045E-03

     total cpu time spent up to now is      285.4 secs

     total energy              =    -988.07538578 Ry
     estimated scf accuracy    <       0.00024059 Ry

     total magnetization       =     3.88 Bohr mag/cell
     absolute magnetization    =     4.23 Bohr mag/cell
[tb_dev] Currently allocated     7.83E+00 Mbytes, locked:    0 /  16
[tb_pin] Currently allocated     0.00E+00 Mbytes, locked:    0 /   0

     iteration # 41     ecut=    90.00 Ry     beta= 0.40
     Davidson diagonalization with overlap

[...]
     estimated scf accuracy    <       0.00020047 Ry

     total magnetization       =     3.37 Bohr mag/cell
     absolute magnetization    =     3.69 Bohr mag/cell
[tb_dev] Currently allocated     7.83E+00 Mbytes, locked:    0 /  16
[tb_pin] Currently allocated     0.00E+00 Mbytes, locked:    0 /   0

     iteration # 66     ecut=    90.00 Ry     beta= 0.40
     Davidson diagonalization with overlap

---- Real-time Memory Report at c_bands before calling an iterative solver
          2536 MiB given to the printing process from OS
          1627 MiB allocation reported by mallinfo(arena+hblkhd)
         57322 MiB available memory on the node where the printing process lives
     GPU memory used/free/total (MiB): 1906 / 14374 / 16280
------------------
     ethr =  7.96E-09,  avg # of iterations =  8.4

     negative rho (up, down):  2.423E-05 1.160E-03

     total cpu time spent up to now is      552.6 secs

     total energy              =    -988.07717529 Ry
     estimated scf accuracy    <       0.00140882 Ry

     total magnetization       =     3.04 Bohr mag/cell
     absolute magnetization    =     3.36 Bohr mag/cell
[tb_dev] Currently allocated     7.83E+00 Mbytes, locked:    0 /  16
[tb_pin] Currently allocated     0.00E+00 Mbytes, locked:    0 /   0

     iteration # 67     ecut=    90.00 Ry     beta= 0.40
     Davidson diagonalization with overlap

---- Real-time Memory Report at c_bands before calling an iterative solver
          2540 MiB given to the printing process from OS
          1631 MiB allocation reported by mallinfo(arena+hblkhd)
         57319 MiB available memory on the node where the printing process lives
     GPU memory used/free/total (MiB): 1906 / 14374 / 16280
------------------
     ethr =  7.96E-09,  avg # of iterations =  1.4

     negative rho (up, down):  2.485E-05 1.148E-03

     total cpu time spent up to now is      557.6 secs

     total energy              =    -988.07692930 Ry
     estimated scf accuracy    <       0.00137043 Ry

     total magnetization       =     3.05 Bohr mag/cell
     absolute magnetization    =     3.37 Bohr mag/cell
[tb_dev] Currently allocated     7.83E+00 Mbytes, locked:    0 /  16
[tb_pin] Currently allocated     0.00E+00 Mbytes, locked:    0 /   0

     iteration # 68     ecut=    90.00 Ry     beta= 0.40
     Davidson diagonalization with overlap

---- Real-time Memory Report at c_bands before calling an iterative solver
          2544 MiB given to the printing process from OS
          1635 MiB allocation reported by mallinfo(arena+hblkhd)
         57314 MiB available memory on the node where the printing process lives
     GPU memory used/free/total (MiB): 1906 / 14374 / 16280
------------------
     ethr =  7.96E-09,  avg # of iterations =  5.2

     negative rho (up, down):  2.645E-05 1.117E-03

     total cpu time spent up to now is      565.9 secs

     total energy              =    -988.07621416 Ry
     estimated scf accuracy    <       0.00101734 Ry

     total magnetization       =     3.12 Bohr mag/cell
     absolute magnetization    =     3.44 Bohr mag/cell
[tb_dev] Currently allocated     7.83E+00 Mbytes, locked:    0 /  16
[tb_pin] Currently allocated     0.00E+00 Mbytes, locked:    0 /   0

     iteration # 69     ecut=    90.00 Ry     beta= 0.40
     Davidson diagonalization with overlap

---- Real-time Memory Report at c_bands before calling an iterative solver
          2549 MiB given to the printing process from OS
          1639 MiB allocation reported by mallinfo(arena+hblkhd)
         57305 MiB available memory on the node where the printing process lives
     GPU memory used/free/total (MiB): 1906 / 14374 / 16280
------------------
     ethr =  7.96E-09,  avg # of iterations =  7.7

     negative rho (up, down):  3.069E-05 1.036E-03

     total cpu time spent up to now is      577.1 secs

     total energy              =    -988.07342227 Ry
     estimated scf accuracy    <       0.00037581 Ry

     total magnetization       =     3.29 Bohr mag/cell
     absolute magnetization    =     3.61 Bohr mag/cell
[tb_dev] Currently allocated     7.83E+00 Mbytes, locked:    0 /  16
[tb_pin] Currently allocated     0.00E+00 Mbytes, locked:    0 /   0

     iteration # 70     ecut=    90.00 Ry     beta= 0.40
     Davidson diagonalization with overlap

---- Real-time Memory Report at c_bands before calling an iterative solver
          2553 MiB given to the printing process from OS
          1643 MiB allocation reported by mallinfo(arena+hblkhd)
         57301 MiB available memory on the node where the printing process lives
     GPU memory used/free/total (MiB): 1906 / 14374 / 16280
------------------
     ethr =  7.96E-09,  avg # of iterations =  9.4

     negative rho (up, down):  3.121E-05 1.026E-03

     total cpu time spent up to now is      590.8 secs

     total energy              =    -988.07630855 Ry
     estimated scf accuracy    <       0.00002174 Ry

     total magnetization       =     3.69 Bohr mag/cell
     absolute magnetization    =     4.03 Bohr mag/cell
[tb_dev] Currently allocated     7.83E+00 Mbytes, locked:    0 /  16
[tb_pin] Currently allocated     0.00E+00 Mbytes, locked:    0 /   0

     iteration # 71     ecut=    90.00 Ry     beta= 0.40
     Davidson diagonalization with overlap

---- Real-time Memory Report at c_bands before calling an iterative solver
          2557 MiB given to the printing process from OS
          1647 MiB allocation reported by mallinfo(arena+hblkhd)
         57294 MiB available memory on the node where the printing process lives
     GPU memory used/free/total (MiB): 1906 / 14374 / 16280
------------------
     ethr =  7.96E-09,  avg # of iterations =  5.2

     negative rho (up, down):  3.185E-05 1.014E-03

     total cpu time spent up to now is      599.1 secs

     total energy              =    -988.07625679 Ry
     estimated scf accuracy    <       0.00003408 Ry

     total magnetization       =     3.74 Bohr mag/cell
     absolute magnetization    =     4.08 Bohr mag/cell
[tb_dev] Currently allocated     7.83E+00 Mbytes, locked:    0 /  16
[tb_pin] Currently allocated     0.00E+00 Mbytes, locked:    0 /   0

     iteration # 72     ecut=    90.00 Ry     beta= 0.40
     Davidson diagonalization with overlap

---- Real-time Memory Report at c_bands before calling an iterative solver
          2561 MiB given to the printing process from OS
          1651 MiB allocation reported by mallinfo(arena+hblkhd)
         57292 MiB available memory on the node where the printing process lives
     GPU memory used/free/total (MiB): 1906 / 14374 / 16280
------------------
     ethr =  7.96E-09,  avg # of iterations =  5.5

     negative rho (up, down):  3.214E-05 1.008E-03

     total cpu time spent up to now is      607.8 secs

     total energy              =    -988.07627782 Ry
     estimated scf accuracy    <       0.00006940 Ry

     total magnetization       =     3.79 Bohr mag/cell
     absolute magnetization    =     4.13 Bohr mag/cell
[tb_dev] Currently allocated     7.83E+00 Mbytes, locked:    0 /  16
[tb_pin] Currently allocated     0.00E+00 Mbytes, locked:    0 /   0

     iteration # 73     ecut=    90.00 Ry     beta= 0.40
     Davidson diagonalization with overlap

---- Real-time Memory Report at c_bands before calling an iterative solver
          2567 MiB given to the printing process from OS
          1655 MiB allocation reported by mallinfo(arena+hblkhd)
         57291 MiB available memory on the node where the printing process lives
     GPU memory used/free/total (MiB): 1906 / 14374 / 16280
------------------
     ethr =  7.96E-09,  avg # of iterations =  4.6

     negative rho (up, down):  3.119E-05 1.027E-03

     total cpu time spent up to now is      615.5 secs

     total energy              =    -988.07623397 Ry
     estimated scf accuracy    <       0.00009471 Ry

     total magnetization       =     3.81 Bohr mag/cell
     absolute magnetization    =     4.16 Bohr mag/cell
[tb_dev] Currently allocated     7.83E+00 Mbytes, locked:    0 /  16
[tb_pin] Currently allocated     0.00E+00 Mbytes, locked:    0 /   0

     iteration # 74     ecut=    90.00 Ry     beta= 0.40
     Davidson diagonalization with overlap

---- Real-time Memory Report at c_bands before calling an iterative solver
          2570 MiB given to the printing process from OS
          1659 MiB allocation reported by mallinfo(arena+hblkhd)
         57285 MiB available memory on the node where the printing process lives
     GPU memory used/free/total (MiB): 1906 / 14374 / 16280
------------------
     ethr =  7.96E-09,  avg # of iterations =  6.0

     negative rho (up, down):  3.164E-05 1.018E-03

     total cpu time spent up to now is      624.7 secs

     total energy              =    -988.07629793 Ry
     estimated scf accuracy    <       0.00003286 Ry

     total magnetization       =     3.73 Bohr mag/cell
     absolute magnetization    =     4.08 Bohr mag/cell
[tb_dev] Currently allocated     7.83E+00 Mbytes, locked:    0 /  16
[tb_pin] Currently allocated     0.00E+00 Mbytes, locked:    0 /   0

     iteration # 75     ecut=    90.00 Ry     beta= 0.40
     Davidson diagonalization with overlap

---- Real-time Memory Report at c_bands before calling an iterative solver
          2574 MiB given to the printing process from OS
          1663 MiB allocation reported by mallinfo(arena+hblkhd)
         57283 MiB available memory on the node where the printing process lives
     GPU memory used/free/total (MiB): 1906 / 14374 / 16280
------------------
     ethr =  7.96E-09,  avg # of iterations =  4.7

     negative rho (up, down):  3.280E-05 9.958E-04

     total cpu time spent up to now is      632.6 secs

     total energy              =    -988.07605868 Ry
     estimated scf accuracy    <       0.00005399 Ry

     total magnetization       =     3.77 Bohr mag/cell
     absolute magnetization    =     4.12 Bohr mag/cell
[tb_dev] Currently allocated     7.83E+00 Mbytes, locked:    0 /  16
[tb_pin] Currently allocated     0.00E+00 Mbytes, locked:    0 /   0

     iteration # 76     ecut=    90.00 Ry     beta= 0.40
     Davidson diagonalization with overlap

---- Real-time Memory Report at c_bands before calling an iterative solver
          2580 MiB given to the printing process from OS
          1670 MiB allocation reported by mallinfo(arena+hblkhd)
         57271 MiB available memory on the node where the printing process lives
     GPU memory used/free/total (MiB): 1906 / 14374 / 16280
------------------
     ethr =  7.96E-09,  avg # of iterations =  7.0

     negative rho (up, down):  3.642E-05 9.265E-04

     total cpu time spent up to now is      642.9 secs

     total energy              =    -988.07395344 Ry
     estimated scf accuracy    <       0.00018318 Ry

     total magnetization       =     3.86 Bohr mag/cell
     absolute magnetization    =     4.21 Bohr mag/cell
[tb_dev] Currently allocated     7.83E+00 Mbytes, locked:    0 /  16
[tb_pin] Currently allocated     0.00E+00 Mbytes, locked:    0 /   0

     iteration # 77     ecut=    90.00 Ry     beta= 0.40
     Davidson diagonalization with overlap

---- Real-time Memory Report at c_bands before calling an iterative solver
          2584 MiB given to the printing process from OS
          1674 MiB allocation reported by mallinfo(arena+hblkhd)
         57270 MiB available memory on the node where the printing process lives
     GPU memory used/free/total (MiB): 1906 / 14374 / 16280
------------------
     ethr =  7.96E-09,  avg # of iterations =  8.8

     negative rho (up, down):  3.267E-05 9.984E-04

     total cpu time spent up to now is      655.7 secs

     total energy              =    -988.07472559 Ry
     estimated scf accuracy    <       0.00173377 Ry

     total magnetization       =     4.10 Bohr mag/cell
     absolute magnetization    =     4.49 Bohr mag/cell
[tb_dev] Currently allocated     7.83E+00 Mbytes, locked:    0 /  16
[tb_pin] Currently allocated     0.00E+00 Mbytes, locked:    0 /   0

     iteration # 78     ecut=    90.00 Ry     beta= 0.40
     Davidson diagonalization with overlap

---- Real-time Memory Report at c_bands before calling an iterative solver
          2588 MiB given to the printing process from OS
          1675 MiB allocation reported by mallinfo(arena+hblkhd)
         57272 MiB available memory on the node where the printing process lives
     GPU memory used/free/total (MiB): 1906 / 14374 / 16280
------------------
     ethr =  7.96E-09,  avg # of iterations =  8.9

     negative rho (up, down):  2.981E-05 1.053E-03

     total cpu time spent up to now is      668.4 secs

     total energy              =    -988.07535308 Ry
     estimated scf accuracy    <       0.00015841 Ry

     total magnetization       =     3.85 Bohr mag/cell
     absolute magnetization    =     4.20 Bohr mag/cell
[tb_dev] Currently allocated     7.83E+00 Mbytes, locked:    0 /  16
[tb_pin] Currently allocated     0.00E+00 Mbytes, locked:    0 /   0

     iteration # 79     ecut=    90.00 Ry     beta= 0.40
     Davidson diagonalization with overlap

---- Real-time Memory Report at c_bands before calling an iterative solver
          2593 MiB given to the printing process from OS
          1682 MiB allocation reported by mallinfo(arena+hblkhd)
         57261 MiB available memory on the node where the printing process lives
     GPU memory used/free/total (MiB): 1906 / 14374 / 16280
------------------
     ethr =  7.96E-09,  avg # of iterations =  8.6

     negative rho (up, down):  2.921E-05 1.065E-03

     total cpu time spent up to now is      680.8 secs

     total energy              =    -988.07636773 Ry
     estimated scf accuracy    <       0.00001778 Ry

     total magnetization       =     3.62 Bohr mag/cell
     absolute magnetization    =     3.95 Bohr mag/cell
[tb_dev] Currently allocated     7.83E+00 Mbytes, locked:    0 /  16
[tb_pin] Currently allocated     0.00E+00 Mbytes, locked:    0 /   0

     iteration # 80     ecut=    90.00 Ry     beta= 0.40
     Davidson diagonalization with overlap

---- Real-time Memory Report at c_bands before calling an iterative solver
          2597 MiB given to the printing process from OS
          1686 MiB allocation reported by mallinfo(arena+hblkhd)
         57260 MiB available memory on the node where the printing process lives
     GPU memory used/free/total (MiB): 1906 / 14374 / 16280
------------------
     ethr =  7.96E-09,  avg # of iterations =  5.4

     negative rho (up, down):  2.920E-05 1.065E-03

     total cpu time spent up to now is      689.3 secs

     total energy              =    -988.07642067 Ry
     estimated scf accuracy    <       0.00002466 Ry

     total magnetization       =     3.56 Bohr mag/cell
     absolute magnetization    =     3.89 Bohr mag/cell

     End of self-consistent calculation

     convergence NOT achieved after  80 iterations: stopping

     Writing config to output data dir ./out/aiida.save/
 
     init_run     :     27.82s CPU      7.22s WALL (       1 calls)
     electrons    :   1386.33s CPU    681.67s WALL (       1 calls)

     Called by init_run:
     wfcinit      :      2.54s CPU      3.58s WALL (       1 calls)
                                        3.58s GPU  (       1 calls)
     wfcinit:atom :      0.05s CPU      0.08s WALL (     168 calls)
                                        0.08s GPU  (     168 calls)
     wfcinit:wfcr :      1.53s CPU      2.17s WALL (     168 calls)
                                        2.17s GPU  (     168 calls)
     potinit      :     12.16s CPU      1.15s WALL (       1 calls)
     hinit0       :      7.63s CPU      1.63s WALL (       1 calls)

     Called by electrons:
     c_bands      :    576.01s CPU    546.81s WALL (      80 calls)
     sum_band     :     59.60s CPU     65.89s WALL (      80 calls)
     v_of_rho     :     48.25s CPU      4.37s WALL (      81 calls)
     v_h          :      8.78s CPU      0.80s WALL (      81 calls)
     v_xc         :     39.46s CPU      3.58s WALL (      81 calls)
     newd         :     66.11s CPU      6.41s WALL (      81 calls)
                                        6.41s GPU  (      81 calls)
     PAW_pot      :    603.03s CPU     54.68s WALL (      81 calls)
     mix_rho      :     26.42s CPU      2.63s WALL (      80 calls)

     Called by c_bands:
     init_us_2    :     28.19s CPU     28.65s WALL (   27048 calls)
     init_us_2:gp :     27.71s CPU     28.21s WALL (   27048 calls)
     cegterg      :    524.20s CPU    503.97s WALL (   13440 calls)

     Called by sum_band:
     sum_band:wei :      0.49s CPU      0.50s WALL (      80 calls)
                                        0.50s GPU  (      80 calls)
     sum_band:loo :     48.89s CPU     54.96s WALL (      80 calls)
                                       54.96s GPU  (      80 calls)
     sum_band:buf :     10.59s CPU     11.97s WALL (   13440 calls)
                                       11.89s GPU  (   13440 calls)
     sum_band:ini :     12.38s CPU     14.18s WALL (   13440 calls)
                                       14.10s GPU  (   13440 calls)
     sum_band:cal :      0.35s CPU      2.31s WALL (   13440 calls)
                                        2.06s GPU  (   13440 calls)
     sum_band:bec :      2.16s CPU      2.59s WALL (   13440 calls)
                                        2.50s GPU  (   13440 calls)
     addusdens    :      7.68s CPU      7.87s WALL (      80 calls)
                                        7.87s GPU  (      80 calls)
     addusd:skk   :      0.02s CPU      0.02s WALL (     240 calls)
                                        0.02s GPU  (     240 calls)

     Called by *egterg:
     cdiaghg      :    232.53s CPU    237.18s WALL (   81633 calls)
                                      236.64s GPU  (   81633 calls)
     cegterg:over :     13.78s CPU     12.89s WALL (   68193 calls)
     cegterg:upda :     24.54s CPU     23.34s WALL (   68193 calls)
     cegterg:last :      7.96s CPU      7.72s WALL (   39243 calls)
     h_psi        :    207.87s CPU    190.17s WALL (   81801 calls)
                                      189.67s GPU  (   81801 calls)
     s_psi        :      7.68s CPU     11.95s WALL (   81801 calls)
                                       11.08s GPU  (   81801 calls)
     g_psi        :      0.52s CPU      1.78s WALL (   68193 calls)
                                        1.34s GPU  (   68193 calls)

     Called by h_psi:
     h_psi:calbec :      2.99s CPU     10.54s WALL (   81801 calls)
                                       10.03s GPU  (   81801 calls)
     vloc_psi     :    175.47s CPU    161.52s WALL (   81801 calls)
                                      161.00s GPU  (   81801 calls)
     add_vuspsi   :      9.82s CPU     12.65s WALL (   81801 calls)
                                       12.15s GPU  (   81801 calls)

     General routines
     calbec       :      2.43s CPU      2.29s WALL (   95241 calls)
     fft          :      2.76s CPU      0.64s WALL (    2023 calls)
                                        0.51s GPU  (    1861 calls)
     ffts         :      0.10s CPU      0.04s WALL (     322 calls)
                                        0.01s GPU  (     160 calls)
     fftw         :      7.39s CPU    113.13s WALL (  343184 calls)
                                      111.24s GPU  (  343184 calls)
     interpolate  :      5.38s CPU      0.48s WALL (     162 calls)
     davcio       :      0.05s CPU     11.05s WALL (     186 calls)
 
     Parallel routines

     PAW routines
     PAW_pot      :    603.03s CPU     54.68s WALL (      81 calls)
     PAW_symme    :      1.45s CPU      0.24s WALL (     161 calls)
 
     PWSCF        :  23m37.05s CPU  12m16.88s WALL

 
   This run was terminated on:  17:55:42  23Oct2023            

=------------------------------------------------------------------------------=
   JOB DONE.
=------------------------------------------------------------------------------=
