
     Program PWSCF v.7.2 starts on 23Oct2023 at 21: 8:54 

     This program is part of the open-source Quantum ESPRESSO suite
     for quantum simulation of materials; please cite
         "P. Giannozzi et al., J. Phys.:Condens. Matter 21 395502 (2009);
         "P. Giannozzi et al., J. Phys.:Condens. Matter 29 465901 (2017);
         "P. Giannozzi et al., J. Chem. Phys. 152 154105 (2020);
          URL http://www.quantum-espresso.org", 
     in publications or presentations arising from this work. More details at
     http://www.quantum-espresso.org/quote

     Parallel version (MPI & OpenMP), running on      12 processor cores
     Number of MPI processes:                 1
     Threads/MPI process:                    12

     MPI processes distributed on     1 nodes
     60416 MiB available memory on the printing compute node when the environment starts
 
     Reading input from aiida.in

     Current dimensions of program PWSCF are:
     Max number of different atomic species (ntypx) = 10
     Max number of k-points (npk) =  40000
     Max angular momentum in pseudopotentials (lmaxx) =  4
     file Fe.pbesol-spn-kjpaw_psl.0.2.1.UPF: wavefunction(s)  3D renormalized
     Message from routine setup:
     using ibrav=0 with symmetry is DISCOURAGED, use correct ibrav instead
 
     Subspace diagonalization in iterative solution of the eigenvalue problem:
     a serial algorithm will be used

 
     G-vector sticks info
     --------------------
     sticks:   dense  smooth     PW     G-vecs:    dense   smooth      PW
     Sum       14995    4999   1367              1069233   205703   29427
 
     Using Slab Decomposition
 


     bravais-lattice index     =            0
     lattice parameter (alat)  =      13.3004  a.u.
     unit-cell volume          =    1783.7079 (a.u.)^3
     number of atoms/cell      =           12
     number of atomic types    =            3
     number of electrons       =       126.00
     number of Kohn-Sham states=           76
     kinetic-energy cutoff     =      90.0000  Ry
     charge density cutoff     =    1080.0000  Ry
     scf convergence threshold =      2.4E-09
     mixing beta               =       0.1000
     number of iterations used =            8  plain     mixing
     Exchange-correlation= SLA  PW   PSX  PSC
                           (   1   4  10   8   0   0   0)

     GPU acceleration is ACTIVE.


     GPU used by master process:

        Device Number: 0
        Device name: Tesla P100-PCIE-16GB
        Compute capability : 60
        Ratio of single to double precision performance  : 2
        Memory Clock Rate (KHz): 715000
        Memory Bus Width (bits): 4096
        Peak Memory Bandwidth (GB/s): 732.16

     celldm(1)=  13.300417  celldm(2)=   0.000000  celldm(3)=   0.000000
     celldm(4)=   0.000000  celldm(5)=   0.000000  celldm(6)=   0.000000

     crystal axes: (cart. coord. in units of alat)
               a(1) = (   0.645257  -0.763965   0.000000 )  
               a(2) = (   0.645257   0.763965   0.000000 )  
               a(3) = (   0.000000   0.000000   0.768938 )  

     reciprocal axes: (cart. coord. in units 2 pi/alat)
               b(1) = (  0.774885 -0.654480  0.000000 )  
               b(2) = (  0.774885  0.654480 -0.000000 )  
               b(3) = ( -0.000000  0.000000  1.300495 )  


     PseudoPot. # 1 for Fe read from file:
     ./pseudo/Fe.pbesol-spn-kjpaw_psl.0.2.1.UPF
     MD5 check sum: 4d7ec5aa2156491519a4322664fbbf52
     Pseudo is Projector augmented-wave + core cor, Zval = 16.0
     Generated using "atomic" code by A. Dal Corso  v.6.0 svn rev. 13079
     Shape of augmentation charge: PSQ
     Using radial grid of 1191 points,  6 beta functions with: 
                l(1) =   0
                l(2) =   0
                l(3) =   1
                l(4) =   1
                l(5) =   2
                l(6) =   2
     Q(r) pseudized with 0 coefficients 


     PseudoPot. # 2 for S  read from file:
     ./pseudo/s_pbesol_v1.4.uspp.F.UPF
     MD5 check sum: 0ccfa86ec6eb59065d10aaae963ef2a7
     Pseudo is Ultrasoft + core correction, Zval =  6.0
     Generated by new atomic code, or converted to UPF format
     Using radial grid of  907 points,  6 beta functions with: 
                l(1) =   0
                l(2) =   0
                l(3) =   1
                l(4) =   1
                l(5) =   2
                l(6) =   2
     Q(r) pseudized with  8 coefficients,  rinner =    1.300   1.300   1.300
                                                       1.300   1.300

     PseudoPot. # 3 for Tl read from file:
     ./pseudo/tl_pbesol_v1.2.uspp.F.UPF
     MD5 check sum: ce331abb17083e2469b5604a64700343
     Pseudo is Ultrasoft + core correction, Zval = 13.0
     Generated by new atomic code, or converted to UPF format
     Using radial grid of  899 points,  6 beta functions with: 
                l(1) =   0
                l(2) =   0
                l(3) =   1
                l(4) =   1
                l(5) =   2
                l(6) =   2
     Q(r) pseudized with  6 coefficients,  rinner =    1.100   1.100   1.100
                                                       1.100   1.100

     atomic species   valence    mass     pseudopotential
        Fe            16.00    55.84500     Fe( 1.00)
        S              6.00    32.06500     S ( 1.00)
        Tl            13.00   204.38330     Tl( 1.00)

     Starting magnetic structure 
     atomic species   magnetization
        Fe           0.313
        S            0.100
        Tl           0.100

      8 Sym. Ops., with inversion, found ( 4 have fractional translation)


                                    s                        frac. trans.

      isym =  1     identity                                     

 cryst.   s( 1) = (     1          0          0      )
                  (     0          1          0      )
                  (     0          0          1      )

 cart.    s( 1) = (  1.0000000  0.0000000  0.0000000 )
                  (  0.0000000  1.0000000  0.0000000 )
                  (  0.0000000  0.0000000  1.0000000 )


      isym =  2     180 deg rotation - cart. axis [0,0,1]        

 cryst.   s( 2) = (    -1          0          0      )    f =(  0.0000000 )
                  (     0         -1          0      )       (  0.0000000 )
                  (     0          0          1      )       ( -0.5000000 )

 cart.    s( 2) = ( -1.0000000 -0.0000000  0.0000000 )    f =(  0.0000000 )
                  ( -0.0000000 -1.0000000  0.0000000 )       ( -0.0000000 )
                  (  0.0000000  0.0000000  1.0000000 )       ( -0.3844691 )


      isym =  3     180 deg rotation - cart. axis [0,1,0]        

 cryst.   s( 3) = (     0         -1          0      )    f =(  0.0000000 )
                  (    -1          0          0      )       (  0.0000000 )
                  (     0          0         -1      )       ( -0.5000000 )

 cart.    s( 3) = ( -1.0000000  0.0000000  0.0000000 )    f =(  0.0000000 )
                  ( -0.0000000  1.0000000  0.0000000 )       (  0.0000000 )
                  (  0.0000000  0.0000000 -1.0000000 )       ( -0.3844691 )


      isym =  4     180 deg rotation - cart. axis [1,0,0]        

 cryst.   s( 4) = (     0          1          0      )
                  (     1          0          0      )
                  (     0          0         -1      )

 cart.    s( 4) = (  1.0000000 -0.0000000  0.0000000 )
                  (  0.0000000 -1.0000000  0.0000000 )
                  (  0.0000000  0.0000000 -1.0000000 )


      isym =  5     inversion                                    

 cryst.   s( 5) = (    -1          0          0      )
                  (     0         -1          0      )
                  (     0          0         -1      )

 cart.    s( 5) = ( -1.0000000 -0.0000000  0.0000000 )
                  ( -0.0000000 -1.0000000  0.0000000 )
                  (  0.0000000  0.0000000 -1.0000000 )


      isym =  6     inv. 180 deg rotation - cart. axis [0,0,1]   

 cryst.   s( 6) = (     1          0          0      )    f =(  0.0000000 )
                  (     0          1          0      )       (  0.0000000 )
                  (     0          0         -1      )       ( -0.5000000 )

 cart.    s( 6) = (  1.0000000  0.0000000  0.0000000 )    f =(  0.0000000 )
                  (  0.0000000  1.0000000  0.0000000 )       (  0.0000000 )
                  (  0.0000000  0.0000000 -1.0000000 )       ( -0.3844691 )


      isym =  7     inv. 180 deg rotation - cart. axis [0,1,0]   

 cryst.   s( 7) = (     0          1          0      )    f =(  0.0000000 )
                  (     1          0          0      )       ( -0.0000000 )
                  (     0          0          1      )       ( -0.5000000 )

 cart.    s( 7) = (  1.0000000 -0.0000000  0.0000000 )    f =(  0.0000000 )
                  (  0.0000000 -1.0000000  0.0000000 )       ( -0.0000000 )
                  (  0.0000000  0.0000000  1.0000000 )       ( -0.3844691 )


      isym =  8     inv. 180 deg rotation - cart. axis [1,0,0]   

 cryst.   s( 8) = (     0         -1          0      )
                  (    -1          0          0      )
                  (     0          0          1      )

 cart.    s( 8) = ( -1.0000000  0.0000000  0.0000000 )
                  ( -0.0000000  1.0000000  0.0000000 )
                  (  0.0000000  0.0000000  1.0000000 )


   Cartesian axes

     site n.     atom                  positions (alat units)
         1           Tl  tau(   1) = (   0.6452573   1.2820866   0.1922345  )
         2           Tl  tau(   2) = (   0.6452573   0.2458440   0.5767036  )
         3           Fe  tau(   3) = (   1.0992603   0.0000000   0.3844691  )
         4           Fe  tau(   4) = (   1.0992603   0.0000000   0.0000000  )
         5           Fe  tau(   5) = (   0.1912543  -0.0000000   0.3844691  )
         6           Fe  tau(   6) = (   0.1912543  -0.0000000   0.0000000  )
         7           S   tau(   7) = (   0.6452573   0.5787801   0.1922345  )
         8           S   tau(   8) = (   0.6452573   0.9491505   0.5767036  )
         9           S   tau(   9) = (   0.3625056   0.1792263   0.1922345  )
        10           S   tau(  10) = (   0.3625056   1.3487044   0.5767036  )
        11           S   tau(  11) = (   0.9280091   0.1792263   0.1922345  )
        12           S   tau(  12) = (   0.9280091   1.3487044   0.5767036  )

   Crystallographic axes

     site n.     atom                  positions (cryst. coord.)
         1           Tl  tau(   1) = ( -0.3391000  1.3391000  0.2500000  )
         2           Tl  tau(   2) = (  0.3391000  0.6609000  0.7500000  )
         3           Fe  tau(   3) = (  0.8518000  0.8518000  0.5000000  )
         4           Fe  tau(   4) = (  0.8518000  0.8518000  0.0000000  )
         5           Fe  tau(   5) = (  0.1482000  0.1482000  0.5000000  )
         6           Fe  tau(   6) = (  0.1482000  0.1482000  0.0000000  )
         7           S   tau(   7) = (  0.1212000  0.8788000  0.2500000  )
         8           S   tau(   8) = ( -0.1212000  1.1212000  0.7500000  )
         9           S   tau(   9) = (  0.1636000  0.3982000  0.2500000  )
        10           S   tau(  10) = ( -0.6018000  1.1636000  0.7500000  )
        11           S   tau(  11) = (  0.6018000  0.8364000  0.2500000  )
        12           S   tau(  12) = ( -0.1636000  1.6018000  0.7500000  )

     number of k points=    80  Marzari-Vanderbilt smearing, width (Ry)=  0.0100
                       cart. coord. in units 2pi/alat
        k(    1) = (   0.0000000   0.0000000   0.0000000), wk =   0.0025510
        k(    2) = (   0.0000000   0.0000000   0.1625618), wk =   0.0051020
        k(    3) = (   0.0000000   0.0000000   0.3251237), wk =   0.0051020
        k(    4) = (   0.0000000   0.0000000   0.4876855), wk =   0.0051020
        k(    5) = (   0.0000000   0.0000000  -0.6502474), wk =   0.0025510
        k(    6) = (   0.1106978   0.0934971   0.0000000), wk =   0.0102041
        k(    7) = (   0.1106978   0.0934971   0.1625618), wk =   0.0204082
        k(    8) = (   0.1106978   0.0934971   0.3251237), wk =   0.0204082
        k(    9) = (   0.1106978   0.0934971   0.4876855), wk =   0.0204082
        k(   10) = (   0.1106978   0.0934971  -0.6502474), wk =   0.0102041
        k(   11) = (   0.2213956   0.1869943   0.0000000), wk =   0.0102041
        k(   12) = (   0.2213956   0.1869943   0.1625618), wk =   0.0204082
        k(   13) = (   0.2213956   0.1869943   0.3251237), wk =   0.0204082
        k(   14) = (   0.2213956   0.1869943   0.4876855), wk =   0.0204082
        k(   15) = (   0.2213956   0.1869943  -0.6502474), wk =   0.0102041
        k(   16) = (   0.3320934   0.2804914   0.0000000), wk =   0.0102041
        k(   17) = (   0.3320934   0.2804914   0.1625618), wk =   0.0204082
        k(   18) = (   0.3320934   0.2804914   0.3251237), wk =   0.0204082
        k(   19) = (   0.3320934   0.2804914   0.4876855), wk =   0.0204082
        k(   20) = (   0.3320934   0.2804914  -0.6502474), wk =   0.0102041
        k(   21) = (   0.2213956   0.0000000   0.0000000), wk =   0.0051020
        k(   22) = (   0.2213956   0.0000000   0.1625618), wk =   0.0102041
        k(   23) = (   0.2213956   0.0000000   0.3251237), wk =   0.0102041
        k(   24) = (   0.2213956   0.0000000   0.4876855), wk =   0.0102041
        k(   25) = (   0.2213956   0.0000000  -0.6502474), wk =   0.0051020
        k(   26) = (   0.3320934   0.0934971   0.0000000), wk =   0.0102041
        k(   27) = (   0.3320934   0.0934971   0.1625618), wk =   0.0204082
        k(   28) = (   0.3320934   0.0934971   0.3251237), wk =   0.0204082
        k(   29) = (   0.3320934   0.0934971   0.4876855), wk =   0.0204082
        k(   30) = (   0.3320934   0.0934971  -0.6502474), wk =   0.0102041
        k(   31) = (   0.4427912   0.1869943   0.0000000), wk =   0.0102041
        k(   32) = (   0.4427912   0.1869943   0.1625618), wk =   0.0204082
        k(   33) = (   0.4427912   0.1869943   0.3251237), wk =   0.0204082
        k(   34) = (   0.4427912   0.1869943   0.4876855), wk =   0.0204082
        k(   35) = (   0.4427912   0.1869943  -0.6502474), wk =   0.0102041
        k(   36) = (  -0.2213956  -0.3739886   0.0000000), wk =   0.0102041
        k(   37) = (  -0.2213956  -0.3739886   0.1625618), wk =   0.0204082
        k(   38) = (  -0.2213956  -0.3739886   0.3251237), wk =   0.0204082
        k(   39) = (  -0.2213956  -0.3739886   0.4876855), wk =   0.0204082
        k(   40) = (  -0.2213956  -0.3739886  -0.6502474), wk =   0.0102041
        k(   41) = (  -0.1106978  -0.2804914   0.0000000), wk =   0.0102041
        k(   42) = (  -0.1106978  -0.2804914   0.1625618), wk =   0.0204082
        k(   43) = (  -0.1106978  -0.2804914   0.3251237), wk =   0.0204082
        k(   44) = (  -0.1106978  -0.2804914   0.4876855), wk =   0.0204082
        k(   45) = (  -0.1106978  -0.2804914  -0.6502474), wk =   0.0102041
        k(   46) = (  -0.0000000  -0.1869943   0.0000000), wk =   0.0051020
        k(   47) = (  -0.0000000  -0.1869943   0.1625618), wk =   0.0102041
        k(   48) = (  -0.0000000  -0.1869943   0.3251237), wk =   0.0102041
        k(   49) = (  -0.0000000  -0.1869943   0.4876855), wk =   0.0102041
        k(   50) = (  -0.0000000  -0.1869943  -0.6502474), wk =   0.0051020
        k(   51) = (   0.4427912   0.0000000   0.0000000), wk =   0.0051020
        k(   52) = (   0.4427912   0.0000000   0.1625618), wk =   0.0102041
        k(   53) = (   0.4427912   0.0000000   0.3251237), wk =   0.0102041
        k(   54) = (   0.4427912   0.0000000   0.4876855), wk =   0.0102041
        k(   55) = (   0.4427912   0.0000000  -0.6502474), wk =   0.0051020
        k(   56) = (   0.5534891   0.0934971   0.0000000), wk =   0.0102041
        k(   57) = (   0.5534891   0.0934971   0.1625618), wk =   0.0204082
        k(   58) = (   0.5534891   0.0934971   0.3251237), wk =   0.0204082
        k(   59) = (   0.5534891   0.0934971   0.4876855), wk =   0.0204082
        k(   60) = (   0.5534891   0.0934971  -0.6502474), wk =   0.0102041
        k(   61) = (  -0.1106978  -0.4674857   0.0000000), wk =   0.0102041
        k(   62) = (  -0.1106978  -0.4674857   0.1625618), wk =   0.0204082
        k(   63) = (  -0.1106978  -0.4674857   0.3251237), wk =   0.0204082
        k(   64) = (  -0.1106978  -0.4674857   0.4876855), wk =   0.0204082
        k(   65) = (  -0.1106978  -0.4674857  -0.6502474), wk =   0.0102041
        k(   66) = (  -0.0000000  -0.3739886   0.0000000), wk =   0.0051020
        k(   67) = (  -0.0000000  -0.3739886   0.1625618), wk =   0.0102041
        k(   68) = (  -0.0000000  -0.3739886   0.3251237), wk =   0.0102041
        k(   69) = (  -0.0000000  -0.3739886   0.4876855), wk =   0.0102041
        k(   70) = (  -0.0000000  -0.3739886  -0.6502474), wk =   0.0051020
        k(   71) = (   0.6641869   0.0000000   0.0000000), wk =   0.0051020
        k(   72) = (   0.6641869   0.0000000   0.1625618), wk =   0.0102041
        k(   73) = (   0.6641869   0.0000000   0.3251237), wk =   0.0102041
        k(   74) = (   0.6641869   0.0000000   0.4876855), wk =   0.0102041
        k(   75) = (   0.6641869   0.0000000  -0.6502474), wk =   0.0051020
        k(   76) = (  -0.0000000  -0.5609828   0.0000000), wk =   0.0051020
        k(   77) = (  -0.0000000  -0.5609828   0.1625618), wk =   0.0102041
        k(   78) = (  -0.0000000  -0.5609828   0.3251237), wk =   0.0102041
        k(   79) = (  -0.0000000  -0.5609828   0.4876855), wk =   0.0102041
        k(   80) = (  -0.0000000  -0.5609828  -0.6502474), wk =   0.0051020

                       cryst. coord.
        k(    1) = (   0.0000000   0.0000000   0.0000000), wk =   0.0025510
        k(    2) = (   0.0000000   0.0000000   0.1250000), wk =   0.0051020
        k(    3) = (   0.0000000   0.0000000   0.2500000), wk =   0.0051020
        k(    4) = (   0.0000000   0.0000000   0.3750000), wk =   0.0051020
        k(    5) = (   0.0000000   0.0000000  -0.5000000), wk =   0.0025510
        k(    6) = (   0.0000000   0.1428571   0.0000000), wk =   0.0102041
        k(    7) = (   0.0000000   0.1428571   0.1250000), wk =   0.0204082
        k(    8) = (   0.0000000   0.1428571   0.2500000), wk =   0.0204082
        k(    9) = (   0.0000000   0.1428571   0.3750000), wk =   0.0204082
        k(   10) = (   0.0000000   0.1428571  -0.5000000), wk =   0.0102041
        k(   11) = (   0.0000000   0.2857143   0.0000000), wk =   0.0102041
        k(   12) = (   0.0000000   0.2857143   0.1250000), wk =   0.0204082
        k(   13) = (   0.0000000   0.2857143   0.2500000), wk =   0.0204082
        k(   14) = (   0.0000000   0.2857143   0.3750000), wk =   0.0204082
        k(   15) = (   0.0000000   0.2857143  -0.5000000), wk =   0.0102041
        k(   16) = (  -0.0000000   0.4285714   0.0000000), wk =   0.0102041
        k(   17) = (  -0.0000000   0.4285714   0.1250000), wk =   0.0204082
        k(   18) = (  -0.0000000   0.4285714   0.2500000), wk =   0.0204082
        k(   19) = (  -0.0000000   0.4285714   0.3750000), wk =   0.0204082
        k(   20) = (  -0.0000000   0.4285714  -0.5000000), wk =   0.0102041
        k(   21) = (   0.1428571   0.1428571   0.0000000), wk =   0.0051020
        k(   22) = (   0.1428571   0.1428571   0.1250000), wk =   0.0102041
        k(   23) = (   0.1428571   0.1428571   0.2500000), wk =   0.0102041
        k(   24) = (   0.1428571   0.1428571   0.3750000), wk =   0.0102041
        k(   25) = (   0.1428571   0.1428571  -0.5000000), wk =   0.0051020
        k(   26) = (   0.1428571   0.2857143   0.0000000), wk =   0.0102041
        k(   27) = (   0.1428571   0.2857143   0.1250000), wk =   0.0204082
        k(   28) = (   0.1428571   0.2857143   0.2500000), wk =   0.0204082
        k(   29) = (   0.1428571   0.2857143   0.3750000), wk =   0.0204082
        k(   30) = (   0.1428571   0.2857143  -0.5000000), wk =   0.0102041
        k(   31) = (   0.1428571   0.4285714   0.0000000), wk =   0.0102041
        k(   32) = (   0.1428571   0.4285714   0.1250000), wk =   0.0204082
        k(   33) = (   0.1428571   0.4285714   0.2500000), wk =   0.0204082
        k(   34) = (   0.1428571   0.4285714   0.3750000), wk =   0.0204082
        k(   35) = (   0.1428571   0.4285714  -0.5000000), wk =   0.0102041
        k(   36) = (   0.1428571  -0.4285714   0.0000000), wk =   0.0102041
        k(   37) = (   0.1428571  -0.4285714   0.1250000), wk =   0.0204082
        k(   38) = (   0.1428571  -0.4285714   0.2500000), wk =   0.0204082
        k(   39) = (   0.1428571  -0.4285714   0.3750000), wk =   0.0204082
        k(   40) = (   0.1428571  -0.4285714  -0.5000000), wk =   0.0102041
        k(   41) = (   0.1428571  -0.2857143   0.0000000), wk =   0.0102041
        k(   42) = (   0.1428571  -0.2857143   0.1250000), wk =   0.0204082
        k(   43) = (   0.1428571  -0.2857143   0.2500000), wk =   0.0204082
        k(   44) = (   0.1428571  -0.2857143   0.3750000), wk =   0.0204082
        k(   45) = (   0.1428571  -0.2857143  -0.5000000), wk =   0.0102041
        k(   46) = (   0.1428571  -0.1428571   0.0000000), wk =   0.0051020
        k(   47) = (   0.1428571  -0.1428571   0.1250000), wk =   0.0102041
        k(   48) = (   0.1428571  -0.1428571   0.2500000), wk =   0.0102041
        k(   49) = (   0.1428571  -0.1428571   0.3750000), wk =   0.0102041
        k(   50) = (   0.1428571  -0.1428571  -0.5000000), wk =   0.0051020
        k(   51) = (   0.2857143   0.2857143   0.0000000), wk =   0.0051020
        k(   52) = (   0.2857143   0.2857143   0.1250000), wk =   0.0102041
        k(   53) = (   0.2857143   0.2857143   0.2500000), wk =   0.0102041
        k(   54) = (   0.2857143   0.2857143   0.3750000), wk =   0.0102041
        k(   55) = (   0.2857143   0.2857143  -0.5000000), wk =   0.0051020
        k(   56) = (   0.2857143   0.4285714   0.0000000), wk =   0.0102041
        k(   57) = (   0.2857143   0.4285714   0.1250000), wk =   0.0204082
        k(   58) = (   0.2857143   0.4285714   0.2500000), wk =   0.0204082
        k(   59) = (   0.2857143   0.4285714   0.3750000), wk =   0.0204082
        k(   60) = (   0.2857143   0.4285714  -0.5000000), wk =   0.0102041
        k(   61) = (   0.2857143  -0.4285714   0.0000000), wk =   0.0102041
        k(   62) = (   0.2857143  -0.4285714   0.1250000), wk =   0.0204082
        k(   63) = (   0.2857143  -0.4285714   0.2500000), wk =   0.0204082
        k(   64) = (   0.2857143  -0.4285714   0.3750000), wk =   0.0204082
        k(   65) = (   0.2857143  -0.4285714  -0.5000000), wk =   0.0102041
        k(   66) = (   0.2857143  -0.2857143   0.0000000), wk =   0.0051020
        k(   67) = (   0.2857143  -0.2857143   0.1250000), wk =   0.0102041
        k(   68) = (   0.2857143  -0.2857143   0.2500000), wk =   0.0102041
        k(   69) = (   0.2857143  -0.2857143   0.3750000), wk =   0.0102041
        k(   70) = (   0.2857143  -0.2857143  -0.5000000), wk =   0.0051020
        k(   71) = (   0.4285714   0.4285714   0.0000000), wk =   0.0051020
        k(   72) = (   0.4285714   0.4285714   0.1250000), wk =   0.0102041
        k(   73) = (   0.4285714   0.4285714   0.2500000), wk =   0.0102041
        k(   74) = (   0.4285714   0.4285714   0.3750000), wk =   0.0102041
        k(   75) = (   0.4285714   0.4285714  -0.5000000), wk =   0.0051020
        k(   76) = (   0.4285714  -0.4285714   0.0000000), wk =   0.0051020
        k(   77) = (   0.4285714  -0.4285714   0.1250000), wk =   0.0102041
        k(   78) = (   0.4285714  -0.4285714   0.2500000), wk =   0.0102041
        k(   79) = (   0.4285714  -0.4285714   0.3750000), wk =   0.0102041
        k(   80) = (   0.4285714  -0.4285714  -0.5000000), wk =   0.0051020

     Dense  grid:  1069233 G-vectors     FFT dimensions: ( 144, 144, 108)

     Smooth grid:   205703 G-vectors     FFT dimensions: (  81,  81,  64)

     Dynamical RAM for                 wfc:      29.82 MB

     Dynamical RAM for     wfc (w. buffer):    4801.72 MB

     Dynamical RAM for           str. fact:      48.95 MB

     Dynamical RAM for           local pot:       0.00 MB

     Dynamical RAM for          nlocal pot:      84.76 MB

     Dynamical RAM for                qrad:       7.91 MB

     Dynamical RAM for          rho,v,vnew:     200.41 MB

     Dynamical RAM for               rhoin:      66.80 MB

     Dynamical RAM for            rho*nmix:     522.09 MB

     Dynamical RAM for           G-vectors:      62.75 MB

     Dynamical RAM for          h,s,v(r/c):       1.06 MB

     Dynamical RAM for          <psi|beta>:       0.25 MB

     Dynamical RAM for                 psi:      59.65 MB

     Dynamical RAM for                hpsi:      59.65 MB

     Dynamical RAM for                spsi:      59.65 MB

     Dynamical RAM for      wfcinit/wfcrot:      59.78 MB

     Dynamical RAM for           addusdens:    3148.83 MB

     Dynamical RAM for          addusforce:    3312.03 MB

     Dynamical RAM for         addusstress:    3303.83 MB

     Estimated static dynamical RAM per process >       5.31 GB

     Estimated max dynamical RAM per process >       9.06 GB

     Atomic positions and unit cell read from directory:
     ./out/aiida.save/
 

     Check: negative core charge=   -0.000003
     Generating pointlists ...
     new r_m :   0.1294 (alat units)  1.7211 (a.u.) for type    1
     new r_m :   0.1294 (alat units)  1.7211 (a.u.) for type    2
     new r_m :   0.1988 (alat units)  2.6438 (a.u.) for type    3

     The initial density is read from file :
     ./out/aiida.save/charge-density


     negative rho (up, down):  4.925E-02 4.921E-02
     Starting wfcs from file
     Checking if some PAW data can be deallocated... 

     total cpu time spent up to now is       11.9 secs

     per-process dynamical memory:   996.5 Mb

     Self-consistent Calculation
[tb_dev] Currently allocated     9.16E-05 Mbytes, locked:    0 /   2
[tb_pin] Currently allocated     0.00E+00 Mbytes, locked:    0 /   0

     iteration #  1     ecut=    90.00 Ry     beta= 0.10
     Davidson diagonalization with overlap

---- Real-time Memory Report at c_bands before calling an iterative solver
          1374 MiB given to the printing process from OS
          1044 MiB allocation reported by mallinfo(arena+hblkhd)
         58326 MiB available memory on the node where the printing process lives
     GPU memory used/free/total (MiB): 2116 / 14164 / 16280
------------------
     ethr =  1.00E-05,  avg # of iterations =  1.6

     Threshold (ethr) on eigenvalues was too large:
     Diagonalizing with lowered threshold

     Davidson diagonalization with overlap

---- Real-time Memory Report at c_bands before calling an iterative solver
          6577 MiB given to the printing process from OS
          2041 MiB allocation reported by mallinfo(arena+hblkhd)
         47412 MiB available memory on the node where the printing process lives
     GPU memory used/free/total (MiB): 5954 / 10326 / 16280
------------------
     ethr =  1.04E-08,  avg # of iterations =  4.2

     negative rho (up, down):  4.925E-02 4.921E-02

     total cpu time spent up to now is       65.3 secs

     total energy              =   -1741.42552860 Ry
     estimated scf accuracy    <       0.00001470 Ry

     total magnetization       =     1.68 Bohr mag/cell
     absolute magnetization    =     1.91 Bohr mag/cell
[tb_dev] Currently allocated     2.14E+01 Mbytes, locked:    0 /  11
[tb_pin] Currently allocated     0.00E+00 Mbytes, locked:    0 /   0

     iteration #  2     ecut=    90.00 Ry     beta= 0.10
     Davidson diagonalization with overlap

---- Real-time Memory Report at c_bands before calling an iterative solver
          6907 MiB given to the printing process from OS
         -1899 MiB allocation reported by mallinfo(arena+hblkhd)
         47302 MiB available memory on the node where the printing process lives
     GPU memory used/free/total (MiB): 6546 / 9734 / 16280
------------------
     ethr =  1.17E-08,  avg # of iterations =  1.0

     negative rho (up, down):  4.925E-02 4.921E-02

     total cpu time spent up to now is       86.8 secs

     total energy              =   -1741.42553142 Ry
     estimated scf accuracy    <       0.00001267 Ry

     total magnetization       =     1.68 Bohr mag/cell
     absolute magnetization    =     1.90 Bohr mag/cell
[tb_dev] Currently allocated     2.14E+01 Mbytes, locked:    0 /  11
[tb_pin] Currently allocated     0.00E+00 Mbytes, locked:    0 /   0

     iteration #  3     ecut=    90.00 Ry     beta= 0.10
     Davidson diagonalization with overlap

---- Real-time Memory Report at c_bands before calling an iterative solver
          7016 MiB given to the printing process from OS
         -1890 MiB allocation reported by mallinfo(arena+hblkhd)
         47276 MiB available memory on the node where the printing process lives
     GPU memory used/free/total (MiB): 6546 / 9734 / 16280
------------------
     ethr =  1.01E-08,  avg # of iterations =  1.0

     negative rho (up, down):  4.924E-02 4.922E-02

     total cpu time spent up to now is      108.3 secs

     total energy              =   -1741.42553762 Ry
     estimated scf accuracy    <       0.00001171 Ry

     total magnetization       =     1.68 Bohr mag/cell
     absolute magnetization    =     1.90 Bohr mag/cell
[tb_dev] Currently allocated     2.14E+01 Mbytes, locked:    0 /  11
[tb_pin] Currently allocated     0.00E+00 Mbytes, locked:    0 /   0

     iteration #  4     ecut=    90.00 Ry     beta= 0.10
     Davidson diagonalization with overlap

---- Real-time Memory Report at c_bands before calling an iterative solver
          7122 MiB given to the printing process from OS
         -1864 MiB allocation reported by mallinfo(arena+hblkhd)
         47251 MiB available memory on the node where the printing process lives
     GPU memory used/free/total (MiB): 6546 / 9734 / 16280
------------------
     ethr =  9.29E-09,  avg # of iterations =  2.0

     negative rho (up, down):  4.924E-02 4.922E-02

     total cpu time spent up to now is      131.9 secs

     total energy              =   -1741.42554574 Ry
     estimated scf accuracy    <       0.00000830 Ry

     total magnetization       =     1.66 Bohr mag/cell
     absolute magnetization    =     1.88 Bohr mag/cell
[tb_dev] Currently allocated     2.14E+01 Mbytes, locked:    0 /  11
[tb_pin] Currently allocated     0.00E+00 Mbytes, locked:    0 /   0

     iteration #  5     ecut=    90.00 Ry     beta= 0.10
     Davidson diagonalization with overlap

---- Real-time Memory Report at c_bands before calling an iterative solver
          7227 MiB given to the printing process from OS
         -1837 MiB allocation reported by mallinfo(arena+hblkhd)
         47225 MiB available memory on the node where the printing process lives
     GPU memory used/free/total (MiB): 6546 / 9734 / 16280
------------------
     ethr =  6.59E-09,  avg # of iterations =  2.6

     negative rho (up, down):  4.924E-02 4.922E-02

     total cpu time spent up to now is      157.0 secs

     total energy              =   -1741.42554443 Ry
     estimated scf accuracy    <       0.00000750 Ry

     total magnetization       =     1.63 Bohr mag/cell
     absolute magnetization    =     1.85 Bohr mag/cell
[tb_dev] Currently allocated     2.14E+01 Mbytes, locked:    0 /  11
[tb_pin] Currently allocated     0.00E+00 Mbytes, locked:    0 /   0

     iteration #  6     ecut=    90.00 Ry     beta= 0.10
     Davidson diagonalization with overlap

---- Real-time Memory Report at c_bands before calling an iterative solver
          7285 MiB given to the printing process from OS
         -1811 MiB allocation reported by mallinfo(arena+hblkhd)
         47199 MiB available memory on the node where the printing process lives
     GPU memory used/free/total (MiB): 6546 / 9734 / 16280
------------------
     ethr =  5.96E-09,  avg # of iterations =  1.3

     negative rho (up, down):  4.924E-02 4.922E-02

     total cpu time spent up to now is      178.8 secs

     total energy              =   -1741.42555087 Ry
     estimated scf accuracy    <       0.00000825 Ry

     total magnetization       =     1.65 Bohr mag/cell
     absolute magnetization    =     1.87 Bohr mag/cell
[tb_dev] Currently allocated     2.14E+01 Mbytes, locked:    0 /  11
[tb_pin] Currently allocated     0.00E+00 Mbytes, locked:    0 /   0

     iteration #  7     ecut=    90.00 Ry     beta= 0.10
     Davidson diagonalization with overlap

---- Real-time Memory Report at c_bands before calling an iterative solver
          7304 MiB given to the printing process from OS
         -1791 MiB allocation reported by mallinfo(arena+hblkhd)
         47182 MiB available memory on the node where the printing process lives
     GPU memory used/free/total (MiB): 6546 / 9734 / 16280
------------------
     ethr =  5.96E-09,  avg # of iterations =  2.0

     negative rho (up, down):  4.924E-02 4.922E-02

     total cpu time spent up to now is      202.0 secs

     total energy              =   -1741.42550487 Ry
     estimated scf accuracy    <       0.00000807 Ry

     total magnetization       =     1.62 Bohr mag/cell
     absolute magnetization    =     1.84 Bohr mag/cell
[tb_dev] Currently allocated     2.14E+01 Mbytes, locked:    0 /  11
[tb_pin] Currently allocated     0.00E+00 Mbytes, locked:    0 /   0

     iteration #  8     ecut=    90.00 Ry     beta= 0.10
     Davidson diagonalization with overlap

---- Real-time Memory Report at c_bands before calling an iterative solver
          7318 MiB given to the printing process from OS
         -1778 MiB allocation reported by mallinfo(arena+hblkhd)
         47166 MiB available memory on the node where the printing process lives
     GPU memory used/free/total (MiB): 6546 / 9734 / 16280
------------------
     ethr =  5.96E-09,  avg # of iterations =  3.4

     negative rho (up, down):  4.925E-02 4.922E-02

     total cpu time spent up to now is      230.4 secs

     total energy              =   -1741.42534066 Ry
     estimated scf accuracy    <       0.00000921 Ry

     total magnetization       =     1.69 Bohr mag/cell
     absolute magnetization    =     1.91 Bohr mag/cell
[tb_dev] Currently allocated     2.14E+01 Mbytes, locked:    0 /  11
[tb_pin] Currently allocated     0.00E+00 Mbytes, locked:    0 /   0

     iteration #  9     ecut=    90.00 Ry     beta= 0.10
     Davidson diagonalization with overlap

---- Real-time Memory Report at c_bands before calling an iterative solver
          7344 MiB given to the printing process from OS
         -1751 MiB allocation reported by mallinfo(arena+hblkhd)
         47142 MiB available memory on the node where the printing process lives
     GPU memory used/free/total (MiB): 6546 / 9734 / 16280
------------------
     ethr =  5.96E-09,  avg # of iterations =  6.3

     negative rho (up, down):  4.924E-02 4.922E-02

     total cpu time spent up to now is      267.5 secs

     total energy              =   -1741.42545710 Ry
     estimated scf accuracy    <       0.00001200 Ry

     total magnetization       =     1.49 Bohr mag/cell
     absolute magnetization    =     1.69 Bohr mag/cell
[tb_dev] Currently allocated     2.14E+01 Mbytes, locked:    0 /  11
[tb_pin] Currently allocated     0.00E+00 Mbytes, locked:    0 /   0

     iteration # 10     ecut=    90.00 Ry     beta= 0.10
     Davidson diagonalization with overlap

---- Real-time Memory Report at c_bands before calling an iterative solver
          7377 MiB given to the printing process from OS
         -1719 MiB allocation reported by mallinfo(arena+hblkhd)
         47093 MiB available memory on the node where the printing process lives
     GPU memory used/free/total (MiB): 6546 / 9734 / 16280
------------------
     ethr =  5.96E-09,  avg # of iterations =  4.8

     negative rho (up, down):  4.924E-02 4.922E-02

     total cpu time spent up to now is      299.6 secs

     total energy              =   -1741.42556512 Ry
     estimated scf accuracy    <       0.00001096 Ry

     total magnetization       =     1.62 Bohr mag/cell
     absolute magnetization    =     1.83 Bohr mag/cell
[tb_dev] Currently allocated     2.14E+01 Mbytes, locked:    0 /  11
[tb_pin] Currently allocated     0.00E+00 Mbytes, locked:    0 /   0

     iteration # 11     ecut=    90.00 Ry     beta= 0.10
     Davidson diagonalization with overlap

---- Real-time Memory Report at c_bands before calling an iterative solver
          7385 MiB given to the printing process from OS
         -1746 MiB allocation reported by mallinfo(arena+hblkhd)
         47093 MiB available memory on the node where the printing process lives
     GPU memory used/free/total (MiB): 6546 / 9734 / 16280
------------------
     ethr =  5.96E-09,  avg # of iterations =  2.0

     negative rho (up, down):  4.924E-02 4.922E-02

     total cpu time spent up to now is      323.1 secs

     total energy              =   -1741.42537063 Ry
     estimated scf accuracy    <       0.00001136 Ry

     total magnetization       =     1.58 Bohr mag/cell
     absolute magnetization    =     1.79 Bohr mag/cell
[tb_dev] Currently allocated     2.14E+01 Mbytes, locked:    0 /  11
[tb_pin] Currently allocated     0.00E+00 Mbytes, locked:    0 /   0

     iteration # 12     ecut=    90.00 Ry     beta= 0.10
     Davidson diagonalization with overlap

---- Real-time Memory Report at c_bands before calling an iterative solver
          7392 MiB given to the printing process from OS
         -1704 MiB allocation reported by mallinfo(arena+hblkhd)
         47089 MiB available memory on the node where the printing process lives
     GPU memory used/free/total (MiB): 6546 / 9734 / 16280
------------------
     ethr =  5.96E-09,  avg # of iterations =  5.4

     negative rho (up, down):  4.924E-02 4.922E-02

     total cpu time spent up to now is      356.8 secs

     total energy              =   -1741.42495732 Ry
     estimated scf accuracy    <       0.00001430 Ry

     total magnetization       =     1.73 Bohr mag/cell
     absolute magnetization    =     1.95 Bohr mag/cell
[tb_dev] Currently allocated     2.14E+01 Mbytes, locked:    0 /  11
[tb_pin] Currently allocated     0.00E+00 Mbytes, locked:    0 /   0

     iteration # 13     ecut=    90.00 Ry     beta= 0.10
     Davidson diagonalization with overlap

---- Real-time Memory Report at c_bands before calling an iterative solver
          7399 MiB given to the printing process from OS
         -1731 MiB allocation reported by mallinfo(arena+hblkhd)
         47084 MiB available memory on the node where the printing process lives
     GPU memory used/free/total (MiB): 6546 / 9734 / 16280
------------------
     ethr =  5.96E-09,  avg # of iterations =  7.3

     negative rho (up, down):  4.924E-02 4.922E-02

     total cpu time spent up to now is      396.6 secs

     total energy              =   -1741.42492769 Ry
     estimated scf accuracy    <       0.00001694 Ry

     total magnetization       =     1.40 Bohr mag/cell
     absolute magnetization    =     1.59 Bohr mag/cell
[tb_dev] Currently allocated     2.14E+01 Mbytes, locked:    0 /  11
[tb_pin] Currently allocated     0.00E+00 Mbytes, locked:    0 /   0

     iteration # 14     ecut=    90.00 Ry     beta= 0.10
     Davidson diagonalization with overlap

---- Real-time Memory Report at c_bands before calling an iterative solver
          7406 MiB given to the printing process from OS
         -1690 MiB allocation reported by mallinfo(arena+hblkhd)
         47077 MiB available memory on the node where the printing process lives
     GPU memory used/free/total (MiB): 6546 / 9734 / 16280
------------------
     ethr =  5.96E-09,  avg # of iterations =  7.0

     negative rho (up, down):  4.924E-02 4.922E-02

     total cpu time spent up to now is      435.4 secs

     total energy              =   -1741.42525406 Ry
     estimated scf accuracy    <       0.00001088 Ry

     total magnetization       =     1.71 Bohr mag/cell
     absolute magnetization    =     1.93 Bohr mag/cell
[tb_dev] Currently allocated     2.14E+01 Mbytes, locked:    0 /  11
[tb_pin] Currently allocated     0.00E+00 Mbytes, locked:    0 /   0

     iteration # 15     ecut=    90.00 Ry     beta= 0.10
     Davidson diagonalization with overlap

---- Real-time Memory Report at c_bands before calling an iterative solver
          7414 MiB given to the printing process from OS
         -1716 MiB allocation reported by mallinfo(arena+hblkhd)
         47073 MiB available memory on the node where the printing process lives
     GPU memory used/free/total (MiB): 6546 / 9734 / 16280
------------------
     ethr =  5.96E-09,  avg # of iterations =  6.5

     negative rho (up, down):  4.924E-02 4.922E-02

     total cpu time spent up to now is      473.0 secs

     total energy              =   -1741.42545485 Ry
     estimated scf accuracy    <       0.00001845 Ry

     total magnetization       =     1.87 Bohr mag/cell
     absolute magnetization    =     2.11 Bohr mag/cell
[tb_dev] Currently allocated     2.14E+01 Mbytes, locked:    0 /  11
[tb_pin] Currently allocated     0.00E+00 Mbytes, locked:    0 /   0

     iteration # 16     ecut=    90.00 Ry     beta= 0.10
     Davidson diagonalization with overlap

---- Real-time Memory Report at c_bands before calling an iterative solver
          7422 MiB given to the printing process from OS
         -1674 MiB allocation reported by mallinfo(arena+hblkhd)
         47065 MiB available memory on the node where the printing process lives
     GPU memory used/free/total (MiB): 6546 / 9734 / 16280
------------------
     ethr =  5.96E-09,  avg # of iterations =  2.2

     negative rho (up, down):  4.924E-02 4.922E-02

     total cpu time spent up to now is      497.2 secs

     total energy              =   -1741.42547437 Ry
     estimated scf accuracy    <       0.00001514 Ry

     total magnetization       =     1.84 Bohr mag/cell
     absolute magnetization    =     2.08 Bohr mag/cell
[tb_dev] Currently allocated     2.14E+01 Mbytes, locked:    0 /  11
[tb_pin] Currently allocated     0.00E+00 Mbytes, locked:    0 /   0

     iteration # 17     ecut=    90.00 Ry     beta= 0.10
     Davidson diagonalization with overlap

---- Real-time Memory Report at c_bands before calling an iterative solver
          7430 MiB given to the printing process from OS
         -1700 MiB allocation reported by mallinfo(arena+hblkhd)
         47054 MiB available memory on the node where the printing process lives
     GPU memory used/free/total (MiB): 6546 / 9734 / 16280
------------------
     ethr =  5.96E-09,  avg # of iterations =  4.1

     negative rho (up, down):  4.924E-02 4.921E-02

     total cpu time spent up to now is      526.0 secs

     total energy              =   -1741.42482320 Ry
     estimated scf accuracy    <       0.00001183 Ry

     total magnetization       =     1.79 Bohr mag/cell
     absolute magnetization    =     2.03 Bohr mag/cell
[tb_dev] Currently allocated     2.14E+01 Mbytes, locked:    0 /  11
[tb_pin] Currently allocated     0.00E+00 Mbytes, locked:    0 /   0

     iteration # 18     ecut=    90.00 Ry     beta= 0.10
     Davidson diagonalization with overlap

---- Real-time Memory Report at c_bands before calling an iterative solver
          7438 MiB given to the printing process from OS
         -1658 MiB allocation reported by mallinfo(arena+hblkhd)
         47049 MiB available memory on the node where the printing process lives
     GPU memory used/free/total (MiB): 6546 / 9734 / 16280
------------------
     ethr =  5.96E-09,  avg # of iterations =  6.6

     negative rho (up, down):  4.924E-02 4.921E-02

     total cpu time spent up to now is      564.8 secs

     total energy              =   -1741.42532873 Ry
     estimated scf accuracy    <       0.00005713 Ry

     total magnetization       =     2.02 Bohr mag/cell
     absolute magnetization    =     2.29 Bohr mag/cell
[tb_dev] Currently allocated     2.14E+01 Mbytes, locked:    0 /  11
[tb_pin] Currently allocated     0.00E+00 Mbytes, locked:    0 /   0

     iteration # 19     ecut=    90.00 Ry     beta= 0.10
     Davidson diagonalization with overlap

---- Real-time Memory Report at c_bands before calling an iterative solver
          7445 MiB given to the printing process from OS
         -1684 MiB allocation reported by mallinfo(arena+hblkhd)
         47039 MiB available memory on the node where the printing process lives
     GPU memory used/free/total (MiB): 6546 / 9734 / 16280
------------------
     ethr =  5.96E-09,  avg # of iterations =  3.6

     negative rho (up, down):  4.924E-02 4.922E-02

     total cpu time spent up to now is      593.6 secs

     total energy              =   -1741.42537110 Ry
     estimated scf accuracy    <       0.00003592 Ry

     total magnetization       =     1.97 Bohr mag/cell
     absolute magnetization    =     2.24 Bohr mag/cell
[tb_dev] Currently allocated     2.14E+01 Mbytes, locked:    0 /  11
[tb_pin] Currently allocated     0.00E+00 Mbytes, locked:    0 /   0

     iteration # 20     ecut=    90.00 Ry     beta= 0.10
     Davidson diagonalization with overlap

---- Real-time Memory Report at c_bands before calling an iterative solver
          7453 MiB given to the printing process from OS
         -1642 MiB allocation reported by mallinfo(arena+hblkhd)
         47034 MiB available memory on the node where the printing process lives
     GPU memory used/free/total (MiB): 6546 / 9734 / 16280
------------------
     ethr =  5.96E-09,  avg # of iterations =  4.4

     negative rho (up, down):  4.924E-02 4.922E-02

     total cpu time spent up to now is      625.3 secs

     total energy              =   -1741.42543126 Ry
     estimated scf accuracy    <       0.00001822 Ry

     total magnetization       =     1.89 Bohr mag/cell
     absolute magnetization    =     2.14 Bohr mag/cell
[tb_dev] Currently allocated     2.14E+01 Mbytes, locked:    0 /  11
[tb_pin] Currently allocated     0.00E+00 Mbytes, locked:    0 /   0

     iteration # 21     ecut=    90.00 Ry     beta= 0.10
     Davidson diagonalization with overlap

---- Real-time Memory Report at c_bands before calling an iterative solver
          7461 MiB given to the printing process from OS
         -1668 MiB allocation reported by mallinfo(arena+hblkhd)
         47026 MiB available memory on the node where the printing process lives
     GPU memory used/free/total (MiB): 6546 / 9734 / 16280
------------------
     ethr =  5.96E-09,  avg # of iterations =  4.8

     negative rho (up, down):  4.924E-02 4.922E-02

     total cpu time spent up to now is      657.4 secs

     total energy              =   -1741.42549275 Ry
     estimated scf accuracy    <       0.00001110 Ry

     total magnetization       =     1.80 Bohr mag/cell
     absolute magnetization    =     2.04 Bohr mag/cell
[tb_dev] Currently allocated     2.14E+01 Mbytes, locked:    0 /  11
[tb_pin] Currently allocated     0.00E+00 Mbytes, locked:    0 /   0

     iteration # 22     ecut=    90.00 Ry     beta= 0.10
     Davidson diagonalization with overlap

---- Real-time Memory Report at c_bands before calling an iterative solver
          7470 MiB given to the printing process from OS
         -1626 MiB allocation reported by mallinfo(arena+hblkhd)
         47016 MiB available memory on the node where the printing process lives
     GPU memory used/free/total (MiB): 6546 / 9734 / 16280
------------------
     ethr =  5.96E-09,  avg # of iterations =  4.2

     negative rho (up, down):  4.924E-02 4.922E-02

     total cpu time spent up to now is      686.5 secs

     total energy              =   -1741.42546024 Ry
     estimated scf accuracy    <       0.00000930 Ry

     total magnetization       =     1.76 Bohr mag/cell
     absolute magnetization    =     1.99 Bohr mag/cell
[tb_dev] Currently allocated     2.14E+01 Mbytes, locked:    0 /  11
[tb_pin] Currently allocated     0.00E+00 Mbytes, locked:    0 /   0

     iteration # 23     ecut=    90.00 Ry     beta= 0.10
     Davidson diagonalization with overlap

---- Real-time Memory Report at c_bands before calling an iterative solver
          7478 MiB given to the printing process from OS
         -1652 MiB allocation reported by mallinfo(arena+hblkhd)
         47010 MiB available memory on the node where the printing process lives
     GPU memory used/free/total (MiB): 6546 / 9734 / 16280
------------------
     ethr =  5.96E-09,  avg # of iterations =  5.1

     negative rho (up, down):  4.924E-02 4.922E-02

     total cpu time spent up to now is      719.8 secs

     total energy              =   -1741.42527463 Ry
     estimated scf accuracy    <       0.00000822 Ry

     total magnetization       =     1.65 Bohr mag/cell
     absolute magnetization    =     1.87 Bohr mag/cell
[tb_dev] Currently allocated     2.14E+01 Mbytes, locked:    0 /  11
[tb_pin] Currently allocated     0.00E+00 Mbytes, locked:    0 /   0

     iteration # 24     ecut=    90.00 Ry     beta= 0.10
     Davidson diagonalization with overlap

---- Real-time Memory Report at c_bands before calling an iterative solver
          7486 MiB given to the printing process from OS
         -1610 MiB allocation reported by mallinfo(arena+hblkhd)
         47002 MiB available memory on the node where the printing process lives
     GPU memory used/free/total (MiB): 6546 / 9734 / 16280
------------------
     ethr =  5.96E-09,  avg # of iterations =  6.2

     negative rho (up, down):  4.924E-02 4.922E-02

     total cpu time spent up to now is      755.3 secs

     total energy              =   -1741.42523321 Ry
     estimated scf accuracy    <       0.00001271 Ry

     total magnetization       =     1.82 Bohr mag/cell
     absolute magnetization    =     2.06 Bohr mag/cell
[tb_dev] Currently allocated     2.14E+01 Mbytes, locked:    0 /  11
[tb_pin] Currently allocated     0.00E+00 Mbytes, locked:    0 /   0

     iteration # 25     ecut=    90.00 Ry     beta= 0.10
     Davidson diagonalization with overlap

---- Real-time Memory Report at c_bands before calling an iterative solver
          7493 MiB given to the printing process from OS
         -1636 MiB allocation reported by mallinfo(arena+hblkhd)
         46992 MiB available memory on the node where the printing process lives
     GPU memory used/free/total (MiB): 6546 / 9734 / 16280
------------------
     ethr =  5.96E-09,  avg # of iterations =  6.3

     negative rho (up, down):  4.925E-02 4.922E-02

     total cpu time spent up to now is      793.0 secs

     total energy              =   -1741.42409320 Ry
     estimated scf accuracy    <       0.00000892 Ry

     total magnetization       =     1.60 Bohr mag/cell
     absolute magnetization    =     1.81 Bohr mag/cell
[tb_dev] Currently allocated     2.14E+01 Mbytes, locked:    0 /  11
[tb_pin] Currently allocated     0.00E+00 Mbytes, locked:    0 /   0

     iteration # 26     ecut=    90.00 Ry     beta= 0.10
     Davidson diagonalization with overlap

---- Real-time Memory Report at c_bands before calling an iterative solver
          7501 MiB given to the printing process from OS
         -1594 MiB allocation reported by mallinfo(arena+hblkhd)
         46986 MiB available memory on the node where the printing process lives
     GPU memory used/free/total (MiB): 6546 / 9734 / 16280
------------------
     c_bands:  1 eigenvalues not converged
     ethr =  5.96E-09,  avg # of iterations =  8.9

     negative rho (up, down):  4.925E-02 4.922E-02

     total cpu time spent up to now is      841.4 secs

     total energy              =   -1741.42572474 Ry
     estimated scf accuracy    <       0.00003470 Ry

     total magnetization       =     1.08 Bohr mag/cell
     absolute magnetization    =     1.23 Bohr mag/cell
[tb_dev] Currently allocated     2.14E+01 Mbytes, locked:    0 /  11
[tb_pin] Currently allocated     0.00E+00 Mbytes, locked:    0 /   0

     iteration # 27     ecut=    90.00 Ry     beta= 0.10
     Davidson diagonalization with overlap

---- Real-time Memory Report at c_bands before calling an iterative solver
          7509 MiB given to the printing process from OS
         -1620 MiB allocation reported by mallinfo(arena+hblkhd)
         46978 MiB available memory on the node where the printing process lives
     GPU memory used/free/total (MiB): 6546 / 9734 / 16280
------------------
     ethr =  5.96E-09,  avg # of iterations =  2.2

     negative rho (up, down):  4.925E-02 4.922E-02

     total cpu time spent up to now is      865.3 secs

     total energy              =   -1741.42574636 Ry
     estimated scf accuracy    <       0.00003310 Ry

     total magnetization       =     1.11 Bohr mag/cell
     absolute magnetization    =     1.26 Bohr mag/cell
[tb_dev] Currently allocated     2.14E+01 Mbytes, locked:    0 /  11
[tb_pin] Currently allocated     0.00E+00 Mbytes, locked:    0 /   0

     iteration # 28     ecut=    90.00 Ry     beta= 0.10
     Davidson diagonalization with overlap

---- Real-time Memory Report at c_bands before calling an iterative solver
          7524 MiB given to the printing process from OS
         -1578 MiB allocation reported by mallinfo(arena+hblkhd)
         46964 MiB available memory on the node where the printing process lives
     GPU memory used/free/total (MiB): 6546 / 9734 / 16280
------------------
     ethr =  5.96E-09,  avg # of iterations =  3.8

     negative rho (up, down):  4.925E-02 4.922E-02

     total cpu time spent up to now is      894.7 secs

     total energy              =   -1741.42573379 Ry
     estimated scf accuracy    <       0.00003702 Ry

     total magnetization       =     1.04 Bohr mag/cell
     absolute magnetization    =     1.19 Bohr mag/cell
[tb_dev] Currently allocated     2.14E+01 Mbytes, locked:    0 /  11
[tb_pin] Currently allocated     0.00E+00 Mbytes, locked:    0 /   0

     iteration # 29     ecut=    90.00 Ry     beta= 0.10
     Davidson diagonalization with overlap

---- Real-time Memory Report at c_bands before calling an iterative solver
          7532 MiB given to the printing process from OS
         -1604 MiB allocation reported by mallinfo(arena+hblkhd)
         46962 MiB available memory on the node where the printing process lives
     GPU memory used/free/total (MiB): 6546 / 9734 / 16280
------------------
     ethr =  5.96E-09,  avg # of iterations =  3.4

     negative rho (up, down):  4.925E-02 4.922E-02

     total cpu time spent up to now is      922.8 secs

     total energy              =   -1741.42576091 Ry
     estimated scf accuracy    <       0.00003382 Ry

     total magnetization       =     1.11 Bohr mag/cell
     absolute magnetization    =     1.26 Bohr mag/cell
[tb_dev] Currently allocated     2.14E+01 Mbytes, locked:    0 /  11
[tb_pin] Currently allocated     0.00E+00 Mbytes, locked:    0 /   0

     iteration # 30     ecut=    90.00 Ry     beta= 0.10
     Davidson diagonalization with overlap

---- Real-time Memory Report at c_bands before calling an iterative solver
          7534 MiB given to the printing process from OS
         -1562 MiB allocation reported by mallinfo(arena+hblkhd)
         46951 MiB available memory on the node where the printing process lives
     GPU memory used/free/total (MiB): 6546 / 9734 / 16280
------------------
     ethr =  5.96E-09,  avg # of iterations =  2.0

     negative rho (up, down):  4.925E-02 4.922E-02

     total cpu time spent up to now is      946.1 secs

     total energy              =   -1741.42559784 Ry
     estimated scf accuracy    <       0.00003260 Ry

     total magnetization       =     1.12 Bohr mag/cell
     absolute magnetization    =     1.28 Bohr mag/cell
[tb_dev] Currently allocated     2.14E+01 Mbytes, locked:    0 /  11
[tb_pin] Currently allocated     0.00E+00 Mbytes, locked:    0 /   0

     iteration # 31     ecut=    90.00 Ry     beta= 0.10
     Davidson diagonalization with overlap

---- Real-time Memory Report at c_bands before calling an iterative solver
          7542 MiB given to the printing process from OS
         -1588 MiB allocation reported by mallinfo(arena+hblkhd)
         46946 MiB available memory on the node where the printing process lives
     GPU memory used/free/total (MiB): 6546 / 9734 / 16280
------------------
     ethr =  5.96E-09,  avg # of iterations =  5.0

     negative rho (up, down):  4.925E-02 4.922E-02

     total cpu time spent up to now is      979.0 secs

     total energy              =   -1741.42571062 Ry
     estimated scf accuracy    <       0.00002380 Ry

     total magnetization       =     1.26 Bohr mag/cell
     absolute magnetization    =     1.43 Bohr mag/cell
[tb_dev] Currently allocated     2.14E+01 Mbytes, locked:    0 /  11
[tb_pin] Currently allocated     0.00E+00 Mbytes, locked:    0 /   0

     iteration # 32     ecut=    90.00 Ry     beta= 0.10
     Davidson diagonalization with overlap

---- Real-time Memory Report at c_bands before calling an iterative solver
          7549 MiB given to the printing process from OS
         -1546 MiB allocation reported by mallinfo(arena+hblkhd)
         46938 MiB available memory on the node where the printing process lives
     GPU memory used/free/total (MiB): 6546 / 9734 / 16280
------------------
     ethr =  5.96E-09,  avg # of iterations =  3.7

     negative rho (up, down):  4.925E-02 4.922E-02

     total cpu time spent up to now is     1008.0 secs

     total energy              =   -1741.42564338 Ry
     estimated scf accuracy    <       0.00002755 Ry

     total magnetization       =     1.18 Bohr mag/cell
     absolute magnetization    =     1.35 Bohr mag/cell
[tb_dev] Currently allocated     2.14E+01 Mbytes, locked:    0 /  11
[tb_pin] Currently allocated     0.00E+00 Mbytes, locked:    0 /   0

     iteration # 33     ecut=    90.00 Ry     beta= 0.10
     Davidson diagonalization with overlap

---- Real-time Memory Report at c_bands before calling an iterative solver
          7558 MiB given to the printing process from OS
         -1572 MiB allocation reported by mallinfo(arena+hblkhd)
         46928 MiB available memory on the node where the printing process lives
     GPU memory used/free/total (MiB): 6546 / 9734 / 16280
------------------
     ethr =  5.96E-09,  avg # of iterations =  4.4

     negative rho (up, down):  4.924E-02 4.921E-02

     total cpu time spent up to now is     1038.9 secs

     total energy              =   -1741.42226093 Ry
     estimated scf accuracy    <       0.00002224 Ry

     total magnetization       =     1.28 Bohr mag/cell
     absolute magnetization    =     1.46 Bohr mag/cell
[tb_dev] Currently allocated     2.14E+01 Mbytes, locked:    0 /  11
[tb_pin] Currently allocated     0.00E+00 Mbytes, locked:    0 /   0

     iteration # 34     ecut=    90.00 Ry     beta= 0.10
     Davidson diagonalization with overlap

---- Real-time Memory Report at c_bands before calling an iterative solver
          7572 MiB given to the printing process from OS
         -1530 MiB allocation reported by mallinfo(arena+hblkhd)
         46916 MiB available memory on the node where the printing process lives
     GPU memory used/free/total (MiB): 6546 / 9734 / 16280
------------------
     ethr =  5.96E-09,  avg # of iterations =  9.4

     negative rho (up, down):  4.924E-02 4.922E-02

     total cpu time spent up to now is     1090.8 secs

     total energy              =   -1741.42235246 Ry
     estimated scf accuracy    <       0.00002859 Ry

     total magnetization       =     1.94 Bohr mag/cell
     absolute magnetization    =     2.20 Bohr mag/cell
[tb_dev] Currently allocated     2.14E+01 Mbytes, locked:    0 /  11
[tb_pin] Currently allocated     0.00E+00 Mbytes, locked:    0 /   0

     iteration # 35     ecut=    90.00 Ry     beta= 0.10
     Davidson diagonalization with overlap

---- Real-time Memory Report at c_bands before calling an iterative solver
          7580 MiB given to the printing process from OS
         -1556 MiB allocation reported by mallinfo(arena+hblkhd)
         46914 MiB available memory on the node where the printing process lives
     GPU memory used/free/total (MiB): 6546 / 9734 / 16280
------------------
     ethr =  5.96E-09,  avg # of iterations = 10.0

     negative rho (up, down):  4.925E-02 4.922E-02

     total cpu time spent up to now is     1143.0 secs

     total energy              =   -1741.42573171 Ry
     estimated scf accuracy    <       0.00002671 Ry

     total magnetization       =     1.22 Bohr mag/cell
     absolute magnetization    =     1.38 Bohr mag/cell
[tb_dev] Currently allocated     2.14E+01 Mbytes, locked:    0 /  11
[tb_pin] Currently allocated     0.00E+00 Mbytes, locked:    0 /   0

     iteration # 36     ecut=    90.00 Ry     beta= 0.10
     Davidson diagonalization with overlap

---- Real-time Memory Report at c_bands before calling an iterative solver
          7588 MiB given to the printing process from OS
         -1514 MiB allocation reported by mallinfo(arena+hblkhd)
         46898 MiB available memory on the node where the printing process lives
     GPU memory used/free/total (MiB): 6546 / 9734 / 16280
------------------
     ethr =  5.96E-09,  avg # of iterations =  4.6

     negative rho (up, down):  4.925E-02 4.922E-02

     total cpu time spent up to now is     1174.5 secs

     total energy              =   -1741.42577795 Ry
     estimated scf accuracy    <       0.00003001 Ry

     total magnetization       =     1.14 Bohr mag/cell
     absolute magnetization    =     1.30 Bohr mag/cell
[tb_dev] Currently allocated     2.14E+01 Mbytes, locked:    0 /  11
[tb_pin] Currently allocated     0.00E+00 Mbytes, locked:    0 /   0

     iteration # 37     ecut=    90.00 Ry     beta= 0.10
     Davidson diagonalization with overlap

---- Real-time Memory Report at c_bands before calling an iterative solver
          7596 MiB given to the printing process from OS
         -1540 MiB allocation reported by mallinfo(arena+hblkhd)
         46898 MiB available memory on the node where the printing process lives
     GPU memory used/free/total (MiB): 6546 / 9734 / 16280
------------------
     ethr =  5.96E-09,  avg # of iterations =  1.7

     negative rho (up, down):  4.925E-02 4.922E-02

     total cpu time spent up to now is     1197.4 secs

     total energy              =   -1741.42579411 Ry
     estimated scf accuracy    <       0.00003165 Ry

     total magnetization       =     1.12 Bohr mag/cell
     absolute magnetization    =     1.28 Bohr mag/cell
[tb_dev] Currently allocated     2.14E+01 Mbytes, locked:    0 /  11
[tb_pin] Currently allocated     0.00E+00 Mbytes, locked:    0 /   0

     iteration # 38     ecut=    90.00 Ry     beta= 0.10
     Davidson diagonalization with overlap

---- Real-time Memory Report at c_bands before calling an iterative solver
          7610 MiB given to the printing process from OS
         -1498 MiB allocation reported by mallinfo(arena+hblkhd)
         46876 MiB available memory on the node where the printing process lives
     GPU memory used/free/total (MiB): 6546 / 9734 / 16280
------------------
     ethr =  5.96E-09,  avg # of iterations =  2.7

     negative rho (up, down):  4.925E-02 4.923E-02

     total cpu time spent up to now is     1223.1 secs

     total energy              =   -1741.42522438 Ry
     estimated scf accuracy    <       0.00003750 Ry

     total magnetization       =     1.09 Bohr mag/cell
     absolute magnetization    =     1.24 Bohr mag/cell
[tb_dev] Currently allocated     2.14E+01 Mbytes, locked:    0 /  11
[tb_pin] Currently allocated     0.00E+00 Mbytes, locked:    0 /   0

     iteration # 39     ecut=    90.00 Ry     beta= 0.10
     Davidson diagonalization with overlap

---- Real-time Memory Report at c_bands before calling an iterative solver
          7618 MiB given to the printing process from OS
         -1524 MiB allocation reported by mallinfo(arena+hblkhd)
         46882 MiB available memory on the node where the printing process lives
     GPU memory used/free/total (MiB): 6546 / 9734 / 16280
------------------
     ethr =  5.96E-09,  avg # of iterations =  7.5

     negative rho (up, down):  4.925E-02 4.922E-02

     total cpu time spent up to now is     1266.4 secs

     total energy              =   -1741.42375457 Ry
     estimated scf accuracy    <       0.00006653 Ry

     total magnetization       =     0.74 Bohr mag/cell
     absolute magnetization    =     0.85 Bohr mag/cell
[tb_dev] Currently allocated     2.14E+01 Mbytes, locked:    0 /  11
[tb_pin] Currently allocated     0.00E+00 Mbytes, locked:    0 /   0

     iteration # 40     ecut=    90.00 Ry     beta= 0.10
     Davidson diagonalization with overlap

---- Real-time Memory Report at c_bands before calling an iterative solver
          7627 MiB given to the printing process from OS
         -1482 MiB allocation reported by mallinfo(arena+hblkhd)
         46860 MiB available memory on the node where the printing process lives
     GPU memory used/free/total (MiB): 6546 / 9734 / 16280
------------------
     ethr =  5.96E-09,  avg # of iterations =  8.6

     negative rho (up, down):  4.925E-02 4.922E-02

     total cpu time spent up to now is     1312.8 secs

     total energy              =   -1741.42506979 Ry
     estimated scf accuracy    <       0.00002296 Ry

     total magnetization       =     1.31 Bohr mag/cell
     absolute magnetization    =     1.48 Bohr mag/cell
[tb_dev] Currently allocated     2.14E+01 Mbytes, locked:    0 /  11
[tb_pin] Currently allocated     0.00E+00 Mbytes, locked:    0 /   0

     iteration # 41     ecut=    90.00 Ry     beta= 0.10
     Davidson diagonalization with overlap

---- Real-time Memory Report at c_bands before calling an iterative solver
          7635 MiB given to the printing process from OS
         -1508 MiB allocation reported by mallinfo(arena+hblkhd)
         46864 MiB available memory on the node where the printing process lives
     GPU memory used/free/total (MiB): 6546 / 9734 / 16280
------------------
     ethr =  5.96E-09,  avg # of iterations =  7.3

     negative rho (up, down):  4.924E-02 4.922E-02

     total cpu time spent up to now is     1353.9 secs

     total energy              =   -1741.42538417 Ry
     estimated scf accuracy    <       0.00001186 Ry

     total magnetization       =     1.59 Bohr mag/cell
     absolute magnetization    =     1.79 Bohr mag/cell
[tb_dev] Currently allocated     2.14E+01 Mbytes, locked:    0 /  11
[tb_pin] Currently allocated     0.00E+00 Mbytes, locked:    0 /   0

     iteration # 42     ecut=    90.00 Ry     beta= 0.10
     Davidson diagonalization with overlap

---- Real-time Memory Report at c_bands before calling an iterative solver
          7636 MiB given to the printing process from OS
         -1466 MiB allocation reported by mallinfo(arena+hblkhd)
         46844 MiB available memory on the node where the printing process lives
     GPU memory used/free/total (MiB): 6546 / 9734 / 16280
------------------
     ethr =  5.96E-09,  avg # of iterations =  5.9

     negative rho (up, down):  4.924E-02 4.922E-02

     total cpu time spent up to now is     1388.9 secs

     total energy              =   -1741.42546847 Ry
     estimated scf accuracy    <       0.00001101 Ry

     total magnetization       =     1.71 Bohr mag/cell
     absolute magnetization    =     1.93 Bohr mag/cell
[tb_dev] Currently allocated     2.14E+01 Mbytes, locked:    0 /  11
[tb_pin] Currently allocated     0.00E+00 Mbytes, locked:    0 /   0

     iteration # 43     ecut=    90.00 Ry     beta= 0.10
     Davidson diagonalization with overlap

---- Real-time Memory Report at c_bands before calling an iterative solver
          7644 MiB given to the printing process from OS
         -1492 MiB allocation reported by mallinfo(arena+hblkhd)
         46845 MiB available memory on the node where the printing process lives
     GPU memory used/free/total (MiB): 6546 / 9734 / 16280
------------------
     ethr =  5.96E-09,  avg # of iterations =  2.2

     negative rho (up, down):  4.924E-02 4.922E-02

     total cpu time spent up to now is     1413.6 secs

     total energy              =   -1741.42528156 Ry
     estimated scf accuracy    <       0.00001177 Ry

     total magnetization       =     1.74 Bohr mag/cell
     absolute magnetization    =     1.96 Bohr mag/cell
[tb_dev] Currently allocated     2.14E+01 Mbytes, locked:    0 /  11
[tb_pin] Currently allocated     0.00E+00 Mbytes, locked:    0 /   0

     iteration # 44     ecut=    90.00 Ry     beta= 0.10
     Davidson diagonalization with overlap

---- Real-time Memory Report at c_bands before calling an iterative solver
          7652 MiB given to the printing process from OS
         -1450 MiB allocation reported by mallinfo(arena+hblkhd)
         46830 MiB available memory on the node where the printing process lives
     GPU memory used/free/total (MiB): 6546 / 9734 / 16280
------------------
     ethr =  5.96E-09,  avg # of iterations =  6.4

     negative rho (up, down):  4.924E-02 4.922E-02

     total cpu time spent up to now is     1450.7 secs

     total energy              =   -1741.42502913 Ry
     estimated scf accuracy    <       0.00001727 Ry

     total magnetization       =     1.86 Bohr mag/cell
     absolute magnetization    =     2.10 Bohr mag/cell
[tb_dev] Currently allocated     2.14E+01 Mbytes, locked:    0 /  11
[tb_pin] Currently allocated     0.00E+00 Mbytes, locked:    0 /   0

     iteration # 45     ecut=    90.00 Ry     beta= 0.10
     Davidson diagonalization with overlap

---- Real-time Memory Report at c_bands before calling an iterative solver
          7660 MiB given to the printing process from OS
         -1476 MiB allocation reported by mallinfo(arena+hblkhd)
         46831 MiB available memory on the node where the printing process lives
     GPU memory used/free/total (MiB): 6546 / 9734 / 16280
------------------
     ethr =  5.96E-09,  avg # of iterations =  7.2

     negative rho (up, down):  4.925E-02 4.922E-02

     total cpu time spent up to now is     1490.1 secs

     total energy              =   -1741.42522369 Ry
     estimated scf accuracy    <       0.00000997 Ry

     total magnetization       =     1.58 Bohr mag/cell
     absolute magnetization    =     1.78 Bohr mag/cell
[tb_dev] Currently allocated     2.14E+01 Mbytes, locked:    0 /  11
[tb_pin] Currently allocated     0.00E+00 Mbytes, locked:    0 /   0

     iteration # 46     ecut=    90.00 Ry     beta= 0.10
     Davidson diagonalization with overlap

---- Real-time Memory Report at c_bands before calling an iterative solver
          7675 MiB given to the printing process from OS
         -1433 MiB allocation reported by mallinfo(arena+hblkhd)
         46812 MiB available memory on the node where the printing process lives
     GPU memory used/free/total (MiB): 6546 / 9734 / 16280
------------------
     ethr =  5.96E-09,  avg # of iterations =  7.9

     negative rho (up, down):  4.924E-02 4.922E-02

     total cpu time spent up to now is     1531.6 secs

     total energy              =   -1741.42504740 Ry
     estimated scf accuracy    <       0.00001985 Ry

     total magnetization       =     1.30 Bohr mag/cell
     absolute magnetization    =     1.48 Bohr mag/cell
[tb_dev] Currently allocated     2.14E+01 Mbytes, locked:    0 /  11
[tb_pin] Currently allocated     0.00E+00 Mbytes, locked:    0 /   0

     iteration # 47     ecut=    90.00 Ry     beta= 0.10
     Davidson diagonalization with overlap

---- Real-time Memory Report at c_bands before calling an iterative solver
          7683 MiB given to the printing process from OS
         -1460 MiB allocation reported by mallinfo(arena+hblkhd)
         46815 MiB available memory on the node where the printing process lives
     GPU memory used/free/total (MiB): 6546 / 9734 / 16280
------------------
     ethr =  5.96E-09,  avg # of iterations =  6.7

     negative rho (up, down):  4.924E-02 4.922E-02

     total cpu time spent up to now is     1569.9 secs

     total energy              =   -1741.42557189 Ry
     estimated scf accuracy    <       0.00001018 Ry

     total magnetization       =     1.59 Bohr mag/cell
     absolute magnetization    =     1.80 Bohr mag/cell
[tb_dev] Currently allocated     2.14E+01 Mbytes, locked:    0 /  11
[tb_pin] Currently allocated     0.00E+00 Mbytes, locked:    0 /   0

     iteration # 48     ecut=    90.00 Ry     beta= 0.10
     Davidson diagonalization with overlap

---- Real-time Memory Report at c_bands before calling an iterative solver
          7684 MiB given to the printing process from OS
         -1417 MiB allocation reported by mallinfo(arena+hblkhd)
         46785 MiB available memory on the node where the printing process lives
     GPU memory used/free/total (MiB): 6546 / 9734 / 16280
------------------
     ethr =  5.96E-09,  avg # of iterations =  1.7

     negative rho (up, down):  4.924E-02 4.922E-02

     total cpu time spent up to now is     1592.6 secs

     total energy              =   -1741.42553671 Ry
     estimated scf accuracy    <       0.00001054 Ry

     total magnetization       =     1.57 Bohr mag/cell
     absolute magnetization    =     1.78 Bohr mag/cell
[tb_dev] Currently allocated     2.14E+01 Mbytes, locked:    0 /  11
[tb_pin] Currently allocated     0.00E+00 Mbytes, locked:    0 /   0

     iteration # 49     ecut=    90.00 Ry     beta= 0.10
     Davidson diagonalization with overlap

---- Real-time Memory Report at c_bands before calling an iterative solver
          7692 MiB given to the printing process from OS
         -1444 MiB allocation reported by mallinfo(arena+hblkhd)
         46790 MiB available memory on the node where the printing process lives
     GPU memory used/free/total (MiB): 6546 / 9734 / 16280
------------------
     ethr =  5.96E-09,  avg # of iterations =  4.7

     negative rho (up, down):  4.924E-02 4.922E-02

     total cpu time spent up to now is     1624.5 secs

     total energy              =   -1741.42435663 Ry
     estimated scf accuracy    <       0.00001315 Ry

     total magnetization       =     1.45 Bohr mag/cell
     absolute magnetization    =     1.64 Bohr mag/cell
[tb_dev] Currently allocated     2.14E+01 Mbytes, locked:    0 /  11
[tb_pin] Currently allocated     0.00E+00 Mbytes, locked:    0 /   0

     iteration # 50     ecut=    90.00 Ry     beta= 0.10
     Davidson diagonalization with overlap

---- Real-time Memory Report at c_bands before calling an iterative solver
          7700 MiB given to the printing process from OS
         -1401 MiB allocation reported by mallinfo(arena+hblkhd)
         46773 MiB available memory on the node where the printing process lives
     GPU memory used/free/total (MiB): 6546 / 9734 / 16280
------------------
     ethr =  5.96E-09,  avg # of iterations =  7.3

     negative rho (up, down):  4.925E-02 4.922E-02

     total cpu time spent up to now is     1667.0 secs

     total energy              =   -1741.42157641 Ry
     estimated scf accuracy    <       0.00001590 Ry

     total magnetization       =     1.85 Bohr mag/cell
     absolute magnetization    =     2.09 Bohr mag/cell
[tb_dev] Currently allocated     2.14E+01 Mbytes, locked:    0 /  11
[tb_pin] Currently allocated     0.00E+00 Mbytes, locked:    0 /   0

     iteration # 51     ecut=    90.00 Ry     beta= 0.10
     Davidson diagonalization with overlap

---- Real-time Memory Report at c_bands before calling an iterative solver
          7715 MiB given to the printing process from OS
         -1428 MiB allocation reported by mallinfo(arena+hblkhd)
         46778 MiB available memory on the node where the printing process lives
     GPU memory used/free/total (MiB): 6546 / 9734 / 16280
------------------
     ethr =  5.96E-09,  avg # of iterations = 10.0

     negative rho (up, down):  4.925E-02 4.922E-02

     total cpu time spent up to now is     1720.3 secs

     total energy              =   -1741.42561548 Ry
     estimated scf accuracy    <       0.00004085 Ry

     total magnetization       =     1.02 Bohr mag/cell
     absolute magnetization    =     1.16 Bohr mag/cell
[tb_dev] Currently allocated     2.14E+01 Mbytes, locked:    0 /  11
[tb_pin] Currently allocated     0.00E+00 Mbytes, locked:    0 /   0

     iteration # 52     ecut=    90.00 Ry     beta= 0.10
     Davidson diagonalization with overlap

---- Real-time Memory Report at c_bands before calling an iterative solver
          7717 MiB given to the printing process from OS
         -1385 MiB allocation reported by mallinfo(arena+hblkhd)
         46764 MiB available memory on the node where the printing process lives
     GPU memory used/free/total (MiB): 6546 / 9734 / 16280
------------------
     ethr =  5.96E-09,  avg # of iterations =  4.8

     negative rho (up, down):  4.924E-02 4.922E-02

     total cpu time spent up to now is     1752.7 secs

     total energy              =   -1741.42369558 Ry
     estimated scf accuracy    <       0.00003066 Ry

     total magnetization       =     1.17 Bohr mag/cell
     absolute magnetization    =     1.33 Bohr mag/cell
[tb_dev] Currently allocated     2.14E+01 Mbytes, locked:    0 /  11
[tb_pin] Currently allocated     0.00E+00 Mbytes, locked:    0 /   0

     iteration # 53     ecut=    90.00 Ry     beta= 0.10
     Davidson diagonalization with overlap

---- Real-time Memory Report at c_bands before calling an iterative solver
          7725 MiB given to the printing process from OS
         -1412 MiB allocation reported by mallinfo(arena+hblkhd)
         46766 MiB available memory on the node where the printing process lives
     GPU memory used/free/total (MiB): 6546 / 9734 / 16280
------------------
     ethr =  5.96E-09,  avg # of iterations =  8.7

     negative rho (up, down):  4.924E-02 4.922E-02

     total cpu time spent up to now is     1800.3 secs

     total energy              =   -1741.42551315 Ry
     estimated scf accuracy    <       0.00000997 Ry

     total magnetization       =     1.71 Bohr mag/cell
     absolute magnetization    =     1.93 Bohr mag/cell
[tb_dev] Currently allocated     2.14E+01 Mbytes, locked:    0 /  11
[tb_pin] Currently allocated     0.00E+00 Mbytes, locked:    0 /   0

     iteration # 54     ecut=    90.00 Ry     beta= 0.10
     Davidson diagonalization with overlap

---- Real-time Memory Report at c_bands before calling an iterative solver
          7738 MiB given to the printing process from OS
         -1369 MiB allocation reported by mallinfo(arena+hblkhd)
         46746 MiB available memory on the node where the printing process lives
     GPU memory used/free/total (MiB): 6546 / 9734 / 16280
------------------
     ethr =  5.96E-09,  avg # of iterations =  3.9

     negative rho (up, down):  4.924E-02 4.922E-02

     total cpu time spent up to now is     1829.8 secs

     total energy              =   -1741.42554629 Ry
     estimated scf accuracy    <       0.00000908 Ry

     total magnetization       =     1.64 Bohr mag/cell
     absolute magnetization    =     1.86 Bohr mag/cell
[tb_dev] Currently allocated     2.14E+01 Mbytes, locked:    0 /  11
[tb_pin] Currently allocated     0.00E+00 Mbytes, locked:    0 /   0

     iteration # 55     ecut=    90.00 Ry     beta= 0.10
     Davidson diagonalization with overlap

---- Real-time Memory Report at c_bands before calling an iterative solver
          7746 MiB given to the printing process from OS
         -1396 MiB allocation reported by mallinfo(arena+hblkhd)
         46749 MiB available memory on the node where the printing process lives
     GPU memory used/free/total (MiB): 6546 / 9734 / 16280
------------------
     ethr =  5.96E-09,  avg # of iterations =  1.0

     negative rho (up, down):  4.924E-02 4.922E-02

     total cpu time spent up to now is     1851.8 secs

     total energy              =   -1741.42513655 Ry
     estimated scf accuracy    <       0.00000917 Ry

[...]
     GPU memory used/free/total (MiB): 6546 / 9734 / 16280
------------------
     ethr =  5.96E-09,  avg # of iterations =  2.0

     negative rho (up, down):  4.924E-02 4.922E-02

     total cpu time spent up to now is     2180.1 secs

     total energy              =   -1741.42530128 Ry
     estimated scf accuracy    <       0.00004221 Ry

     total magnetization       =     1.98 Bohr mag/cell
     absolute magnetization    =     2.25 Bohr mag/cell
[tb_dev] Currently allocated     2.14E+01 Mbytes, locked:    0 /  11
[tb_pin] Currently allocated     0.00E+00 Mbytes, locked:    0 /   0

     iteration # 66     ecut=    90.00 Ry     beta= 0.10
     Davidson diagonalization with overlap

---- Real-time Memory Report at c_bands before calling an iterative solver
          7835 MiB given to the printing process from OS
         -1273 MiB allocation reported by mallinfo(arena+hblkhd)
         46646 MiB available memory on the node where the printing process lives
     GPU memory used/free/total (MiB): 6546 / 9734 / 16280
------------------
     ethr =  5.96E-09,  avg # of iterations =  5.7

     negative rho (up, down):  4.924E-02 4.921E-02

     total cpu time spent up to now is     2214.6 secs

     total energy              =   -1741.42532003 Ry
     estimated scf accuracy    <       0.00001546 Ry

     total magnetization       =     1.85 Bohr mag/cell
     absolute magnetization    =     2.10 Bohr mag/cell
[tb_dev] Currently allocated     2.14E+01 Mbytes, locked:    0 /  11
[tb_pin] Currently allocated     0.00E+00 Mbytes, locked:    0 /   0

     iteration # 67     ecut=    90.00 Ry     beta= 0.10
     Davidson diagonalization with overlap

---- Real-time Memory Report at c_bands before calling an iterative solver
          7842 MiB given to the printing process from OS
         -1299 MiB allocation reported by mallinfo(arena+hblkhd)
         46653 MiB available memory on the node where the printing process lives
     GPU memory used/free/total (MiB): 6546 / 9734 / 16280
------------------
     ethr =  5.96E-09,  avg # of iterations =  4.5

     negative rho (up, down):  4.924E-02 4.922E-02

     total cpu time spent up to now is     2246.3 secs

     total energy              =   -1741.42539972 Ry
     estimated scf accuracy    <       0.00002820 Ry

     total magnetization       =     1.94 Bohr mag/cell
     absolute magnetization    =     2.19 Bohr mag/cell
[tb_dev] Currently allocated     2.14E+01 Mbytes, locked:    0 /  11
[tb_pin] Currently allocated     0.00E+00 Mbytes, locked:    0 /   0

     iteration # 68     ecut=    90.00 Ry     beta= 0.10
     Davidson diagonalization with overlap

---- Real-time Memory Report at c_bands before calling an iterative solver
          7863 MiB given to the printing process from OS
         -1257 MiB allocation reported by mallinfo(arena+hblkhd)
         46622 MiB available memory on the node where the printing process lives
     GPU memory used/free/total (MiB): 6546 / 9734 / 16280
------------------
     ethr =  5.96E-09,  avg # of iterations =  4.5

     negative rho (up, down):  4.924E-02 4.922E-02

     total cpu time spent up to now is     2277.6 secs

     total energy              =   -1741.42528570 Ry
     estimated scf accuracy    <       0.00001595 Ry

     total magnetization       =     1.86 Bohr mag/cell
     absolute magnetization    =     2.11 Bohr mag/cell
[tb_dev] Currently allocated     2.14E+01 Mbytes, locked:    0 /  11
[tb_pin] Currently allocated     0.00E+00 Mbytes, locked:    0 /   0

     iteration # 69     ecut=    90.00 Ry     beta= 0.10
     Davidson diagonalization with overlap

---- Real-time Memory Report at c_bands before calling an iterative solver
          7872 MiB given to the printing process from OS
         -1283 MiB allocation reported by mallinfo(arena+hblkhd)
         46636 MiB available memory on the node where the printing process lives
     GPU memory used/free/total (MiB): 6546 / 9734 / 16280
------------------
     ethr =  5.96E-09,  avg # of iterations =  6.2

     negative rho (up, down):  4.925E-02 4.922E-02

     total cpu time spent up to now is     2315.4 secs

     total energy              =   -1741.42392723 Ry
     estimated scf accuracy    <       0.00000887 Ry

     total magnetization       =     1.67 Bohr mag/cell
     absolute magnetization    =     1.89 Bohr mag/cell
[tb_dev] Currently allocated     2.14E+01 Mbytes, locked:    0 /  11
[tb_pin] Currently allocated     0.00E+00 Mbytes, locked:    0 /   0

     iteration # 70     ecut=    90.00 Ry     beta= 0.10
     Davidson diagonalization with overlap

---- Real-time Memory Report at c_bands before calling an iterative solver
          7880 MiB given to the printing process from OS
         -1241 MiB allocation reported by mallinfo(arena+hblkhd)
         46604 MiB available memory on the node where the printing process lives
     GPU memory used/free/total (MiB): 6546 / 9734 / 16280
------------------
     ethr =  5.96E-09,  avg # of iterations =  9.1

     negative rho (up, down):  4.925E-02 4.922E-02

     total cpu time spent up to now is     2364.5 secs

     total energy              =   -1741.42573555 Ry
     estimated scf accuracy    <       0.00003138 Ry

     total magnetization       =     1.13 Bohr mag/cell
     absolute magnetization    =     1.28 Bohr mag/cell
[tb_dev] Currently allocated     2.14E+01 Mbytes, locked:    0 /  11
[tb_pin] Currently allocated     0.00E+00 Mbytes, locked:    0 /   0

     iteration # 71     ecut=    90.00 Ry     beta= 0.10
     Davidson diagonalization with overlap

---- Real-time Memory Report at c_bands before calling an iterative solver
          7887 MiB given to the printing process from OS
         -1267 MiB allocation reported by mallinfo(arena+hblkhd)
         46619 MiB available memory on the node where the printing process lives
     GPU memory used/free/total (MiB): 6546 / 9734 / 16280
------------------
     ethr =  5.96E-09,  avg # of iterations =  4.7

     negative rho (up, down):  4.925E-02 4.922E-02

     total cpu time spent up to now is     2396.0 secs

     total energy              =   -1741.42520335 Ry
     estimated scf accuracy    <       0.00003603 Ry

     total magnetization       =     1.06 Bohr mag/cell
     absolute magnetization    =     1.21 Bohr mag/cell
[tb_dev] Currently allocated     2.14E+01 Mbytes, locked:    0 /  11
[tb_pin] Currently allocated     0.00E+00 Mbytes, locked:    0 /   0

     iteration # 72     ecut=    90.00 Ry     beta= 0.10
     Davidson diagonalization with overlap

---- Real-time Memory Report at c_bands before calling an iterative solver
          7889 MiB given to the printing process from OS
         -1225 MiB allocation reported by mallinfo(arena+hblkhd)
         46596 MiB available memory on the node where the printing process lives
     GPU memory used/free/total (MiB): 6546 / 9734 / 16280
------------------
     ethr =  5.96E-09,  avg # of iterations =  6.3

     negative rho (up, down):  4.925E-02 4.922E-02

     total cpu time spent up to now is     2434.1 secs

     total energy              =   -1741.42567267 Ry
     estimated scf accuracy    <       0.00001899 Ry

     total magnetization       =     1.34 Bohr mag/cell
     absolute magnetization    =     1.52 Bohr mag/cell
[tb_dev] Currently allocated     2.14E+01 Mbytes, locked:    0 /  11
[tb_pin] Currently allocated     0.00E+00 Mbytes, locked:    0 /   0

     iteration # 73     ecut=    90.00 Ry     beta= 0.10
     Davidson diagonalization with overlap

---- Real-time Memory Report at c_bands before calling an iterative solver
          7903 MiB given to the printing process from OS
         -1251 MiB allocation reported by mallinfo(arena+hblkhd)
         46607 MiB available memory on the node where the printing process lives
     GPU memory used/free/total (MiB): 6546 / 9734 / 16280
------------------
     ethr =  5.96E-09,  avg # of iterations =  2.0

     negative rho (up, down):  4.925E-02 4.922E-02

     total cpu time spent up to now is     2457.6 secs

     total energy              =   -1741.42562240 Ry
     estimated scf accuracy    <       0.00002013 Ry

     total magnetization       =     1.31 Bohr mag/cell
     absolute magnetization    =     1.49 Bohr mag/cell
[tb_dev] Currently allocated     2.14E+01 Mbytes, locked:    0 /  11
[tb_pin] Currently allocated     0.00E+00 Mbytes, locked:    0 /   0

     iteration # 74     ecut=    90.00 Ry     beta= 0.10
     Davidson diagonalization with overlap

---- Real-time Memory Report at c_bands before calling an iterative solver
          7912 MiB given to the printing process from OS
         -1209 MiB allocation reported by mallinfo(arena+hblkhd)
         46572 MiB available memory on the node where the printing process lives
     GPU memory used/free/total (MiB): 6546 / 9734 / 16280
------------------
     ethr =  5.96E-09,  avg # of iterations =  3.6

     negative rho (up, down):  4.925E-02 4.922E-02

     total cpu time spent up to now is     2486.6 secs

     total energy              =   -1741.42555680 Ry
     estimated scf accuracy    <       0.00001731 Ry

     total magnetization       =     1.38 Bohr mag/cell
     absolute magnetization    =     1.56 Bohr mag/cell
[tb_dev] Currently allocated     2.14E+01 Mbytes, locked:    0 /  11
[tb_pin] Currently allocated     0.00E+00 Mbytes, locked:    0 /   0

     iteration # 75     ecut=    90.00 Ry     beta= 0.10
     Davidson diagonalization with overlap

---- Real-time Memory Report at c_bands before calling an iterative solver
          7920 MiB given to the printing process from OS
         -1235 MiB allocation reported by mallinfo(arena+hblkhd)
         46591 MiB available memory on the node where the printing process lives
     GPU memory used/free/total (MiB): 6546 / 9734 / 16280
------------------
     ethr =  5.96E-09,  avg # of iterations =  5.2

     negative rho (up, down):  4.925E-02 4.922E-02

     total cpu time spent up to now is     2520.0 secs

     total energy              =   -1741.42560933 Ry
     estimated scf accuracy    <       0.00002552 Ry

     total magnetization       =     1.21 Bohr mag/cell
     absolute magnetization    =     1.38 Bohr mag/cell
[tb_dev] Currently allocated     2.14E+01 Mbytes, locked:    0 /  11
[tb_pin] Currently allocated     0.00E+00 Mbytes, locked:    0 /   0

     iteration # 76     ecut=    90.00 Ry     beta= 0.10
     Davidson diagonalization with overlap

---- Real-time Memory Report at c_bands before calling an iterative solver
          7928 MiB given to the printing process from OS
         -1176 MiB allocation reported by mallinfo(arena+hblkhd)
         46558 MiB available memory on the node where the printing process lives
     GPU memory used/free/total (MiB): 6546 / 9734 / 16280
------------------
     ethr =  5.96E-09,  avg # of iterations =  4.6

     negative rho (up, down):  4.924E-02 4.922E-02

     total cpu time spent up to now is     2551.9 secs

     total energy              =   -1741.42519391 Ry
     estimated scf accuracy    <       0.00002001 Ry

     total magnetization       =     1.32 Bohr mag/cell
     absolute magnetization    =     1.50 Bohr mag/cell
[tb_dev] Currently allocated     2.14E+01 Mbytes, locked:    0 /  11
[tb_pin] Currently allocated     0.00E+00 Mbytes, locked:    0 /   0

     iteration # 77     ecut=    90.00 Ry     beta= 0.10
     Davidson diagonalization with overlap

---- Real-time Memory Report at c_bands before calling an iterative solver
          7935 MiB given to the printing process from OS
         -1203 MiB allocation reported by mallinfo(arena+hblkhd)
         46558 MiB available memory on the node where the printing process lives
     GPU memory used/free/total (MiB): 6546 / 9734 / 16280
------------------
     ethr =  5.96E-09,  avg # of iterations =  6.6

     negative rho (up, down):  4.924E-02 4.921E-02

     total cpu time spent up to now is     2590.2 secs

     total energy              =   -1741.42292668 Ry
     estimated scf accuracy    <       0.00001080 Ry

     total magnetization       =     1.57 Bohr mag/cell
     absolute magnetization    =     1.78 Bohr mag/cell
[tb_dev] Currently allocated     2.14E+01 Mbytes, locked:    0 /  11
[tb_pin] Currently allocated     0.00E+00 Mbytes, locked:    0 /   0

     iteration # 78     ecut=    90.00 Ry     beta= 0.10
     Davidson diagonalization with overlap

---- Real-time Memory Report at c_bands before calling an iterative solver
          7943 MiB given to the printing process from OS
         -1160 MiB allocation reported by mallinfo(arena+hblkhd)
         46542 MiB available memory on the node where the printing process lives
     GPU memory used/free/total (MiB): 6546 / 9734 / 16280
------------------
     ethr =  5.96E-09,  avg # of iterations = 10.0

     negative rho (up, down):  4.924E-02 4.922E-02

     total cpu time spent up to now is     2642.7 secs

     total energy              =   -1741.42463727 Ry
     estimated scf accuracy    <       0.00009744 Ry

     total magnetization       =     2.08 Bohr mag/cell
     absolute magnetization    =     2.37 Bohr mag/cell
[tb_dev] Currently allocated     2.14E+01 Mbytes, locked:    0 /  11
[tb_pin] Currently allocated     0.00E+00 Mbytes, locked:    0 /   0

     iteration # 79     ecut=    90.00 Ry     beta= 0.10
     Davidson diagonalization with overlap

---- Real-time Memory Report at c_bands before calling an iterative solver
          7958 MiB given to the printing process from OS
         -1187 MiB allocation reported by mallinfo(arena+hblkhd)
         46544 MiB available memory on the node where the printing process lives
     GPU memory used/free/total (MiB): 6546 / 9734 / 16280
------------------
     ethr =  5.96E-09,  avg # of iterations =  7.3

     negative rho (up, down):  4.924E-02 4.922E-02

     total cpu time spent up to now is     2684.8 secs

     total energy              =   -1741.42526580 Ry
     estimated scf accuracy    <       0.00001098 Ry

     total magnetization       =     1.76 Bohr mag/cell
     absolute magnetization    =     1.99 Bohr mag/cell
[tb_dev] Currently allocated     2.14E+01 Mbytes, locked:    0 /  11
[tb_pin] Currently allocated     0.00E+00 Mbytes, locked:    0 /   0

     iteration # 80     ecut=    90.00 Ry     beta= 0.10
     Davidson diagonalization with overlap

---- Real-time Memory Report at c_bands before calling an iterative solver
          7966 MiB given to the printing process from OS
         -1144 MiB allocation reported by mallinfo(arena+hblkhd)
         46518 MiB available memory on the node where the printing process lives
     GPU memory used/free/total (MiB): 6546 / 9734 / 16280
------------------
     ethr =  5.96E-09,  avg # of iterations =  7.0

     negative rho (up, down):  4.925E-02 4.923E-02

     total cpu time spent up to now is     2724.7 secs

     total energy              =   -1741.42137264 Ry
     estimated scf accuracy    <       0.00001113 Ry

     total magnetization       =     1.54 Bohr mag/cell
     absolute magnetization    =     1.74 Bohr mag/cell

     End of self-consistent calculation

     convergence NOT achieved after  80 iterations: stopping

     Writing config to output data dir ./out/aiida.save/
 
     init_run     :     40.29s CPU     10.95s WALL (       1 calls)
     electrons    :   4035.41s CPU   2713.00s WALL (       1 calls)

     Called by init_run:
     wfcinit      :      1.24s CPU      1.24s WALL (       1 calls)
                                        1.24s GPU  (       1 calls)
     potinit      :     19.87s CPU      2.25s WALL (       1 calls)
     hinit0       :     11.61s CPU      5.48s WALL (       1 calls)

     Called by electrons:
     c_bands      :   2044.46s CPU   2168.61s WALL (      81 calls)
     sum_band     :    346.16s CPU    359.44s WALL (      81 calls)
     v_of_rho     :     92.84s CPU     12.98s WALL (      81 calls)
     v_h          :     20.54s CPU      1.95s WALL (      81 calls)
     v_xc         :     72.29s CPU     11.04s WALL (      81 calls)
     newd         :    202.97s CPU     47.67s WALL (      81 calls)
                                       47.66s GPU  (      81 calls)
     PAW_pot      :   1199.09s CPU    108.49s WALL (      81 calls)
     mix_rho      :    123.27s CPU     11.93s WALL (      81 calls)

     Called by c_bands:
     init_us_2    :     48.99s CPU     67.69s WALL (   25920 calls)
     init_us_2:gp :     48.46s CPU     67.17s WALL (   25920 calls)
     cegterg      :   1737.12s CPU   1824.98s WALL (   12960 calls)

     Called by sum_band:
     sum_band:wei :      0.99s CPU      1.00s WALL (      81 calls)
                                        0.99s GPU  (      81 calls)
     sum_band:loo :    298.68s CPU    311.76s WALL (      81 calls)
                                      311.76s GPU  (      81 calls)
     sum_band:buf :    125.24s CPU    126.64s WALL (   12960 calls)
                                      126.55s GPU  (   12960 calls)
     sum_band:ini :     24.09s CPU     30.05s WALL (   12960 calls)
                                       29.97s GPU  (   12960 calls)
     sum_band:cal :      0.56s CPU     18.07s WALL (   12960 calls)
                                       14.35s GPU  (   12960 calls)
     sum_band:bec :      4.76s CPU      5.01s WALL (   12960 calls)
                                        4.87s GPU  (   12960 calls)
     addusdens    :     34.66s CPU     34.82s WALL (      81 calls)
                                       34.82s GPU  (      81 calls)
     addusd:skk   :      0.10s CPU      0.10s WALL (     243 calls)
                                        0.10s GPU  (     243 calls)

     Called by *egterg:
     cdiaghg      :    442.57s CPU    505.46s WALL (   77224 calls)
                                      504.93s GPU  (   77224 calls)
     cegterg:over :     56.85s CPU     58.58s WALL (   64584 calls)
     cegterg:upda :     67.70s CPU     69.97s WALL (   64584 calls)
     cegterg:last :     71.49s CPU     72.22s WALL (   38926 calls)
     h_psi        :    971.86s CPU    990.44s WALL (   77544 calls)
                                      988.33s GPU  (   77544 calls)
     s_psi        :     17.49s CPU     72.65s WALL (   77544 calls)
                                       67.07s GPU  (   77544 calls)
     g_psi        :      0.46s CPU      7.08s WALL (   64584 calls)
                                        6.66s GPU  (   64584 calls)

     Called by h_psi:
     h_psi:calbec :      2.69s CPU     57.62s WALL (   77544 calls)
                                       57.11s GPU  (   77544 calls)
     vloc_psi     :    831.94s CPU    847.29s WALL (   77544 calls)
                                      846.80s GPU  (   77544 calls)
     add_vuspsi   :     22.60s CPU     73.53s WALL (   77544 calls)
                                       73.01s GPU  (   77544 calls)

     General routines
     calbec       :      2.42s CPU      2.50s WALL (   90504 calls)
     fft          :      7.08s CPU      1.55s WALL (    2025 calls)
                                        1.08s GPU  (    1863 calls)
     ffts         :      0.21s CPU      0.09s WALL (     324 calls)
                                        0.02s GPU  (     162 calls)
     fftw         :     10.05s CPU    680.91s WALL (  538498 calls)
                                      675.16s GPU  (  538498 calls)
     interpolate  :     20.21s CPU      1.76s WALL (     162 calls)
     davcio       :      0.18s CPU      7.90s WALL (     338 calls)
 
     Parallel routines

     PAW routines
     PAW_pot      :   1199.09s CPU    108.49s WALL (      81 calls)
     PAW_symme    :      0.51s CPU      0.08s WALL (     161 calls)
 
     PWSCF        :      1h 7m CPU  45m29.95s WALL

 
   This run was terminated on:  21:54:24  23Oct2023            

=------------------------------------------------------------------------------=
   JOB DONE.
=------------------------------------------------------------------------------=
