
     Program PWSCF v.7.2 starts on 30Nov2023 at  4:20:21 
        Git branch: develop
        Last git commit: 9055681be6fc8200e6fffe76ed5fda34c2696339
        Last git commit date: Wed Nov 8 16:29:39 2023 +0000
        Last git commit subject: Merge branch 'calbec_fix' into 'develop'

     This program is part of the open-source Quantum ESPRESSO suite
     for quantum simulation of materials; please cite
         "P. Giannozzi et al., J. Phys.:Condens. Matter 21 395502 (2009);
         "P. Giannozzi et al., J. Phys.:Condens. Matter 29 465901 (2017);
         "P. Giannozzi et al., J. Chem. Phys. 152 154105 (2020);
          URL http://www.quantum-espresso.org", 
     in publications or presentations arising from this work. More details at
     http://www.quantum-espresso.org/quote

     Parallel version (MPI), running on    56 processors

     MPI processes distributed on     1 nodes
     488323 MiB available memory on the printing compute node when the environment starts

     Reading input from aiida.in

     Current dimensions of program PWSCF are:
     Max number of different atomic species (ntypx) = 10
     Max number of k-points (npk) =  40000
     Max angular momentum in pseudopotentials (lmaxx) =  4
     file In.pbesol-dn-rrkjus_psl.0.2.2.UPF: wavefunction(s)  5S renormalized
     Message from routine setup:
     using ibrav=0 with symmetry is DISCOURAGED, use correct ibrav instead

     K-points division:     npool     =       7
     R & G space division:  proc/nbgrp/npool/nimage =       8
     Subspace diagonalization in iterative solution of the eigenvalue problem:
     a serial algorithm will be used


     Parallelization info
     --------------------
     sticks:   dense  smooth     PW     G-vecs:    dense   smooth      PW
     Min         256     128     37                 7546     2666     433
     Max         258     129     38                 7547     2667     436
     Sum        2053    1027    301                60375    21331    3479

     Using Slab Decomposition



     bravais-lattice index     =            0
     lattice parameter (alat)  =       8.5786  a.u.
     unit-cell volume          =     446.4180 (a.u.)^3
     number of atoms/cell      =            4
     number of atomic types    =            4
     number of electrons       =        52.00
     number of Kohn-Sham states=           35
     kinetic-energy cutoff     =      50.0000  Ry
     charge density cutoff     =     400.0000  Ry
     scf convergence threshold =      8.0E-10
     mixing beta               =       0.4000
     number of iterations used =            8  plain     mixing
     Exchange-correlation= SLA  PW   PSX  PSC
                           (   1   4  10   8   0   0   0)

     celldm(1)=   8.578649  celldm(2)=   0.000000  celldm(3)=   0.000000
     celldm(4)=   0.000000  celldm(5)=   0.000000  celldm(6)=   0.000000

     crystal axes: (cart. coord. in units of alat)
               a(1) = (   0.000000   0.707107   0.707107 )  
               a(2) = (   0.707107   0.000000   0.707107 )  
               a(3) = (   0.707107   0.707107   0.000000 )  

     reciprocal axes: (cart. coord. in units 2 pi/alat)
               b(1) = ( -0.707107  0.707107  0.707107 )  
               b(2) = (  0.707107 -0.707107  0.707107 )  
               b(3) = (  0.707107  0.707107 -0.707107 )  


     PseudoPot. # 1 for Cr read from file:
     ./pseudo/cr_pbesol_v1.5.uspp.F.UPF
     MD5 check sum: a621641e0be27168676a837af8893d0f
     Pseudo is Ultrasoft + core correction, Zval = 14.0
     Generated by new atomic code, or converted to UPF format
     Using radial grid of  857 points,  6 beta functions with: 
                l(1) =   0
                l(2) =   0
                l(3) =   1
                l(4) =   1
                l(5) =   2
                l(6) =   2
     Q(r) pseudized with  8 coefficients,  rinner =    0.950   0.950   0.950
                                                       0.950   0.950

     PseudoPot. # 2 for In read from file:
     ./pseudo/In.pbesol-dn-rrkjus_psl.0.2.2.UPF
     MD5 check sum: 2a3399a31491503da6b8c7d8e01e9843
     Pseudo is Ultrasoft + core correction, Zval = 13.0
     Generated using "atomic" code by A. Dal Corso  v.6.0 svn rev. 13079
     Using radial grid of 1241 points,  6 beta functions with: 
                l(1) =   0
                l(2) =   0
                l(3) =   1
                l(4) =   1
                l(5) =   2
                l(6) =   2
     Q(r) pseudized with 0 coefficients 


     PseudoPot. # 3 for V  read from file:
     ./pseudo/v_pbesol_v1.4.uspp.F.UPF
     MD5 check sum: 72fa7d0034c41d8adc50bbc8c632b9f9
     Pseudo is Ultrasoft + core correction, Zval = 13.0
     Generated by new atomic code, or converted to UPF format
     Using radial grid of  853 points,  6 beta functions with: 
                l(1) =   0
                l(2) =   0
                l(3) =   1
                l(4) =   1
                l(5) =   2
                l(6) =   2
     Q(r) pseudized with  8 coefficients,  rinner =    1.100   1.100   1.100
                                                       1.100   1.100

     PseudoPot. # 4 for Zr read from file:
     ./pseudo/zr_pbesol_v1.uspp.F.UPF
     MD5 check sum: f29f2a20533738a515abe666fee35838
     Pseudo is Ultrasoft + core correction, Zval = 12.0
     Generated by new atomic code, or converted to UPF format
     Using radial grid of  887 points,  6 beta functions with: 
                l(1) =   0
                l(2) =   0
                l(3) =   1
                l(4) =   1
                l(5) =   2
                l(6) =   2
     Q(r) pseudized with  6 coefficients,  rinner =    1.200   1.200   1.200
                                                       1.200   1.200

     atomic species   valence    mass     pseudopotential
     Cr               14.00    51.99610     Cr( 1.00)
     In               13.00   114.81800     In( 1.00)
     V                13.00    50.94150     V ( 1.00)
     Zr               12.00    91.22400     Zr( 1.00)

     Starting magnetic structure 
     atomic species   magnetization
     Cr              0.357
     In              0.100
     V               0.385
     Zr              0.417

     24 Sym. Ops. (no inversion) found


                                    s                        frac. trans.

      isym =  1     identity                                     

 cryst.   s( 1) = (     1          0          0      )
                  (     0          1          0      )
                  (     0          0          1      )

 cart.    s( 1) = (  1.0000000 -0.0000000  0.0000000 )
                  ( -0.0000000  1.0000000  0.0000000 )
                  ( -0.0000000  0.0000000  1.0000000 )


      isym =  2     180 deg rotation - cart. axis [0,0,1]        

 cryst.   s( 2) = (     0          1         -1      )
                  (     1          0         -1      )
                  (     0          0         -1      )

 cart.    s( 2) = ( -1.0000000  0.0000000  0.0000000 )
                  (  0.0000000 -1.0000000  0.0000000 )
                  (  0.0000000 -0.0000000  1.0000000 )


      isym =  3     180 deg rotation - cart. axis [0,1,0]        

 cryst.   s( 3) = (     0         -1          1      )
                  (     0         -1          0      )
                  (     1         -1          0      )

 cart.    s( 3) = ( -1.0000000 -0.0000000 -0.0000000 )
                  (  0.0000000  1.0000000 -0.0000000 )
                  (  0.0000000  0.0000000 -1.0000000 )


      isym =  4     180 deg rotation - cart. axis [1,0,0]        

 cryst.   s( 4) = (    -1          0          0      )
                  (    -1          0          1      )
                  (    -1          1          0      )

 cart.    s( 4) = (  1.0000000  0.0000000 -0.0000000 )
                  ( -0.0000000 -1.0000000 -0.0000000 )
                  ( -0.0000000 -0.0000000 -1.0000000 )


      isym =  5     120 deg rotation - cart. axis [-1,-1,-1]     

 cryst.   s( 5) = (     0          0          1      )
                  (     1          0          0      )
                  (     0          1          0      )

 cart.    s( 5) = (  0.0000000  1.0000000 -0.0000000 )
                  (  0.0000000 -0.0000000  1.0000000 )
                  (  1.0000000 -0.0000000  0.0000000 )


      isym =  6     120 deg rotation - cart. axis [-1,1,1]       

 cryst.   s( 6) = (     1         -1          0      )
                  (     0         -1          1      )
                  (     0         -1          0      )

 cart.    s( 6) = ( -0.0000000 -1.0000000 -0.0000000 )
                  ( -0.0000000  0.0000000  1.0000000 )
                  ( -1.0000000  0.0000000  0.0000000 )


      isym =  7     120 deg rotation - cart. axis [1,1,-1]       

 cryst.   s( 7) = (    -1          1          0      )
                  (    -1          0          0      )
                  (    -1          0          1      )

 cart.    s( 7) = ( -0.0000000  1.0000000  0.0000000 )
                  ( -0.0000000 -0.0000000 -1.0000000 )
                  ( -1.0000000 -0.0000000 -0.0000000 )


      isym =  8     120 deg rotation - cart. axis [1,-1,1]       

 cryst.   s( 8) = (     0          0         -1      )
                  (     0          1         -1      )
                  (     1          0         -1      )

 cart.    s( 8) = (  0.0000000 -1.0000000  0.0000000 )
                  (  0.0000000  0.0000000 -1.0000000 )
                  (  1.0000000  0.0000000 -0.0000000 )


      isym =  9     120 deg rotation - cart. axis [1,1,1]        

 cryst.   s( 9) = (     0          1          0      )
                  (     0          0          1      )
                  (     1          0          0      )

 cart.    s( 9) = ( -0.0000000  0.0000000  1.0000000 )
                  (  1.0000000  0.0000000 -0.0000000 )
                  (  0.0000000  1.0000000 -0.0000000 )


      isym = 10     120 deg rotation - cart. axis [-1,1,-1]      

 cryst.   s(10) = (    -1          0          1      )
                  (    -1          1          0      )
                  (    -1          0          0      )

 cart.    s(10) = (  0.0000000 -0.0000000  1.0000000 )
                  ( -1.0000000 -0.0000000 -0.0000000 )
                  ( -0.0000000 -1.0000000 -0.0000000 )


      isym = 11     120 deg rotation - cart. axis [1,-1,-1]      

 cryst.   s(11) = (     1          0         -1      )
                  (     0          0         -1      )
                  (     0          1         -1      )

 cart.    s(11) = (  0.0000000  0.0000000 -1.0000000 )
                  ( -1.0000000  0.0000000  0.0000000 )
                  ( -0.0000000  1.0000000  0.0000000 )


      isym = 12     120 deg rotation - cart. axis [-1,-1,1]      

 cryst.   s(12) = (     0         -1          0      )
                  (     1         -1          0      )
                  (     0         -1          1      )

 cart.    s(12) = ( -0.0000000 -0.0000000 -1.0000000 )
                  (  1.0000000 -0.0000000  0.0000000 )
                  (  0.0000000 -1.0000000  0.0000000 )


      isym = 13     inv. 180 deg rotation - cart. axis [1,1,0]   

 cryst.   s(13) = (     1          0         -1      )
                  (     0          1         -1      )
                  (     0          0         -1      )

 cart.    s(13) = (  0.0000000 -1.0000000  0.0000000 )
                  ( -1.0000000  0.0000000  0.0000000 )
                  ( -0.0000000  0.0000000  1.0000000 )


      isym = 14     inv. 180 deg rotation - cart. axis [1,-1,0]  

 cryst.   s(14) = (     0          1          0      )
                  (     1          0          0      )
                  (     0          0          1      )

 cart.    s(14) = ( -0.0000000  1.0000000  0.0000000 )
                  (  1.0000000 -0.0000000  0.0000000 )
                  (  0.0000000 -0.0000000  1.0000000 )


      isym = 15     inv.  90 deg rotation - cart. axis [0,0,-1]  

 cryst.   s(15) = (     0         -1          0      )
                  (     0         -1          1      )
                  (     1         -1          0      )

 cart.    s(15) = ( -0.0000000 -1.0000000 -0.0000000 )
                  (  1.0000000  0.0000000 -0.0000000 )
                  (  0.0000000  0.0000000 -1.0000000 )


      isym = 16     inv.  90 deg rotation - cart. axis [0,0,1]   

 cryst.   s(16) = (    -1          0          1      )
                  (    -1          0          0      )
                  (    -1          1          0      )

 cart.    s(16) = (  0.0000000  1.0000000 -0.0000000 )
                  ( -1.0000000 -0.0000000 -0.0000000 )
                  ( -0.0000000 -0.0000000 -1.0000000 )


      isym = 17     inv. 180 deg rotation - cart. axis [1,0,1]   

 cryst.   s(17) = (     1         -1          0      )
                  (     0         -1          0      )
                  (     0         -1          1      )

 cart.    s(17) = ( -0.0000000 -0.0000000 -1.0000000 )
                  ( -0.0000000  1.0000000  0.0000000 )
                  ( -1.0000000  0.0000000  0.0000000 )


      isym = 18     inv. 180 deg rotation - cart. axis [-1,0,1]  

 cryst.   s(18) = (     0          0          1      )
                  (     0          1          0      )
                  (     1          0          0      )

 cart.    s(18) = (  0.0000000 -0.0000000  1.0000000 )
                  (  0.0000000  1.0000000 -0.0000000 )
                  (  1.0000000  0.0000000 -0.0000000 )


      isym = 19     inv.  90 deg rotation - cart. axis [0,1,0]   

 cryst.   s(19) = (     0          0         -1      )
                  (     1          0         -1      )
                  (     0          1         -1      )

 cart.    s(19) = (  0.0000000  0.0000000 -1.0000000 )
                  (  0.0000000 -1.0000000  0.0000000 )
                  (  1.0000000 -0.0000000  0.0000000 )


      isym = 20     inv.  90 deg rotation - cart. axis [0,-1,0]  

 cryst.   s(20) = (    -1          1          0      )
                  (    -1          0          1      )
                  (    -1          0          0      )

 cart.    s(20) = ( -0.0000000  0.0000000  1.0000000 )
                  ( -0.0000000 -1.0000000 -0.0000000 )
                  ( -1.0000000 -0.0000000 -0.0000000 )


      isym = 21     inv. 180 deg rotation - cart. axis [0,1,1]   

 cryst.   s(21) = (    -1          0          0      )
                  (    -1          1          0      )
                  (    -1          0          1      )

 cart.    s(21) = (  1.0000000 -0.0000000  0.0000000 )
                  ( -0.0000000 -0.0000000 -1.0000000 )
                  ( -0.0000000 -1.0000000 -0.0000000 )


      isym = 22     inv. 180 deg rotation - cart. axis [0,1,-1]  

 cryst.   s(22) = (     1          0          0      )
                  (     0          0          1      )
                  (     0          1          0      )

 cart.    s(22) = (  1.0000000  0.0000000 -0.0000000 )
                  ( -0.0000000  0.0000000  1.0000000 )
                  ( -0.0000000  1.0000000  0.0000000 )


      isym = 23     inv.  90 deg rotation - cart. axis [-1,0,0]  

 cryst.   s(23) = (     0          1         -1      )
                  (     0          0         -1      )
                  (     1          0         -1      )

 cart.    s(23) = ( -1.0000000  0.0000000  0.0000000 )
                  (  0.0000000  0.0000000 -1.0000000 )
                  (  0.0000000  1.0000000 -0.0000000 )


      isym = 24     inv.  90 deg rotation - cart. axis [1,0,0]   

 cryst.   s(24) = (     0         -1          1      )
                  (     1         -1          0      )
                  (     0         -1          0      )

 cart.    s(24) = ( -1.0000000 -0.0000000 -0.0000000 )
                  (  0.0000000 -0.0000000  1.0000000 )
                  (  0.0000000 -1.0000000  0.0000000 )


   Cartesian axes

     site n.     atom                  positions (alat units)
         1        Zr     tau(   1) = (   0.3535534   0.3535534   0.3535534  )
         2        V      tau(   2) = (   0.7071068   0.0000000   0.0000000  )
         3        Cr     tau(   3) = (   0.0000000   0.0000000   0.0000000  )
         4        In     tau(   4) = (   0.3535534   0.3535534   1.0606602  )

   Crystallographic axes

     site n.     atom                  positions (cryst. coord.)
         1        Zr     tau(   1) = (  0.2500000  0.2500000  0.2500000  )
         2        V      tau(   2) = ( -0.5000000  0.5000000  0.5000000  )
         3        Cr     tau(   3) = (  0.0000000  0.0000000  0.0000000  )
         4        In     tau(   4) = (  0.7500000  0.7500000 -0.2500000  )

     number of k points=    72  Marzari-Vanderbilt smearing, width (Ry)=  0.0200
                       cart. coord. in units 2pi/alat
        k(    1) = (   0.0000000   0.0000000   0.0000000), wk =   0.0005787
        k(    2) = (   0.0589256   0.0589256  -0.0589256), wk =   0.0046296
        k(    3) = (   0.1178511   0.1178511  -0.1178511), wk =   0.0046296
        k(    4) = (   0.1767767   0.1767767  -0.1767767), wk =   0.0046296
        k(    5) = (   0.2357023   0.2357023  -0.2357023), wk =   0.0046296
        k(    6) = (   0.2946278   0.2946278  -0.2946278), wk =   0.0046296
        k(    7) = (  -0.3535534  -0.3535534   0.3535534), wk =   0.0023148
        k(    8) = (   0.1178511   0.0000000  -0.0000000), wk =   0.0034722
        k(    9) = (   0.1767767   0.0589256  -0.0589256), wk =   0.0138889
        k(   10) = (   0.2357023   0.1178511  -0.1178511), wk =   0.0138889
        k(   11) = (   0.2946278   0.1767767  -0.1767767), wk =   0.0138889
        k(   12) = (   0.3535534   0.2357023  -0.2357023), wk =   0.0138889
        k(   13) = (  -0.2946278  -0.4124790   0.4124790), wk =   0.0138889
        k(   14) = (  -0.2357023  -0.3535534   0.3535534), wk =   0.0138889
        k(   15) = (  -0.1767767  -0.2946278   0.2946278), wk =   0.0138889
        k(   16) = (  -0.1178511  -0.2357023   0.2357023), wk =   0.0138889
        k(   17) = (  -0.0589256  -0.1767767   0.1767767), wk =   0.0138889
        k(   18) = (  -0.0000000  -0.1178511   0.1178511), wk =   0.0069444
        k(   19) = (   0.2357023   0.0000000  -0.0000000), wk =   0.0034722
        k(   20) = (   0.2946278   0.0589256  -0.0589256), wk =   0.0138889
        k(   21) = (   0.3535534   0.1178511  -0.1178511), wk =   0.0138889
        k(   22) = (   0.4124790   0.1767767  -0.1767767), wk =   0.0138889
        k(   23) = (  -0.2357023  -0.4714045   0.4714045), wk =   0.0138889
        k(   24) = (  -0.1767767  -0.4124790   0.4124790), wk =   0.0138889
        k(   25) = (  -0.1178511  -0.3535534   0.3535534), wk =   0.0138889
        k(   26) = (  -0.0589256  -0.2946278   0.2946278), wk =   0.0138889
        k(   27) = (   0.0000000  -0.2357023   0.2357023), wk =   0.0069444
        k(   28) = (   0.3535534   0.0000000   0.0000000), wk =   0.0034722
        k(   29) = (   0.4124790   0.0589256  -0.0589256), wk =   0.0138889
        k(   30) = (   0.4714045   0.1178511  -0.1178511), wk =   0.0138889
        k(   31) = (  -0.1767767  -0.5303301   0.5303301), wk =   0.0138889
        k(   32) = (  -0.1178511  -0.4714045   0.4714045), wk =   0.0138889
        k(   33) = (  -0.0589256  -0.4124790   0.4124790), wk =   0.0138889
        k(   34) = (   0.0000000  -0.3535534   0.3535534), wk =   0.0069444
        k(   35) = (   0.4714045   0.0000000  -0.0000000), wk =   0.0034722
        k(   36) = (   0.5303301   0.0589256  -0.0589256), wk =   0.0138889
        k(   37) = (  -0.1178511  -0.5892557   0.5892557), wk =   0.0138889
        k(   38) = (  -0.0589256  -0.5303301   0.5303301), wk =   0.0138889
        k(   39) = (  -0.0000000  -0.4714045   0.4714045), wk =   0.0069444
        k(   40) = (   0.5892557   0.0000000  -0.0000000), wk =   0.0034722
        k(   41) = (  -0.0589256  -0.6481812   0.6481812), wk =   0.0138889
        k(   42) = (   0.0000000  -0.5892557   0.5892557), wk =   0.0069444
        k(   43) = (  -0.7071068   0.0000000   0.0000000), wk =   0.0017361
        k(   44) = (   0.2357023   0.1178511   0.0000000), wk =   0.0138889
        k(   45) = (   0.2946278   0.1767767  -0.0589256), wk =   0.0277778
        k(   46) = (   0.3535534   0.2357023  -0.1178511), wk =   0.0277778
        k(   47) = (  -0.2946278  -0.4124790   0.5303301), wk =   0.0277778
        k(   48) = (  -0.2357023  -0.3535534   0.4714045), wk =   0.0138889
        k(   49) = (   0.3535534   0.1178511   0.0000000), wk =   0.0138889
        k(   50) = (   0.4124790   0.1767767  -0.0589256), wk =   0.0277778
        k(   51) = (  -0.2357023  -0.4714045   0.5892557), wk =   0.0277778
        k(   52) = (  -0.1767767  -0.4124790   0.5303301), wk =   0.0277778
        k(   53) = (  -0.1178511  -0.3535534   0.4714045), wk =   0.0277778
        k(   54) = (  -0.0589256  -0.2946278   0.4124790), wk =   0.0277778
        k(   55) = (   0.0000000  -0.2357023   0.3535534), wk =   0.0138889
        k(   56) = (   0.4714045   0.1178511  -0.0000000), wk =   0.0138889
        k(   57) = (  -0.1767767  -0.5303301   0.6481812), wk =   0.0277778
        k(   58) = (  -0.1178511  -0.4714045   0.5892557), wk =   0.0277778
        k(   59) = (  -0.0589256  -0.4124790   0.5303301), wk =   0.0277778
        k(   60) = (  -0.0000000  -0.3535534   0.4714045), wk =   0.0138889
        k(   61) = (  -0.1178511  -0.5892557   0.7071068), wk =   0.0138889
        k(   62) = (  -0.0589256  -0.5303301   0.6481812), wk =   0.0277778
        k(   63) = (  -0.0000000  -0.4714045   0.5892557), wk =   0.0138889
        k(   64) = (  -0.7071068   0.1178511  -0.0000000), wk =   0.0069444
        k(   65) = (  -0.2357023  -0.4714045   0.7071068), wk =   0.0138889
        k(   66) = (  -0.1767767  -0.4124790   0.6481812), wk =   0.0277778
        k(   67) = (  -0.1178511  -0.3535534   0.5892557), wk =   0.0138889
        k(   68) = (  -0.1178511  -0.4714045   0.7071068), wk =   0.0138889
        k(   69) = (  -0.0589256  -0.4124790   0.6481812), wk =   0.0277778
        k(   70) = (   0.0000000  -0.3535534   0.5892557), wk =   0.0138889
        k(   71) = (  -0.7071068   0.2357023   0.0000000), wk =   0.0069444
        k(   72) = (  -0.7071068   0.3535534   0.0000000), wk =   0.0034722

                       cryst. coord.
        k(    1) = (   0.0000000   0.0000000   0.0000000), wk =   0.0005787
        k(    2) = (   0.0000000   0.0000000   0.0833333), wk =   0.0046296
        k(    3) = (   0.0000000   0.0000000   0.1666667), wk =   0.0046296
        k(    4) = (   0.0000000   0.0000000   0.2500000), wk =   0.0046296
        k(    5) = (   0.0000000   0.0000000   0.3333333), wk =   0.0046296
        k(    6) = (  -0.0000000  -0.0000000   0.4166667), wk =   0.0046296
        k(    7) = (  -0.0000000  -0.0000000  -0.5000000), wk =   0.0023148
        k(    8) = (  -0.0000000   0.0833333   0.0833333), wk =   0.0034722
        k(    9) = (   0.0000000   0.0833333   0.1666667), wk =   0.0138889
        k(   10) = (  -0.0000000   0.0833333   0.2500000), wk =   0.0138889
        k(   11) = (   0.0000000   0.0833333   0.3333333), wk =   0.0138889
        k(   12) = (  -0.0000000   0.0833333   0.4166667), wk =   0.0138889
        k(   13) = (  -0.0000000   0.0833333  -0.5000000), wk =   0.0138889
        k(   14) = (  -0.0000000   0.0833333  -0.4166667), wk =   0.0138889
        k(   15) = (  -0.0000000   0.0833333  -0.3333333), wk =   0.0138889
        k(   16) = (  -0.0000000   0.0833333  -0.2500000), wk =   0.0138889
        k(   17) = (  -0.0000000   0.0833333  -0.1666667), wk =   0.0138889
        k(   18) = (   0.0000000   0.0833333  -0.0833333), wk =   0.0069444
        k(   19) = (  -0.0000000   0.1666667   0.1666667), wk =   0.0034722
        k(   20) = (  -0.0000000   0.1666667   0.2500000), wk =   0.0138889
        k(   21) = (   0.0000000   0.1666667   0.3333333), wk =   0.0138889
        k(   22) = (  -0.0000000   0.1666667   0.4166667), wk =   0.0138889
        k(   23) = (  -0.0000000   0.1666667  -0.5000000), wk =   0.0138889
        k(   24) = (  -0.0000000   0.1666667  -0.4166667), wk =   0.0138889
        k(   25) = (  -0.0000000   0.1666667  -0.3333333), wk =   0.0138889
        k(   26) = (   0.0000000   0.1666667  -0.2500000), wk =   0.0138889
        k(   27) = (  -0.0000000   0.1666667  -0.1666667), wk =   0.0069444
        k(   28) = (   0.0000000   0.2500000   0.2500000), wk =   0.0034722
        k(   29) = (   0.0000000   0.2500000   0.3333333), wk =   0.0138889
        k(   30) = (  -0.0000000   0.2500000   0.4166667), wk =   0.0138889
        k(   31) = (   0.0000000   0.2500000  -0.5000000), wk =   0.0138889
        k(   32) = (  -0.0000000   0.2500000  -0.4166667), wk =   0.0138889
        k(   33) = (  -0.0000000   0.2500000  -0.3333333), wk =   0.0138889
        k(   34) = (  -0.0000000   0.2500000  -0.2500000), wk =   0.0069444
        k(   35) = (  -0.0000000   0.3333333   0.3333333), wk =   0.0034722
        k(   36) = (  -0.0000000   0.3333333   0.4166667), wk =   0.0138889
        k(   37) = (   0.0000000   0.3333333  -0.5000000), wk =   0.0138889
        k(   38) = (  -0.0000000   0.3333333  -0.4166667), wk =   0.0138889
        k(   39) = (   0.0000000   0.3333333  -0.3333333), wk =   0.0069444
        k(   40) = (   0.0000000   0.4166667   0.4166667), wk =   0.0034722
        k(   41) = (  -0.0000000   0.4166667  -0.5000000), wk =   0.0138889
        k(   42) = (   0.0000000   0.4166667  -0.4166667), wk =   0.0069444
        k(   43) = (   0.0000000  -0.5000000  -0.5000000), wk =   0.0017361
        k(   44) = (   0.0833333   0.1666667   0.2500000), wk =   0.0138889
        k(   45) = (   0.0833333   0.1666667   0.3333333), wk =   0.0277778
        k(   46) = (   0.0833333   0.1666667   0.4166667), wk =   0.0277778
        k(   47) = (   0.0833333   0.1666667  -0.5000000), wk =   0.0277778
        k(   48) = (   0.0833333   0.1666667  -0.4166667), wk =   0.0138889
        k(   49) = (   0.0833333   0.2500000   0.3333333), wk =   0.0138889
        k(   50) = (   0.0833333   0.2500000   0.4166667), wk =   0.0277778
        k(   51) = (   0.0833333   0.2500000  -0.5000000), wk =   0.0277778
        k(   52) = (   0.0833333   0.2500000  -0.4166667), wk =   0.0277778
        k(   53) = (   0.0833333   0.2500000  -0.3333333), wk =   0.0277778
        k(   54) = (   0.0833333   0.2500000  -0.2500000), wk =   0.0277778
        k(   55) = (   0.0833333   0.2500000  -0.1666667), wk =   0.0138889
        k(   56) = (   0.0833333   0.3333333   0.4166667), wk =   0.0138889
        k(   57) = (   0.0833333   0.3333333  -0.5000000), wk =   0.0277778
        k(   58) = (   0.0833333   0.3333333  -0.4166667), wk =   0.0277778
        k(   59) = (   0.0833333   0.3333333  -0.3333333), wk =   0.0277778
        k(   60) = (   0.0833333   0.3333333  -0.2500000), wk =   0.0138889
        k(   61) = (   0.0833333   0.4166667  -0.5000000), wk =   0.0138889
        k(   62) = (   0.0833333   0.4166667  -0.4166667), wk =   0.0277778
        k(   63) = (   0.0833333   0.4166667  -0.3333333), wk =   0.0138889
        k(   64) = (   0.0833333  -0.5000000  -0.4166667), wk =   0.0069444
        k(   65) = (   0.1666667   0.3333333  -0.5000000), wk =   0.0138889
        k(   66) = (   0.1666667   0.3333333  -0.4166667), wk =   0.0277778
        k(   67) = (   0.1666667   0.3333333  -0.3333333), wk =   0.0138889
        k(   68) = (   0.1666667   0.4166667  -0.4166667), wk =   0.0138889
        k(   69) = (   0.1666667   0.4166667  -0.3333333), wk =   0.0277778
        k(   70) = (   0.1666667   0.4166667  -0.2500000), wk =   0.0138889
        k(   71) = (   0.1666667  -0.5000000  -0.3333333), wk =   0.0069444
        k(   72) = (   0.2500000  -0.5000000  -0.2500000), wk =   0.0034722

     Dense  grid:    60375 G-vectors     FFT dimensions: (  60,  60,  60)

     Smooth grid:    21331 G-vectors     FFT dimensions: (  40,  40,  40)

     Dynamical RAM for                 wfc:       0.18 MB

     Dynamical RAM for     wfc (w. buffer):       3.91 MB

     Dynamical RAM for           str. fact:       0.46 MB

     Dynamical RAM for           local pot:       0.00 MB

     Dynamical RAM for          nlocal pot:       0.37 MB

     Dynamical RAM for                qrad:       6.42 MB

     Dynamical RAM for          rho,v,vnew:       2.01 MB

     Dynamical RAM for               rhoin:       0.67 MB

     Dynamical RAM for            rho*nmix:       3.69 MB

     Dynamical RAM for           G-vectors:       0.45 MB

     Dynamical RAM for          h,s,v(r/c):       0.06 MB

     Dynamical RAM for          <psi|beta>:       0.04 MB

     Dynamical RAM for      wfcinit/wfcrot:       0.47 MB

     Dynamical RAM for           addusdens:       3.29 MB

     Dynamical RAM for          addusforce:       3.20 MB

     Dynamical RAM for         addusstress:       3.43 MB

     Estimated static dynamical RAM per process >      16.19 MB

     Estimated max dynamical RAM per process >      23.30 MB

     Estimated total dynamical RAM >       1.10 GB

     Check: negative core charge=   -0.000002
     Generating pointlists ...
     new r_m :   0.2526 (alat units)  2.1670 (a.u.) for type    1
     new r_m :   0.2526 (alat units)  2.1670 (a.u.) for type    2
     new r_m :   0.2526 (alat units)  2.1670 (a.u.) for type    3
     new r_m :   0.2526 (alat units)  2.1670 (a.u.) for type    4

     The initial density is read from file :
     ./out/aiida.save/charge-density


     negative rho (up, down):  3.114E-02 3.427E-02
     Starting wfcs are   42 randomized atomic wfcs

     total cpu time spent up to now is        2.0 secs

     per-process dynamical memory:    27.7 Mb

     Self-consistent Calculation

     iteration #  1     ecut=    50.00 Ry     beta= 0.40
     PPCG style diagonalization

---- Real-time Memory Report at c_bands before calling an iterative solver
            65 MiB given to the printing process from OS
            27 MiB allocation reported by mallinfo(arena+hblkhd)
        486662 MiB available memory on the node where the printing process lives
------------------
     ethr =  1.00E-05,  avg # of iterations = 10.8

     negative rho (up, down):  3.114E-02 3.404E-02

     total cpu time spent up to now is        4.9 secs

     total energy              =    -563.81742298 Ry
     estimated scf accuracy    <       0.00750983 Ry

     total magnetization       =     3.87 Bohr mag/cell
     absolute magnetization    =     4.07 Bohr mag/cell

     iteration #  2     ecut=    50.00 Ry     beta= 0.40
     PPCG style diagonalization

---- Real-time Memory Report at c_bands before calling an iterative solver
            74 MiB given to the printing process from OS
            34 MiB allocation reported by mallinfo(arena+hblkhd)
        486279 MiB available memory on the node where the printing process lives
------------------
     ethr =  1.44E-05,  avg # of iterations =  8.1

     negative rho (up, down):  3.114E-02 3.398E-02

     total cpu time spent up to now is        7.1 secs

     total energy              =    -563.80685422 Ry
     estimated scf accuracy    <       0.28237936 Ry

     total magnetization       =     2.96 Bohr mag/cell
     absolute magnetization    =     3.32 Bohr mag/cell

     iteration #  3     ecut=    50.00 Ry     beta= 0.40
     PPCG style diagonalization

---- Real-time Memory Report at c_bands before calling an iterative solver
            74 MiB given to the printing process from OS
            34 MiB allocation reported by mallinfo(arena+hblkhd)
        486258 MiB available memory on the node where the printing process lives
------------------
     ethr =  1.44E-05,  avg # of iterations =  6.9

     negative rho (up, down):  3.114E-02 3.394E-02

     total cpu time spent up to now is        8.9 secs

     total energy              =    -563.82135085 Ry
     estimated scf accuracy    <       0.01021111 Ry

     total magnetization       =     3.47 Bohr mag/cell
     absolute magnetization    =     3.73 Bohr mag/cell

     iteration #  4     ecut=    50.00 Ry     beta= 0.40
     PPCG style diagonalization

---- Real-time Memory Report at c_bands before calling an iterative solver
            75 MiB given to the printing process from OS
            35 MiB allocation reported by mallinfo(arena+hblkhd)
        486256 MiB available memory on the node where the printing process lives
------------------
     ethr =  1.44E-05,  avg # of iterations =  4.9

     negative rho (up, down):  3.117E-02 3.317E-02

     total cpu time spent up to now is       10.2 secs

     WARNING: integrated charge=    51.99999359, expected=    52.00000000

     total energy              =    -563.82343752 Ry
     estimated scf accuracy    <       0.00665997 Ry

     total magnetization       =     3.51 Bohr mag/cell
     absolute magnetization    =     3.75 Bohr mag/cell

     iteration #  5     ecut=    50.00 Ry     beta= 0.40
     PPCG style diagonalization

---- Real-time Memory Report at c_bands before calling an iterative solver
            75 MiB given to the printing process from OS
            35 MiB allocation reported by mallinfo(arena+hblkhd)
        486253 MiB available memory on the node where the printing process lives
------------------
     ethr =  1.28E-05,  avg # of iterations =  7.0

     negative rho (up, down):  3.119E-02 3.255E-02

     total cpu time spent up to now is       12.3 secs

     WARNING: integrated charge=    51.99999174, expected=    52.00000000

     total energy              =    -563.82804918 Ry
     estimated scf accuracy    <       0.00193542 Ry

     total magnetization       =     3.03 Bohr mag/cell
     absolute magnetization    =     3.32 Bohr mag/cell

     iteration #  6     ecut=    50.00 Ry     beta= 0.40
     PPCG style diagonalization

---- Real-time Memory Report at c_bands before calling an iterative solver
            75 MiB given to the printing process from OS
            35 MiB allocation reported by mallinfo(arena+hblkhd)
        486249 MiB available memory on the node where the printing process lives
------------------
     ethr =  3.72E-06,  avg # of iterations =  8.1

     negative rho (up, down):  3.122E-02 3.247E-02

     total cpu time spent up to now is       14.6 secs

     WARNING: integrated charge=    51.99999142, expected=    52.00000000

     total energy              =    -563.83074440 Ry
     estimated scf accuracy    <       0.00077249 Ry

     total magnetization       =     2.50 Bohr mag/cell
     absolute magnetization    =     2.89 Bohr mag/cell

     iteration #  7     ecut=    50.00 Ry     beta= 0.40
     PPCG style diagonalization

---- Real-time Memory Report at c_bands before calling an iterative solver
            76 MiB given to the printing process from OS
            35 MiB allocation reported by mallinfo(arena+hblkhd)
        486241 MiB available memory on the node where the printing process lives
------------------
     ethr =  1.49E-06,  avg # of iterations =  9.0

     negative rho (up, down):  3.118E-02 3.504E-02

     total cpu time spent up to now is       16.9 secs

     total energy              =    -563.66473006 Ry
     estimated scf accuracy    <       0.00501035 Ry

     total magnetization       =     1.64 Bohr mag/cell
     absolute magnetization    =     2.54 Bohr mag/cell

     iteration #  8     ecut=    50.00 Ry     beta= 0.40
     PPCG style diagonalization

---- Real-time Memory Report at c_bands before calling an iterative solver
            76 MiB given to the printing process from OS
            35 MiB allocation reported by mallinfo(arena+hblkhd)
        486235 MiB available memory on the node where the printing process lives
------------------
     ethr =  1.49E-06,  avg # of iterations = 10.3

     negative rho (up, down):  3.113E-02 3.413E-02

     total cpu time spent up to now is       19.7 secs

     total energy              =    -563.81377368 Ry
     estimated scf accuracy    <       0.01660757 Ry

     total magnetization       =     4.36 Bohr mag/cell
     absolute magnetization    =     4.55 Bohr mag/cell

     iteration #  9     ecut=    50.00 Ry     beta= 0.40
     PPCG style diagonalization

---- Real-time Memory Report at c_bands before calling an iterative solver
            76 MiB given to the printing process from OS
            35 MiB allocation reported by mallinfo(arena+hblkhd)
        486232 MiB available memory on the node where the printing process lives
------------------
     ethr =  1.49E-06,  avg # of iterations =  9.1

     negative rho (up, down):  3.113E-02 3.411E-02

     total cpu time spent up to now is       22.0 secs

     total energy              =    -563.81984346 Ry
     estimated scf accuracy    <       0.00563536 Ry

     total magnetization       =     3.78 Bohr mag/cell
     absolute magnetization    =     3.99 Bohr mag/cell

     iteration # 10     ecut=    50.00 Ry     beta= 0.40
     PPCG style diagonalization

---- Real-time Memory Report at c_bands before calling an iterative solver
            76 MiB given to the printing process from OS
            35 MiB allocation reported by mallinfo(arena+hblkhd)
        486228 MiB available memory on the node where the printing process lives
------------------
     ethr =  1.49E-06,  avg # of iterations =  2.0

     negative rho (up, down):  3.114E-02 3.382E-02

     total cpu time spent up to now is       22.5 secs

     total energy              =    -563.82221522 Ry
     estimated scf accuracy    <       0.00535569 Ry

     total magnetization       =     3.76 Bohr mag/cell
     absolute magnetization    =     3.98 Bohr mag/cell

     iteration # 11     ecut=    50.00 Ry     beta= 0.40
     PPCG style diagonalization

---- Real-time Memory Report at c_bands before calling an iterative solver
            76 MiB given to the printing process from OS
            35 MiB allocation reported by mallinfo(arena+hblkhd)
        486227 MiB available memory on the node where the printing process lives
------------------
     ethr =  1.49E-06,  avg # of iterations =  7.2

     negative rho (up, down):  3.117E-02 3.290E-02

     total cpu time spent up to now is       24.6 secs

     total energy              =    -563.82176728 Ry
     estimated scf accuracy    <       0.00261370 Ry

     total magnetization       =     3.54 Bohr mag/cell
     absolute magnetization    =     3.77 Bohr mag/cell

     iteration # 12     ecut=    50.00 Ry     beta= 0.40
     PPCG style diagonalization

---- Real-time Memory Report at c_bands before calling an iterative solver
            76 MiB given to the printing process from OS
            35 MiB allocation reported by mallinfo(arena+hblkhd)
        486227 MiB available memory on the node where the printing process lives
------------------
     ethr =  1.49E-06,  avg # of iterations =  9.1

     negative rho (up, down):  3.117E-02 3.290E-02

     total cpu time spent up to now is       26.9 secs

     total energy              =    -563.83047727 Ry
     estimated scf accuracy    <       0.00094362 Ry

     total magnetization       =     2.78 Bohr mag/cell
     absolute magnetization    =     3.13 Bohr mag/cell

     iteration # 13     ecut=    50.00 Ry     beta= 0.40
     PPCG style diagonalization

---- Real-time Memory Report at c_bands before calling an iterative solver
            76 MiB given to the printing process from OS
            35 MiB allocation reported by mallinfo(arena+hblkhd)
        486226 MiB available memory on the node where the printing process lives
------------------
     ethr =  1.49E-06,  avg # of iterations =  2.0

     negative rho (up, down):  3.117E-02 3.302E-02

     total cpu time spent up to now is       27.4 secs

     total energy              =    -563.82965034 Ry
     estimated scf accuracy    <       0.00095418 Ry

     total magnetization       =     2.78 Bohr mag/cell
     absolute magnetization    =     3.13 Bohr mag/cell

     iteration # 14     ecut=    50.00 Ry     beta= 0.40
     PPCG style diagonalization

---- Real-time Memory Report at c_bands before calling an iterative solver
            76 MiB given to the printing process from OS
            35 MiB allocation reported by mallinfo(arena+hblkhd)
        486223 MiB available memory on the node where the printing process lives
------------------
     ethr =  1.49E-06,  avg # of iterations =  4.3

     negative rho (up, down):  3.120E-02 3.242E-02

     total cpu time spent up to now is       28.9 secs

     total energy              =    -563.82601930 Ry
     estimated scf accuracy    <       0.00089038 Ry

     total magnetization       =     2.88 Bohr mag/cell
     absolute magnetization    =     3.21 Bohr mag/cell

     iteration # 15     ecut=    50.00 Ry     beta= 0.40
     PPCG style diagonalization

---- Real-time Memory Report at c_bands before calling an iterative solver
            76 MiB given to the printing process from OS
            35 MiB allocation reported by mallinfo(arena+hblkhd)
        486222 MiB available memory on the node where the printing process lives
------------------
     ethr =  1.49E-06,  avg # of iterations =  9.0

     negative rho (up, down):  3.115E-02 3.335E-02

     total cpu time spent up to now is       31.2 secs

     total energy              =    -563.80549534 Ry
     estimated scf accuracy    <       0.00223217 Ry

     total magnetization       =     1.95 Bohr mag/cell
     absolute magnetization    =     2.58 Bohr mag/cell

     iteration # 16     ecut=    50.00 Ry     beta= 0.40
     PPCG style diagonalization

---- Real-time Memory Report at c_bands before calling an iterative solver
            77 MiB given to the printing process from OS
            35 MiB allocation reported by mallinfo(arena+hblkhd)
        486222 MiB available memory on the node where the printing process lives
------------------
     ethr =  1.49E-06,  avg # of iterations =  9.3

     negative rho (up, down):  3.114E-02 3.361E-02

     total cpu time spent up to now is       33.6 secs

     total energy              =    -563.82393693 Ry
     estimated scf accuracy    <       0.00141614 Ry

     total magnetization       =     3.18 Bohr mag/cell
     absolute magnetization    =     3.46 Bohr mag/cell

     iteration # 17     ecut=    50.00 Ry     beta= 0.40
     PPCG style diagonalization

---- Real-time Memory Report at c_bands before calling an iterative solver
            77 MiB given to the printing process from OS
            35 MiB allocation reported by mallinfo(arena+hblkhd)
        486214 MiB available memory on the node where the printing process lives
------------------
     ethr =  1.49E-06,  avg # of iterations =  7.2

     negative rho (up, down):  3.114E-02 3.344E-02

     total cpu time spent up to now is       35.6 secs

     total energy              =    -563.82591736 Ry
     estimated scf accuracy    <       0.00316845 Ry

     total magnetization       =     3.42 Bohr mag/cell
     absolute magnetization    =     3.66 Bohr mag/cell

     iteration # 18     ecut=    50.00 Ry     beta= 0.40
     PPCG style diagonalization

---- Real-time Memory Report at c_bands before calling an iterative solver
            77 MiB given to the printing process from OS
            35 MiB allocation reported by mallinfo(arena+hblkhd)
        486214 MiB available memory on the node where the printing process lives
------------------
     ethr =  1.49E-06,  avg # of iterations =  4.9

     negative rho (up, down):  3.114E-02 3.345E-02

     total cpu time spent up to now is       37.1 secs

     total energy              =    -563.82594149 Ry
     estimated scf accuracy    <       0.00217990 Ry

     total magnetization       =     3.28 Bohr mag/cell
     absolute magnetization    =     3.54 Bohr mag/cell

     iteration # 19     ecut=    50.00 Ry     beta= 0.40
     PPCG style diagonalization

---- Real-time Memory Report at c_bands before calling an iterative solver
            77 MiB given to the printing process from OS
            35 MiB allocation reported by mallinfo(arena+hblkhd)
        486214 MiB available memory on the node where the printing process lives
------------------
     ethr =  1.49E-06,  avg # of iterations =  2.0

     negative rho (up, down):  3.113E-02 3.367E-02

     total cpu time spent up to now is       37.7 secs

     total energy              =    -563.82249968 Ry
     estimated scf accuracy    <       0.00221897 Ry

     total magnetization       =     3.29 Bohr mag/cell
     absolute magnetization    =     3.55 Bohr mag/cell

     iteration # 20     ecut=    50.00 Ry     beta= 0.40
     PPCG style diagonalization

---- Real-time Memory Report at c_bands before calling an iterative solver
            77 MiB given to the printing process from OS
            35 MiB allocation reported by mallinfo(arena+hblkhd)
        486214 MiB available memory on the node where the printing process lives
------------------
     ethr =  1.49E-06,  avg # of iterations =  7.2

     negative rho (up, down):  3.114E-02 3.352E-02

     total cpu time spent up to now is       39.7 secs

     total energy              =    -563.82510766 Ry
     estimated scf accuracy    <       0.00333410 Ry

     total magnetization       =     3.47 Bohr mag/cell
     absolute magnetization    =     3.70 Bohr mag/cell

     iteration # 21     ecut=    50.00 Ry     beta= 0.40
     PPCG style diagonalization

---- Real-time Memory Report at c_bands before calling an iterative solver
            77 MiB given to the printing process from OS
            35 MiB allocation reported by mallinfo(arena+hblkhd)
        486213 MiB available memory on the node where the printing process lives
------------------
     ethr =  1.49E-06,  avg # of iterations =  6.7

     negative rho (up, down):  3.114E-02 3.406E-02

     total cpu time spent up to now is       41.6 secs

     total energy              =    -563.81107494 Ry
     estimated scf accuracy    <       0.00207039 Ry

     total magnetization       =     3.32 Bohr mag/cell
     absolute magnetization    =     3.58 Bohr mag/cell

     iteration # 22     ecut=    50.00 Ry     beta= 0.40
     PPCG style diagonalization

---- Real-time Memory Report at c_bands before calling an iterative solver
            77 MiB given to the printing process from OS
            35 MiB allocation reported by mallinfo(arena+hblkhd)
        486208 MiB available memory on the node where the printing process lives
------------------
     ethr =  1.49E-06,  avg # of iterations =  9.0

     negative rho (up, down):  3.114E-02 3.367E-02

     total cpu time spent up to now is       43.9 secs

     total energy              =    -563.82108678 Ry
     estimated scf accuracy    <       0.00597496 Ry

     total magnetization       =     3.75 Bohr mag/cell
     absolute magnetization    =     3.95 Bohr mag/cell

     iteration # 23     ecut=    50.00 Ry     beta= 0.40
     PPCG style diagonalization

---- Real-time Memory Report at c_bands before calling an iterative solver
            77 MiB given to the printing process from OS
            35 MiB allocation reported by mallinfo(arena+hblkhd)
        486209 MiB available memory on the node where the printing process lives
------------------
     ethr =  1.49E-06,  avg # of iterations =  8.8

     negative rho (up, down):  3.120E-02 3.299E-02

     total cpu time spent up to now is       46.2 secs

     total energy              =    -563.82058453 Ry
     estimated scf accuracy    <       0.00275006 Ry

     total magnetization       =     3.44 Bohr mag/cell
     absolute magnetization    =     3.69 Bohr mag/cell

     iteration # 24     ecut=    50.00 Ry     beta= 0.40
     PPCG style diagonalization

---- Real-time Memory Report at c_bands before calling an iterative solver
            77 MiB given to the printing process from OS
            35 MiB allocation reported by mallinfo(arena+hblkhd)
        486207 MiB available memory on the node where the printing process lives
------------------
     ethr =  1.49E-06,  avg # of iterations =  9.2

     negative rho (up, down):  3.122E-02 3.274E-02

     total cpu time spent up to now is       48.5 secs

     total energy              =    -563.83285228 Ry
     estimated scf accuracy    <       0.00095384 Ry

     total magnetization       =     2.70 Bohr mag/cell
     absolute magnetization    =     3.13 Bohr mag/cell

     iteration # 25     ecut=    50.00 Ry     beta= 0.40
     PPCG style diagonalization

---- Real-time Memory Report at c_bands before calling an iterative solver
            77 MiB given to the printing process from OS
            35 MiB allocation reported by mallinfo(arena+hblkhd)
        486207 MiB available memory on the node where the printing process lives
------------------
     ethr =  1.49E-06,  avg # of iterations =  7.4

     negative rho (up, down):  3.121E-02 3.282E-02

     total cpu time spent up to now is       50.7 secs

     total energy              =    -563.83362267 Ry
     estimated scf accuracy    <       0.00136964 Ry

     total magnetization       =     2.39 Bohr mag/cell
     absolute magnetization    =     2.92 Bohr mag/cell

     iteration # 26     ecut=    50.00 Ry     beta= 0.40
     PPCG style diagonalization

---- Real-time Memory Report at c_bands before calling an iterative solver
            77 MiB given to the printing process from OS
            35 MiB allocation reported by mallinfo(arena+hblkhd)
        486206 MiB available memory on the node where the printing process lives
------------------
     ethr =  1.49E-06,  avg # of iterations =  3.9

     negative rho (up, down):  3.119E-02 3.309E-02

     total cpu time spent up to now is       51.9 secs

     WARNING: integrated charge=    52.00001404, expected=    52.00000000

     total energy              =    -563.82974458 Ry
     estimated scf accuracy    <       0.00123672 Ry

     total magnetization       =     2.48 Bohr mag/cell
     absolute magnetization    =     2.98 Bohr mag/cell

     iteration # 27     ecut=    50.00 Ry     beta= 0.40
     PPCG style diagonalization

---- Real-time Memory Report at c_bands before calling an iterative solver
            77 MiB given to the printing process from OS
            35 MiB allocation reported by mallinfo(arena+hblkhd)
        486206 MiB available memory on the node where the printing process lives
------------------
     ethr =  1.49E-06,  avg # of iterations =  7.5

     negative rho (up, down):  3.120E-02 3.300E-02

     total cpu time spent up to now is       54.0 secs

     WARNING: integrated charge=    52.00001069, expected=    52.00000000

     total energy              =    -563.83191581 Ry
     estimated scf accuracy    <       0.00110343 Ry

     total magnetization       =     2.80 Bohr mag/cell
     absolute magnetization    =     3.20 Bohr mag/cell

     iteration # 28     ecut=    50.00 Ry     beta= 0.40
     PPCG style diagonalization

---- Real-time Memory Report at c_bands before calling an iterative solver
            77 MiB given to the printing process from OS
            35 MiB allocation reported by mallinfo(arena+hblkhd)
        486205 MiB available memory on the node where the printing process lives
------------------
     ethr =  1.49E-06,  avg # of iterations =  4.7

     negative rho (up, down):  3.116E-02 3.349E-02

     total cpu time spent up to now is       55.5 secs

     WARNING: integrated charge=    52.00002842, expected=    52.00000000

     total energy              =    -563.82353676 Ry
     estimated scf accuracy    <       0.00107383 Ry

     total magnetization       =     2.69 Bohr mag/cell
     absolute magnetization    =     3.12 Bohr mag/cell

     iteration # 29     ecut=    50.00 Ry     beta= 0.40
     PPCG style diagonalization

---- Real-time Memory Report at c_bands before calling an iterative solver
            77 MiB given to the printing process from OS
            35 MiB allocation reported by mallinfo(arena+hblkhd)
        486205 MiB available memory on the node where the printing process lives
------------------
     ethr =  1.49E-06,  avg # of iterations =  8.8

     negative rho (up, down):  3.117E-02 3.348E-02

     total cpu time spent up to now is       57.8 secs

     WARNING: integrated charge=    52.00002621, expected=    52.00000000

     total energy              =    -563.82811190 Ry
     estimated scf accuracy    <       0.00169026 Ry

     total magnetization       =     3.21 Bohr mag/cell
     absolute magnetization    =     3.51 Bohr mag/cell

     iteration # 30     ecut=    50.00 Ry     beta= 0.40
     PPCG style diagonalization

---- Real-time Memory Report at c_bands before calling an iterative solver
            77 MiB given to the printing process from OS
            35 MiB allocation reported by mallinfo(arena+hblkhd)
        486200 MiB available memory on the node where the printing process lives
------------------
     ethr =  1.49E-06,  avg # of iterations =  2.0

     negative rho (up, down):  3.114E-02 3.388E-02

     total cpu time spent up to now is       58.3 secs

     WARNING: integrated charge=    52.00004015, expected=    52.00000000

     total energy              =    -563.82191076 Ry
     estimated scf accuracy    <       0.00165496 Ry

     total magnetization       =     3.20 Bohr mag/cell
     absolute magnetization    =     3.51 Bohr mag/cell

     iteration # 31     ecut=    50.00 Ry     beta= 0.40
     PPCG style diagonalization

---- Real-time Memory Report at c_bands before calling an iterative solver
            77 MiB given to the printing process from OS
            35 MiB allocation reported by mallinfo(arena+hblkhd)
        486200 MiB available memory on the node where the printing process lives
------------------
     ethr =  1.49E-06,  avg # of iterations =  8.5

     negative rho (up, down):  3.113E-02 3.401E-02

     total cpu time spent up to now is       60.5 secs

     WARNING: integrated charge=    52.00004467, expected=    52.00000000

     total energy              =    -563.82246508 Ry
     estimated scf accuracy    <       0.00352208 Ry

     total magnetization       =     3.56 Bohr mag/cell
     absolute magnetization    =     3.81 Bohr mag/cell

     iteration # 32     ecut=    50.00 Ry     beta= 0.40
     PPCG style diagonalization

---- Real-time Memory Report at c_bands before calling an iterative solver
            77 MiB given to the printing process from OS
            35 MiB allocation reported by mallinfo(arena+hblkhd)
        486200 MiB available memory on the node where the printing process lives
------------------
     ethr =  1.49E-06,  avg # of iterations =  5.4

     negative rho (up, down):  3.113E-02 3.391E-02

     total cpu time spent up to now is       62.1 secs

     WARNING: integrated charge=    52.00004136, expected=    52.00000000

     total energy              =    -563.82350186 Ry
     estimated scf accuracy    <       0.00441958 Ry

     total magnetization       =     3.66 Bohr mag/cell
     absolute magnetization    =     3.89 Bohr mag/cell

     iteration # 33     ecut=    50.00 Ry     beta= 0.40
     PPCG style diagonalization

---- Real-time Memory Report at c_bands before calling an iterative solver
            77 MiB given to the printing process from OS
            35 MiB allocation reported by mallinfo(arena+hblkhd)
        486200 MiB available memory on the node where the printing process lives
------------------
     ethr =  1.49E-06,  avg # of iterations =  3.9

     negative rho (up, down):  3.115E-02 3.350E-02

     total cpu time spent up to now is       63.4 secs

     WARNING: integrated charge=    52.00003624, expected=    52.00000000

     total energy              =    -563.82561985 Ry
     estimated scf accuracy    <       0.00396931 Ry

     total magnetization       =     3.59 Bohr mag/cell
     absolute magnetization    =     3.83 Bohr mag/cell

     iteration # 34     ecut=    50.00 Ry     beta= 0.40
     PPCG style diagonalization

---- Real-time Memory Report at c_bands before calling an iterative solver
            77 MiB given to the printing process from OS
            35 MiB allocation reported by mallinfo(arena+hblkhd)
        486199 MiB available memory on the node where the printing process lives
------------------
     ethr =  1.49E-06,  avg # of iterations =  7.9

     negative rho (up, down):  3.117E-02 3.328E-02

     total cpu time spent up to now is       65.5 secs

     WARNING: integrated charge=    52.00002891, expected=    52.00000000

     total energy              =    -563.82858905 Ry
     estimated scf accuracy    <       0.00244971 Ry

     total magnetization       =     3.26 Bohr mag/cell
     absolute magnetization    =     3.54 Bohr mag/cell

     iteration # 35     ecut=    50.00 Ry     beta= 0.40
     PPCG style diagonalization

---- Real-time Memory Report at c_bands before calling an iterative solver
            77 MiB given to the printing process from OS
            35 MiB allocation reported by mallinfo(arena+hblkhd)
        486197 MiB available memory on the node where the printing process lives
------------------
     ethr =  1.49E-06,  avg # of iterations =  7.3

     negative rho (up, down):  3.122E-02 3.252E-02

     total cpu time spent up to now is       67.6 secs

     total energy              =    -563.82398441 Ry
     estimated scf accuracy    <       0.00213921 Ry

     total magnetization       =     3.04 Bohr mag/cell
     absolute magnetization    =     3.38 Bohr mag/cell

     iteration # 36     ecut=    50.00 Ry     beta= 0.40
     PPCG style diagonalization

---- Real-time Memory Report at c_bands before calling an iterative solver
            77 MiB given to the printing process from OS
            35 MiB allocation reported by mallinfo(arena+hblkhd)
        486196 MiB available memory on the node where the printing process lives
------------------
     ethr =  1.49E-06,  avg # of iterations =  9.2

     negative rho (up, down):  3.128E-02 3.264E-02

     total cpu time spent up to now is       70.0 secs

     WARNING: integrated charge=    51.99998429, expected=    52.00000000

     total energy              =    -563.83672274 Ry
     estimated scf accuracy    <       0.00361140 Ry

     total magnetization       =     1.96 Bohr mag/cell
     absolute magnetization    =     2.65 Bohr mag/cell

     iteration # 37     ecut=    50.00 Ry     beta= 0.40
     PPCG style diagonalization

---- Real-time Memory Report at c_bands before calling an iterative solver
            78 MiB given to the printing process from OS
            35 MiB allocation reported by mallinfo(arena+hblkhd)
        486195 MiB available memory on the node where the printing process lives
------------------
     ethr =  1.49E-06,  avg # of iterations =  9.2

     negative rho (up, down):  3.128E-02 3.262E-02

     total cpu time spent up to now is       72.3 secs

     WARNING: integrated charge=    51.99998491, expected=    52.00000000

     total energy              =    -563.85138525 Ry
     estimated scf accuracy    <       0.02870154 Ry

     total magnetization       =     0.84 Bohr mag/cell
     absolute magnetization    =     3.80 Bohr mag/cell

     iteration # 38     ecut=    50.00 Ry     beta= 0.40
     PPCG style diagonalization

---- Real-time Memory Report at c_bands before calling an iterative solver
            78 MiB given to the printing process from OS
            35 MiB allocation reported by mallinfo(arena+hblkhd)
        486194 MiB available memory on the node where the printing process lives
------------------
     ethr =  1.49E-06,  avg # of iterations =  2.1

     negative rho (up, down):  3.128E-02 3.262E-02

     total cpu time spent up to now is       72.9 secs

     WARNING: integrated charge=    51.99998533, expected=    52.00000000

     total energy              =    -563.85095697 Ry
     estimated scf accuracy    <       0.02696776 Ry

     total magnetization       =     0.88 Bohr mag/cell
     absolute magnetization    =     3.74 Bohr mag/cell

     iteration # 39     ecut=    50.00 Ry     beta= 0.40
     PPCG style diagonalization

---- Real-time Memory Report at c_bands before calling an iterative solver
            78 MiB given to the printing process from OS
            35 MiB allocation reported by mallinfo(arena+hblkhd)
        486194 MiB available memory on the node where the printing process lives
------------------
     ethr =  1.49E-06,  avg # of iterations =  2.6

     negative rho (up, down):  3.128E-02 3.264E-02

     total cpu time spent up to now is       73.6 secs

     WARNING: integrated charge=    51.99998572, expected=    52.00000000

     total energy              =    -563.85159335 Ry
     estimated scf accuracy    <       0.02583423 Ry

     total magnetization       =     0.90 Bohr mag/cell
     absolute magnetization    =     3.70 Bohr mag/cell

     iteration # 40     ecut=    50.00 Ry     beta= 0.40
     PPCG style diagonalization

---- Real-time Memory Report at c_bands before calling an iterative solver
            78 MiB given to the printing process from OS
            35 MiB allocation reported by mallinfo(arena+hblkhd)
        486193 MiB available memory on the node where the printing process lives
------------------
     ethr =  1.49E-06,  avg # of iterations =  2.2

     negative rho (up, down):  3.126E-02 3.257E-02

     total cpu time spent up to now is       74.3 secs

     WARNING: integrated charge=    51.99999159, expected=    52.00000000

     total energy              =    -563.84717423 Ry
     estimated scf accuracy    <       0.02853049 Ry

     total magnetization       =     0.87 Bohr mag/cell
     absolute magnetization    =     3.75 Bohr mag/cell

     iteration # 41     ecut=    50.00 Ry     beta= 0.40
     PPCG style diagonalization

---- Real-time Memory Report at c_bands before calling an iterative solver
            78 MiB given to the printing process from OS
            35 MiB allocation reported by mallinfo(arena+hblkhd)
        486192 MiB available memory on the node where the printing process lives
------------------
     ethr =  1.49E-06,  avg # of iterations =  6.1

     negative rho (up, down):  3.131E-02 3.273E-02

     total cpu time spent up to now is       76.1 secs

     total energy              =    -563.85590920 Ry
     estimated scf accuracy    <       0.02087468 Ry

     total magnetization       =     1.09 Bohr mag/cell
     absolute magnetization    =     3.42 Bohr mag/cell

     iteration # 42     ecut=    50.00 Ry     beta= 0.40
     PPCG style diagonalization

---- Real-time Memory Report at c_bands before calling an iterative solver
            78 MiB given to the printing process from OS
            35 MiB allocation reported by mallinfo(arena+hblkhd)
        486191 MiB available memory on the node where the printing process lives
------------------
     ethr =  1.49E-06,  avg # of iterations =  9.0

     negative rho (up, down):  3.114E-02 3.378E-02

     total cpu time spent up to now is       78.3 secs

     WARNING: integrated charge=    52.00001893, expected=    52.00000000

     total energy              =    -563.66097070 Ry
     estimated scf accuracy    <       0.07301444 Ry

     total magnetization       =     0.32 Bohr mag/cell
     absolute magnetization    =     4.67 Bohr mag/cell

     iteration # 43     ecut=    50.00 Ry     beta= 0.40
     PPCG style diagonalization

---- Real-time Memory Report at c_bands before calling an iterative solver
            78 MiB given to the printing process from OS
            35 MiB allocation reported by mallinfo(arena+hblkhd)
        486190 MiB available memory on the node where the printing process lives
------------------
     ethr =  1.49E-06,  avg # of iterations = 10.1

     negative rho (up, down):  3.115E-02 3.455E-02

     total cpu time spent up to now is       81.1 secs

     WARNING: integrated charge=    52.00002879, expected=    52.00000000

     total energy              =    -563.80881864 Ry
     estimated scf accuracy    <       0.00372819 Ry

     total magnetization       =     3.50 Bohr mag/cell
     absolute magnetization    =     3.75 Bohr mag/cell

     iteration # 44     ecut=    50.00 Ry     beta= 0.40
     PPCG style diagonalization

---- Real-time Memory Report at c_bands before calling an iterative solver
            78 MiB given to the printing process from OS
            35 MiB allocation reported by mallinfo(arena+hblkhd)
        486190 MiB available memory on the node where the printing process lives
------------------
     ethr =  1.49E-06,  avg # of iterations =  9.0

     negative rho (up, down):  3.118E-02 3.525E-02

     total cpu time spent up to now is       83.4 secs

     WARNING: integrated charge=    52.00002909, expected=    52.00000000

     total energy              =    -563.79433441 Ry
     estimated scf accuracy    <       0.00823584 Ry

     total magnetization       =     4.05 Bohr mag/cell
     absolute magnetization    =     4.25 Bohr mag/cell

     iteration # 45     ecut=    50.00 Ry     beta= 0.40
     PPCG style diagonalization

---- Real-time Memory Report at c_bands before calling an iterative solver
            78 MiB given to the printing process from OS
            35 MiB allocation reported by mallinfo(arena+hblkhd)
        486186 MiB available memory on the node where the printing process lives
------------------
     ethr =  1.49E-06,  avg # of iterations =  9.0

     negative rho (up, down):  3.121E-02 3.556E-02

     total cpu time spent up to now is       85.7 secs

     WARNING: integrated charge=    52.00002964, expected=    52.00000000

     total energy              =    -563.78652860 Ry
     estimated scf accuracy    <       0.01603052 Ry

     total magnetization       =     4.46 Bohr mag/cell
     absolute magnetization    =     4.65 Bohr mag/cell

     iteration # 46     ecut=    50.00 Ry     beta= 0.40
     PPCG style diagonalization

---- Real-time Memory Report at c_bands before calling an iterative solver
            78 MiB given to the printing process from OS
            35 MiB allocation reported by mallinfo(arena+hblkhd)
        486186 MiB available memory on the node where the printing process lives
------------------
     ethr =  1.49E-06,  avg # of iterations =  7.9

     negative rho (up, down):  3.115E-02 3.434E-02

     total cpu time spent up to now is       87.9 secs

     WARNING: integrated charge=    52.00002212, expected=    52.00000000

     total energy              =    -563.80731155 Ry
     estimated scf accuracy    <       0.01901908 Ry

     total magnetization       =     4.59 Bohr mag/cell
     absolute magnetization    =     4.77 Bohr mag/cell

     iteration # 47     ecut=    50.00 Ry     beta= 0.40
     PPCG style diagonalization

---- Real-time Memory Report at c_bands before calling an iterative solver
            78 MiB given to the printing process from OS
            35 MiB allocation reported by mallinfo(arena+hblkhd)
        486185 MiB available memory on the node where the printing process lives
------------------
     ethr =  1.49E-06,  avg # of iterations =  9.3

     negative rho (up, down):  3.114E-02 3.375E-02

     total cpu time spent up to now is       90.3 secs

     WARNING: integrated charge=    52.00001910, expected=    52.00000000

     total energy              =    -563.82104188 Ry
     estimated scf accuracy    <       0.00528089 Ry

     total magnetization       =     3.89 Bohr mag/cell
     absolute magnetization    =     4.10 Bohr mag/cell

     iteration # 48     ecut=    50.00 Ry     beta= 0.40
     PPCG style diagonalization

---- Real-time Memory Report at c_bands before calling an iterative solver
            78 MiB given to the printing process from OS
            35 MiB allocation reported by mallinfo(arena+hblkhd)
        486183 MiB available memory on the node where the printing process lives
------------------
     ethr =  1.49E-06,  avg # of iterations =  8.8

     negative rho (up, down):  3.116E-02 3.320E-02

     total cpu time spent up to now is       92.6 secs

     WARNING: integrated charge=    52.00001337, expected=    52.00000000

     total energy              =    -563.82575209 Ry
     estimated scf accuracy    <       0.00229598 Ry

     total magnetization       =     3.47 Bohr mag/cell
     absolute magnetization    =     3.72 Bohr mag/cell

     iteration # 49     ecut=    50.00 Ry     beta= 0.40
     PPCG style diagonalization

---- Real-time Memory Report at c_bands before calling an iterative solver
            78 MiB given to the printing process from OS
            35 MiB allocation reported by mallinfo(arena+hblkhd)
        486183 MiB available memory on the node where the printing process lives
------------------
     ethr =  1.49E-06,  avg # of iterations =  8.7

     negative rho (up, down):  3.119E-02 3.273E-02

     total cpu time spent up to now is       94.8 secs

     WARNING: integrated charge=    52.00000713, expected=    52.00000000

     total energy              =    -563.82925216 Ry
     estimated scf accuracy    <       0.00124582 Ry

     total magnetization       =     3.03 Bohr mag/cell
     absolute magnetization    =     3.34 Bohr mag/cell

     iteration # 50     ecut=    50.00 Ry     beta= 0.40
     PPCG style diagonalization

---- Real-time Memory Report at c_bands before calling an iterative solver
            78 MiB given to the printing process from OS
            35 MiB allocation reported by mallinfo(arena+hblkhd)
        486183 MiB available memory on the node where the printing process lives
------------------
     ethr =  1.49E-06,  avg # of iterations =  8.6

     negative rho (up, down):  3.120E-02 3.252E-02

     total cpu time spent up to now is       97.1 secs

     WARNING: integrated charge=    52.00000626, expected=    52.00000000

     total energy              =    -563.83338284 Ry
     estimated scf accuracy    <       0.00119718 Ry

     total magnetization       =     2.57 Bohr mag/cell
     absolute magnetization    =     2.99 Bohr mag/cell

     iteration # 51     ecut=    50.00 Ry     beta= 0.40
     PPCG style diagonalization

---- Real-time Memory Report at c_bands before calling an iterative solver
            78 MiB given to the printing process from OS
            35 MiB allocation reported by mallinfo(arena+hblkhd)
        486181 MiB available memory on the node where the printing process lives
------------------
     ethr =  1.49E-06,  avg # of iterations =  6.6

     negative rho (up, down):  3.128E-02 3.266E-02

     total cpu time spent up to now is       99.0 secs

     total energy              =    -563.82490817 Ry
     estimated scf accuracy    <       0.00158123 Ry

     total magnetization       =     2.32 Bohr mag/cell
     absolute magnetization    =     2.83 Bohr mag/cell

     iteration # 52     ecut=    50.00 Ry     beta= 0.40
     PPCG style diagonalization

---- Real-time Memory Report at c_bands before calling an iterative solver
            78 MiB given to the printing process from OS
            35 MiB allocation reported by mallinfo(arena+hblkhd)
        486181 MiB available memory on the node where the printing process lives
------------------
     ethr =  1.49E-06,  avg # of iterations =  9.4

     negative rho (up, down):  3.118E-02 3.289E-02

     total cpu time spent up to now is      101.4 secs

     WARNING: integrated charge=    52.00000804, expected=    52.00000000

     total energy              =    -563.77878138 Ry
     estimated scf accuracy    <       0.02819533 Ry

     total magnetization       =     0.81 Bohr mag/cell
     absolute magnetization    =     3.85 Bohr mag/cell

     iteration # 53     ecut=    50.00 Ry     beta= 0.40
     PPCG style diagonalization

---- Real-time Memory Report at c_bands before calling an iterative solver
            78 MiB given to the printing process from OS
            35 MiB allocation reported by mallinfo(arena+hblkhd)
        486181 MiB available memory on the node where the printing process lives
------------------
     ethr =  1.49E-06,  avg # of iterations =  9.5

     negative rho (up, down):  3.121E-02 3.252E-02

     total cpu time spent up to now is      103.8 secs

     total energy              =    -563.83146500 Ry
     estimated scf accuracy    <       0.00107514 Ry

     total magnetization       =     2.73 Bohr mag/cell
     absolute magnetization    =     3.11 Bohr mag/cell

     iteration # 54     ecut=    50.00 Ry     beta= 0.40
     PPCG style diagonalization

---- Real-time Memory Report at c_bands before calling an iterative solver
            78 MiB given to the printing process from OS
            35 MiB allocation reported by mallinfo(arena+hblkhd)
        486180 MiB available memory on the node where the printing process lives
------------------
     ethr =  1.49E-06,  avg # of iterations =  8.4

     negative rho (up, down):  3.121E-02 3.251E-02

     total cpu time spent up to now is      106.1 secs

     total energy              =    -563.83453126 Ry
     estimated scf accuracy    <       0.00184931 Ry

     total magnetization       =     2.20 Bohr mag/cell
     absolute magnetization    =     2.77 Bohr mag/cell

     iteration # 55     ecut=    50.00 Ry     beta= 0.40
     PPCG style diagonalization

---- Real-time Memory Report at c_bands before calling an iterative solver
            78 MiB given to the printing process from OS
            35 MiB allocation reported by mallinfo(arena+hblkhd)
        486179 MiB available memory on the node where the printing process lives
------------------
     ethr =  1.49E-06,  avg # of iterations =  3.7

     negative rho (up, down):  3.129E-02 3.266E-02

     total cpu time spent up to now is      107.2 secs

     WARNING: integrated charge=    52.00000532, expected=    52.00000000

     total energy              =    -563.82207403 Ry
     estimated scf accuracy    <       0.00160266 Ry

     total magnetization       =     2.28 Bohr mag/cell
     absolute magnetization    =     2.81 Bohr mag/cell

     iteration # 56     ecut=    50.00 Ry     beta= 0.40
     PPCG style diagonalization

---- Real-time Memory Report at c_bands before calling an iterative solver
            78 MiB given to the printing process from OS
            35 MiB allocation reported by mallinfo(arena+hblkhd)
        486177 MiB available memory on the node where the printing process lives
------------------
     ethr =  1.49E-06,  avg # of iterations =  9.4

     negative rho (up, down):  3.113E-02 3.401E-02

     total cpu time spent up to now is      109.6 secs

     WARNING: integrated charge=    52.00002458, expected=    52.00000000

     total energy              =    -563.64897894 Ry
     estimated scf accuracy    <       0.04032942 Ry

     total magnetization       =     0.60 Bohr mag/cell
     absolute magnetization    =     4.15 Bohr mag/cell

     iteration # 57     ecut=    50.00 Ry     beta= 0.40
     PPCG style diagonalization

---- Real-time Memory Report at c_bands before calling an iterative solver
            78 MiB given to the printing process from OS
            35 MiB allocation reported by mallinfo(arena+hblkhd)
        486177 MiB available memory on the node where the printing process lives
------------------
     ethr =  1.49E-06,  avg # of iterations = 10.2

     negative rho (up, down):  3.130E-02 4.286E-02

     total cpu time spent up to now is      112.4 secs

     WARNING: integrated charge=    52.00003412, expected=    52.00000000

     total energy              =    -563.55027786 Ry
     estimated scf accuracy    <       0.00547183 Ry

     total magnetization       =     3.71 Bohr mag/cell
     absolute magnetization    =     3.92 Bohr mag/cell

     iteration # 58     ecut=    50.00 Ry     beta= 0.40
     PPCG style diagonalization

---- Real-time Memory Report at c_bands before calling an iterative solver
            78 MiB given to the printing process from OS
            35 MiB allocation reported by mallinfo(arena+hblkhd)
        486177 MiB available memory on the node where the printing process lives
------------------
     ethr =  1.49E-06,  avg # of iterations = 10.7

     negative rho (up, down):  3.113E-02 3.384E-02

     total cpu time spent up to now is      115.3 secs

     WARNING: integrated charge=    52.00001006, expected=    52.00000000

     total energy              =    -563.74446061 Ry
     estimated scf accuracy    <       0.10134418 Ry

     total magnetization       =     4.97 Bohr mag/cell
     absolute magnetization    =     5.18 Bohr mag/cell

     iteration # 59     ecut=    50.00 Ry     beta= 0.40
     PPCG style diagonalization

---- Real-time Memory Report at c_bands before calling an iterative solver
            78 MiB given to the printing process from OS
            35 MiB allocation reported by mallinfo(arena+hblkhd)
        486175 MiB available memory on the node where the printing process lives
------------------
     ethr =  1.49E-06,  avg # of iterations = 10.8

     negative rho (up, down):  3.114E-02 3.432E-02

     total cpu time spent up to now is      118.3 secs

     total energy              =    -563.81488897 Ry
     estimated scf accuracy    <       0.00307684 Ry

     total magnetization       =     3.55 Bohr mag/cell
     absolute magnetization    =     3.79 Bohr mag/cell

     iteration # 60     ecut=    50.00 Ry     beta= 0.40
     PPCG style diagonalization

---- Real-time Memory Report at c_bands before calling an iterative solver
            78 MiB given to the printing process from OS
            35 MiB allocation reported by mallinfo(arena+hblkhd)
        486175 MiB available memory on the node where the printing process lives
------------------
     ethr =  1.49E-06,  avg # of iterations =  8.4

     negative rho (up, down):  3.118E-02 3.293E-02

     total cpu time spent up to now is      120.5 secs

     total energy              =    -563.81056275 Ry
     estimated scf accuracy    <       0.00540957 Ry

     total magnetization       =     3.88 Bohr mag/cell
     absolute magnetization    =     4.09 Bohr mag/cell

     iteration # 61     ecut=    50.00 Ry     beta= 0.40
     PPCG style diagonalization

---- Real-time Memory Report at c_bands before calling an iterative solver
            78 MiB given to the printing process from OS
            35 MiB allocation reported by mallinfo(arena+hblkhd)
        486173 MiB available memory on the node where the printing process lives
------------------
     ethr =  1.49E-06,  avg # of iterations =  9.5

     negative rho (up, down):  3.115E-02 3.344E-02

     total cpu time spent up to now is      123.0 secs

     WARNING: integrated charge=    52.00000605, expected=    52.00000000

     total energy              =    -563.82349897 Ry
     estimated scf accuracy    <       0.00109139 Ry

     total magnetization       =     2.74 Bohr mag/cell
     absolute magnetization    =     3.13 Bohr mag/cell

     iteration # 62     ecut=    50.00 Ry     beta= 0.40
     PPCG style diagonalization

---- Real-time Memory Report at c_bands before calling an iterative solver
            78 MiB given to the printing process from OS
            35 MiB allocation reported by mallinfo(arena+hblkhd)
        486173 MiB available memory on the node where the printing process lives
------------------
     ethr =  1.49E-06,  avg # of iterations =  8.6

     negative rho (up, down):  3.116E-02 3.330E-02

     total cpu time spent up to now is      125.2 secs

     total energy              =    -563.82822832 Ry
     estimated scf accuracy    <       0.00152856 Ry

     total magnetization       =     3.22 Bohr mag/cell
     absolute magnetization    =     3.50 Bohr mag/cell

     iteration # 63     ecut=    50.00 Ry     beta= 0.40
     PPCG style diagonalization

---- Real-time Memory Report at c_bands before calling an iterative solver
            78 MiB given to the printing process from OS
[...]

     total magnetization       =     3.08 Bohr mag/cell
     absolute magnetization    =     3.39 Bohr mag/cell

     iteration # 71     ecut=    50.00 Ry     beta= 0.40
     PPCG style diagonalization

---- Real-time Memory Report at c_bands before calling an iterative solver
            78 MiB given to the printing process from OS
            35 MiB allocation reported by mallinfo(arena+hblkhd)
        486168 MiB available memory on the node where the printing process lives
------------------
     ethr =  1.49E-06,  avg # of iterations =  9.1

     negative rho (up, down):  3.124E-02 3.255E-02

     total cpu time spent up to now is      141.2 secs

     WARNING: integrated charge=    52.00000892, expected=    52.00000000

     total energy              =    -563.83710839 Ry
     estimated scf accuracy    <       0.00240081 Ry

     total magnetization       =     2.18 Bohr mag/cell
     absolute magnetization    =     2.75 Bohr mag/cell

     iteration # 72     ecut=    50.00 Ry     beta= 0.40
     PPCG style diagonalization

---- Real-time Memory Report at c_bands before calling an iterative solver
            78 MiB given to the printing process from OS
            35 MiB allocation reported by mallinfo(arena+hblkhd)
        486167 MiB available memory on the node where the printing process lives
------------------
     ethr =  1.49E-06,  avg # of iterations =  6.8

     negative rho (up, down):  3.125E-02 3.747E-02

     total cpu time spent up to now is      143.1 secs

     WARNING: integrated charge=    52.00000727, expected=    52.00000000

     total energy              =    -563.41859269 Ry
     estimated scf accuracy    <       0.00475085 Ry

     total magnetization       =     1.84 Bohr mag/cell
     absolute magnetization    =     2.63 Bohr mag/cell

     iteration # 73     ecut=    50.00 Ry     beta= 0.40
     PPCG style diagonalization

---- Real-time Memory Report at c_bands before calling an iterative solver
            78 MiB given to the printing process from OS
            35 MiB allocation reported by mallinfo(arena+hblkhd)
        486166 MiB available memory on the node where the printing process lives
------------------
     ethr =  1.49E-06,  avg # of iterations = 11.1

     negative rho (up, down):  3.113E-02 3.394E-02

     total cpu time spent up to now is      146.1 secs

     total energy              =    -563.77029540 Ry
     estimated scf accuracy    <       0.05776481 Ry

     total magnetization       =     4.87 Bohr mag/cell
     absolute magnetization    =     5.06 Bohr mag/cell

     iteration # 74     ecut=    50.00 Ry     beta= 0.40
     PPCG style diagonalization

---- Real-time Memory Report at c_bands before calling an iterative solver
            78 MiB given to the printing process from OS
            35 MiB allocation reported by mallinfo(arena+hblkhd)
        486165 MiB available memory on the node where the printing process lives
------------------
     ethr =  1.49E-06,  avg # of iterations = 10.4

     negative rho (up, down):  3.113E-02 3.407E-02

     total cpu time spent up to now is      149.0 secs

     total energy              =    -563.82057846 Ry
     estimated scf accuracy    <       0.00256252 Ry

     total magnetization       =     3.60 Bohr mag/cell
     absolute magnetization    =     3.84 Bohr mag/cell

     iteration # 75     ecut=    50.00 Ry     beta= 0.40
     PPCG style diagonalization

---- Real-time Memory Report at c_bands before calling an iterative solver
            78 MiB given to the printing process from OS
            35 MiB allocation reported by mallinfo(arena+hblkhd)
        486165 MiB available memory on the node where the printing process lives
------------------
     ethr =  1.49E-06,  avg # of iterations =  5.3

     negative rho (up, down):  3.114E-02 3.420E-02

     total cpu time spent up to now is      150.5 secs

     total energy              =    -563.81876549 Ry
     estimated scf accuracy    <       0.00308297 Ry

     total magnetization       =     3.70 Bohr mag/cell
     absolute magnetization    =     3.92 Bohr mag/cell

     iteration # 76     ecut=    50.00 Ry     beta= 0.40
     PPCG style diagonalization

---- Real-time Memory Report at c_bands before calling an iterative solver
            78 MiB given to the printing process from OS
            35 MiB allocation reported by mallinfo(arena+hblkhd)
        486165 MiB available memory on the node where the printing process lives
------------------
     ethr =  1.49E-06,  avg # of iterations =  5.9

     negative rho (up, down):  3.120E-02 3.294E-02

     total cpu time spent up to now is      152.3 secs

     total energy              =    -563.81226024 Ry
     estimated scf accuracy    <       0.00390466 Ry

     total magnetization       =     3.79 Bohr mag/cell
     absolute magnetization    =     4.00 Bohr mag/cell

     iteration # 77     ecut=    50.00 Ry     beta= 0.40
     PPCG style diagonalization

---- Real-time Memory Report at c_bands before calling an iterative solver
            78 MiB given to the printing process from OS
            35 MiB allocation reported by mallinfo(arena+hblkhd)
        486165 MiB available memory on the node where the printing process lives
------------------
     ethr =  1.49E-06,  avg # of iterations =  9.4

     negative rho (up, down):  3.123E-02 3.260E-02

     total cpu time spent up to now is      154.8 secs

     total energy              =    -563.83229080 Ry
     estimated scf accuracy    <       0.00089033 Ry

     total magnetization       =     2.69 Bohr mag/cell
     absolute magnetization    =     3.11 Bohr mag/cell

     iteration # 78     ecut=    50.00 Ry     beta= 0.40
     PPCG style diagonalization

---- Real-time Memory Report at c_bands before calling an iterative solver
            78 MiB given to the printing process from OS
            35 MiB allocation reported by mallinfo(arena+hblkhd)
        486164 MiB available memory on the node where the printing process lives
------------------
     ethr =  1.49E-06,  avg # of iterations =  8.2

     negative rho (up, down):  3.123E-02 3.261E-02

     total cpu time spent up to now is      157.0 secs

     total energy              =    -563.83576448 Ry
     estimated scf accuracy    <       0.00154782 Ry

     total magnetization       =     2.23 Bohr mag/cell
     absolute magnetization    =     2.80 Bohr mag/cell

     iteration # 79     ecut=    50.00 Ry     beta= 0.40
     PPCG style diagonalization

---- Real-time Memory Report at c_bands before calling an iterative solver
            78 MiB given to the printing process from OS
            35 MiB allocation reported by mallinfo(arena+hblkhd)
        486163 MiB available memory on the node where the printing process lives
------------------
     ethr =  1.49E-06,  avg # of iterations =  3.6

     negative rho (up, down):  3.124E-02 3.263E-02

     total cpu time spent up to now is      158.2 secs

     total energy              =    -563.83663263 Ry
     estimated scf accuracy    <       0.00177536 Ry

     total magnetization       =     2.15 Bohr mag/cell
     absolute magnetization    =     2.76 Bohr mag/cell

     iteration # 80     ecut=    50.00 Ry     beta= 0.40
     PPCG style diagonalization

---- Real-time Memory Report at c_bands before calling an iterative solver
            78 MiB given to the printing process from OS
            35 MiB allocation reported by mallinfo(arena+hblkhd)
        486161 MiB available memory on the node where the printing process lives
------------------
     ethr =  1.49E-06,  avg # of iterations =  5.2

     negative rho (up, down):  3.125E-02 3.265E-02

     total cpu time spent up to now is      159.7 secs

     total energy              =    -563.83840758 Ry
     estimated scf accuracy    <       0.00215421 Ry

     total magnetization       =     2.04 Bohr mag/cell
     absolute magnetization    =     2.72 Bohr mag/cell

     iteration # 81     ecut=    50.00 Ry     beta= 0.40
     PPCG style diagonalization

---- Real-time Memory Report at c_bands before calling an iterative solver
            78 MiB given to the printing process from OS
            35 MiB allocation reported by mallinfo(arena+hblkhd)
        486161 MiB available memory on the node where the printing process lives
------------------
     ethr =  1.49E-06,  avg # of iterations =  7.4

     negative rho (up, down):  3.123E-02 3.263E-02

     total cpu time spent up to now is      161.9 secs

     total energy              =    -563.81245884 Ry
     estimated scf accuracy    <       0.00468821 Ry

     total magnetization       =     1.77 Bohr mag/cell
     absolute magnetization    =     2.65 Bohr mag/cell

     iteration # 82     ecut=    50.00 Ry     beta= 0.40
     PPCG style diagonalization

---- Real-time Memory Report at c_bands before calling an iterative solver
            78 MiB given to the printing process from OS
            35 MiB allocation reported by mallinfo(arena+hblkhd)
        486161 MiB available memory on the node where the printing process lives
------------------
     ethr =  1.49E-06,  avg # of iterations =  7.7

     negative rho (up, down):  3.161E-02 3.281E-02

     total cpu time spent up to now is      164.1 secs

     total energy              =    -563.79371315 Ry
     estimated scf accuracy    <       0.00161235 Ry

     total magnetization       =     2.21 Bohr mag/cell
     absolute magnetization    =     2.80 Bohr mag/cell

     iteration # 83     ecut=    50.00 Ry     beta= 0.40
     PPCG style diagonalization

---- Real-time Memory Report at c_bands before calling an iterative solver
            78 MiB given to the printing process from OS
            35 MiB allocation reported by mallinfo(arena+hblkhd)
        486162 MiB available memory on the node where the printing process lives
------------------
     ethr =  1.49E-06,  avg # of iterations =  9.8

     negative rho (up, down):  3.332E-02 3.297E-02

     total cpu time spent up to now is      166.7 secs

     total energy              =    -563.89858620 Ry
     estimated scf accuracy    <       0.12372437 Ry

     total magnetization       =     0.13 Bohr mag/cell
     absolute magnetization    =     5.33 Bohr mag/cell

     iteration # 84     ecut=    50.00 Ry     beta= 0.40
     PPCG style diagonalization

---- Real-time Memory Report at c_bands before calling an iterative solver
            78 MiB given to the printing process from OS
            35 MiB allocation reported by mallinfo(arena+hblkhd)
        486159 MiB available memory on the node where the printing process lives
------------------
     ethr =  1.49E-06,  avg # of iterations =  9.3
     Minimization algorithm failed to find Fermi energy: reverting to bisection
     Possible cause: smearing is larger than the electronic band-gap.

     negative rho (up, down):  3.522E-02 3.325E-02

     total cpu time spent up to now is      169.0 secs

     total energy              =    -563.90834505 Ry
     estimated scf accuracy    <       0.30769279 Ry

     total magnetization       =    -0.14 Bohr mag/cell
     absolute magnetization    =     6.43 Bohr mag/cell

     iteration # 85     ecut=    50.00 Ry     beta= 0.40
     PPCG style diagonalization

---- Real-time Memory Report at c_bands before calling an iterative solver
            78 MiB given to the printing process from OS
            35 MiB allocation reported by mallinfo(arena+hblkhd)
        486159 MiB available memory on the node where the printing process lives
------------------
     ethr =  1.49E-06,  avg # of iterations =  9.4

     negative rho (up, down):  3.115E-02 3.368E-02

     total cpu time spent up to now is      171.4 secs

     total energy              =    -563.43409840 Ry
     estimated scf accuracy    <       0.56018872 Ry

     total magnetization       =    -0.01 Bohr mag/cell
     absolute magnetization    =     7.31 Bohr mag/cell

     iteration # 86     ecut=    50.00 Ry     beta= 0.40
     PPCG style diagonalization

---- Real-time Memory Report at c_bands before calling an iterative solver
            78 MiB given to the printing process from OS
            35 MiB allocation reported by mallinfo(arena+hblkhd)
        486157 MiB available memory on the node where the printing process lives
------------------
     ethr =  1.49E-06,  avg # of iterations = 11.4

     negative rho (up, down):  3.114E-02 3.434E-02

     total cpu time spent up to now is      174.3 secs

     total energy              =    -563.81237065 Ry
     estimated scf accuracy    <       0.00393774 Ry

     total magnetization       =     3.40 Bohr mag/cell
     absolute magnetization    =     3.68 Bohr mag/cell

     iteration # 87     ecut=    50.00 Ry     beta= 0.40
     PPCG style diagonalization

---- Real-time Memory Report at c_bands before calling an iterative solver
            78 MiB given to the printing process from OS
            35 MiB allocation reported by mallinfo(arena+hblkhd)
        486157 MiB available memory on the node where the printing process lives
------------------
     ethr =  1.49E-06,  avg # of iterations =  9.0

     negative rho (up, down):  3.130E-02 3.271E-02

     total cpu time spent up to now is      176.7 secs

     total energy              =    -563.73405668 Ry
     estimated scf accuracy    <       0.00752528 Ry

     total magnetization       =     3.91 Bohr mag/cell
     absolute magnetization    =     4.13 Bohr mag/cell

     iteration # 88     ecut=    50.00 Ry     beta= 0.40
     PPCG style diagonalization

---- Real-time Memory Report at c_bands before calling an iterative solver
            78 MiB given to the printing process from OS
            35 MiB allocation reported by mallinfo(arena+hblkhd)
        486157 MiB available memory on the node where the printing process lives
------------------
     ethr =  1.49E-06,  avg # of iterations = 10.3

     negative rho (up, down):  3.119E-02 3.333E-02

     total cpu time spent up to now is      179.5 secs

     total energy              =    -563.75235063 Ry
     estimated scf accuracy    <       0.03518713 Ry

     total magnetization       =     0.71 Bohr mag/cell
     absolute magnetization    =     4.03 Bohr mag/cell

     iteration # 89     ecut=    50.00 Ry     beta= 0.40
     PPCG style diagonalization

---- Real-time Memory Report at c_bands before calling an iterative solver
            78 MiB given to the printing process from OS
            35 MiB allocation reported by mallinfo(arena+hblkhd)
        486156 MiB available memory on the node where the printing process lives
------------------
     ethr =  1.49E-06,  avg # of iterations =  9.6

     negative rho (up, down):  3.115E-02 3.433E-02

     total cpu time spent up to now is      182.0 secs

     total energy              =    -563.80756280 Ry
     estimated scf accuracy    <       0.00215509 Ry

     total magnetization       =     3.06 Bohr mag/cell
     absolute magnetization    =     3.41 Bohr mag/cell

     iteration # 90     ecut=    50.00 Ry     beta= 0.40
     PPCG style diagonalization

---- Real-time Memory Report at c_bands before calling an iterative solver
            78 MiB given to the printing process from OS
            35 MiB allocation reported by mallinfo(arena+hblkhd)
        486156 MiB available memory on the node where the printing process lives
------------------
     ethr =  1.49E-06,  avg # of iterations =  9.2

     negative rho (up, down):  3.118E-02 3.364E-02

     total cpu time spent up to now is      184.4 secs

     total energy              =    -563.82179616 Ry
     estimated scf accuracy    <       0.00735271 Ry

     total magnetization       =     3.89 Bohr mag/cell
     absolute magnetization    =     4.12 Bohr mag/cell

     iteration # 91     ecut=    50.00 Ry     beta= 0.40
     PPCG style diagonalization

---- Real-time Memory Report at c_bands before calling an iterative solver
            78 MiB given to the printing process from OS
            35 MiB allocation reported by mallinfo(arena+hblkhd)
        486183 MiB available memory on the node where the printing process lives
------------------
     ethr =  1.49E-06,  avg # of iterations =  9.0

     negative rho (up, down):  3.120E-02 3.535E-02

     total cpu time spent up to now is      186.7 secs

     total energy              =    -563.76697815 Ry
     estimated scf accuracy    <       0.00258453 Ry

     total magnetization       =     3.32 Bohr mag/cell
     absolute magnetization    =     3.62 Bohr mag/cell

     iteration # 92     ecut=    50.00 Ry     beta= 0.40
     PPCG style diagonalization

---- Real-time Memory Report at c_bands before calling an iterative solver
            78 MiB given to the printing process from OS
            35 MiB allocation reported by mallinfo(arena+hblkhd)
        486160 MiB available memory on the node where the printing process lives
------------------
     ethr =  1.49E-06,  avg # of iterations =  9.6

     negative rho (up, down):  3.134E-02 4.322E-02

     total cpu time spent up to now is      189.4 secs

     total energy              =    -563.60233678 Ry
     estimated scf accuracy    <       0.01791147 Ry

     total magnetization       =     4.52 Bohr mag/cell
     absolute magnetization    =     4.72 Bohr mag/cell

     iteration # 93     ecut=    50.00 Ry     beta= 0.40
     PPCG style diagonalization

---- Real-time Memory Report at c_bands before calling an iterative solver
            78 MiB given to the printing process from OS
            35 MiB allocation reported by mallinfo(arena+hblkhd)
        486043 MiB available memory on the node where the printing process lives
------------------
     ethr =  1.49E-06,  avg # of iterations = 10.4

     negative rho (up, down):  3.122E-02 3.287E-02

     total cpu time spent up to now is      192.3 secs

     total energy              =    -563.69168074 Ry
     estimated scf accuracy    <       0.10891470 Ry

     total magnetization       =     5.53 Bohr mag/cell
     absolute magnetization    =     5.73 Bohr mag/cell

     iteration # 94     ecut=    50.00 Ry     beta= 0.40
     PPCG style diagonalization

---- Real-time Memory Report at c_bands before calling an iterative solver
            78 MiB given to the printing process from OS
            35 MiB allocation reported by mallinfo(arena+hblkhd)
        486093 MiB available memory on the node where the printing process lives
------------------
     ethr =  1.49E-06,  avg # of iterations = 11.1

     negative rho (up, down):  3.117E-02 3.368E-02

     total cpu time spent up to now is      195.3 secs

     total energy              =    -563.81631721 Ry
     estimated scf accuracy    <       0.00129062 Ry

     total magnetization       =     2.60 Bohr mag/cell
     absolute magnetization    =     3.06 Bohr mag/cell

     iteration # 95     ecut=    50.00 Ry     beta= 0.40
     PPCG style diagonalization

---- Real-time Memory Report at c_bands before calling an iterative solver
            78 MiB given to the printing process from OS
            35 MiB allocation reported by mallinfo(arena+hblkhd)
        486095 MiB available memory on the node where the printing process lives
------------------
     ethr =  1.49E-06,  avg # of iterations =  9.1

     negative rho (up, down):  3.115E-02 3.403E-02

     total cpu time spent up to now is      197.6 secs

     total energy              =    -563.82028844 Ry
     estimated scf accuracy    <       0.00243106 Ry

     total magnetization       =     3.39 Bohr mag/cell
     absolute magnetization    =     3.67 Bohr mag/cell

     iteration # 96     ecut=    50.00 Ry     beta= 0.40
     PPCG style diagonalization

---- Real-time Memory Report at c_bands before calling an iterative solver
            78 MiB given to the printing process from OS
            35 MiB allocation reported by mallinfo(arena+hblkhd)
        486095 MiB available memory on the node where the printing process lives
------------------
