
     Program PWSCF v.7.2 starts on 23Oct2023 at 17:40: 9 

     This program is part of the open-source Quantum ESPRESSO suite
     for quantum simulation of materials; please cite
         "P. Giannozzi et al., J. Phys.:Condens. Matter 21 395502 (2009);
         "P. Giannozzi et al., J. Phys.:Condens. Matter 29 465901 (2017);
         "P. Giannozzi et al., J. Chem. Phys. 152 154105 (2020);
          URL http://www.quantum-espresso.org", 
     in publications or presentations arising from this work. More details at
     http://www.quantum-espresso.org/quote

     Parallel version (MPI & OpenMP), running on      12 processor cores
     Number of MPI processes:                 1
     Threads/MPI process:                    12

     MPI processes distributed on     1 nodes
     54842 MiB available memory on the printing compute node when the environment starts
 
     Reading input from aiida.in

     Current dimensions of program PWSCF are:
     Max number of different atomic species (ntypx) = 10
     Max number of k-points (npk) =  40000
     Max angular momentum in pseudopotentials (lmaxx) =  4
     Message from routine setup:
     using ibrav=0 with symmetry is DISCOURAGED, use correct ibrav instead
 
     Subspace diagonalization in iterative solution of the eigenvalue problem:
     a serial algorithm will be used

 
     G-vector sticks info
     --------------------
     sticks:   dense  smooth     PW     G-vecs:    dense   smooth      PW
     Sum        1481     749    225                42579    15075    2537
 
     Using Slab Decomposition
 


     bravais-lattice index     =            0
     lattice parameter (alat)  =       7.2169  a.u.
     unit-cell volume          =     368.6920 (a.u.)^3
     number of atoms/cell      =            4
     number of atomic types    =            3
     number of electrons       =        63.00
     number of Kohn-Sham states=           38
     kinetic-energy cutoff     =      45.0000  Ry
     charge density cutoff     =     360.0000  Ry
     scf convergence threshold =      8.0E-10
     mixing beta               =       0.2000
     number of iterations used =            8  plain     mixing
     Exchange-correlation= SLA  PW   PSX  PSC
                           (   1   4  10   8   0   0   0)

     GPU acceleration is ACTIVE.


     GPU used by master process:

        Device Number: 0
        Device name: Tesla P100-PCIE-16GB
        Compute capability : 60
        Ratio of single to double precision performance  : 2
        Memory Clock Rate (KHz): 715000
        Memory Bus Width (bits): 4096
        Peak Memory Bandwidth (GB/s): 732.16

     celldm(1)=   7.216864  celldm(2)=   0.000000  celldm(3)=   0.000000
     celldm(4)=   0.000000  celldm(5)=   0.000000  celldm(6)=   0.000000

     crystal axes: (cart. coord. in units of alat)
               a(1) = (   1.000000   0.000000   0.000000 )  
               a(2) = (   0.000000   1.000000   0.000000 )  
               a(3) = (   0.000000   0.000000   0.980885 )  

     reciprocal axes: (cart. coord. in units 2 pi/alat)
               b(1) = (  1.000000  0.000000  0.000000 )  
               b(2) = (  0.000000  1.000000  0.000000 )  
               b(3) = (  0.000000  0.000000  1.019487 )  


     PseudoPot. # 1 for Co read from file:
     ./pseudo/co_pbesol_v1.2.uspp.F.UPF
     MD5 check sum: 3b4cd4e7cc7df4da9fdede0fd33e2193
     Pseudo is Ultrasoft + core correction, Zval = 17.0
     Generated by new atomic code, or converted to UPF format
     Using radial grid of  863 points,  6 beta functions with: 
                l(1) =   0
                l(2) =   0
                l(3) =   1
                l(4) =   1
                l(5) =   2
                l(6) =   2
     Q(r) pseudized with  8 coefficients,  rinner =    1.200   1.200   1.200
                                                       1.200   1.200

     PseudoPot. # 2 for Cr read from file:
     ./pseudo/cr_pbesol_v1.5.uspp.F.UPF
     MD5 check sum: a621641e0be27168676a837af8893d0f
     Pseudo is Ultrasoft + core correction, Zval = 14.0
     Generated by new atomic code, or converted to UPF format
     Using radial grid of  857 points,  6 beta functions with: 
                l(1) =   0
                l(2) =   0
                l(3) =   1
                l(4) =   1
                l(5) =   2
                l(6) =   2
     Q(r) pseudized with  8 coefficients,  rinner =    0.950   0.950   0.950
                                                       0.950   0.950

     PseudoPot. # 3 for Pt read from file:
     ./pseudo/pt_pbesol_v1.4.uspp.F.UPF
     MD5 check sum: d14d547907f752a992688280a7473f8c
     Pseudo is Ultrasoft + core correction, Zval = 16.0
     Generated by new atomic code, or converted to UPF format
     Using radial grid of  985 points,  6 beta functions with: 
                l(1) =   0
                l(2) =   0
                l(3) =   1
                l(4) =   1
                l(5) =   2
                l(6) =   2
     Q(r) pseudized with  8 coefficients,  rinner =    1.300   1.300   1.300
                                                       1.300   1.300

     atomic species   valence    mass     pseudopotential
        Co            17.00    58.93319     Co( 1.00)
        Cr            14.00    51.99610     Cr( 1.00)
        Pt            16.00   195.08400     Pt( 1.00)

     Starting magnetic structure 
     atomic species   magnetization
        Co           0.294
        Cr           0.357
        Pt           0.313

     16 Sym. Ops., with inversion, found


                                    s                        frac. trans.

      isym =  1     identity                                     

 cryst.   s( 1) = (     1          0          0      )
                  (     0          1          0      )
                  (     0          0          1      )

 cart.    s( 1) = (  1.0000000  0.0000000  0.0000000 )
                  (  0.0000000  1.0000000  0.0000000 )
                  (  0.0000000  0.0000000  1.0000000 )


      isym =  2     180 deg rotation - cart. axis [0,0,1]        

 cryst.   s( 2) = (    -1          0          0      )
                  (     0         -1          0      )
                  (     0          0          1      )

 cart.    s( 2) = ( -1.0000000  0.0000000  0.0000000 )
                  (  0.0000000 -1.0000000  0.0000000 )
                  (  0.0000000  0.0000000  1.0000000 )


      isym =  3     180 deg rotation - cart. axis [0,1,0]        

 cryst.   s( 3) = (    -1          0          0      )
                  (     0          1          0      )
                  (     0          0         -1      )

 cart.    s( 3) = ( -1.0000000  0.0000000  0.0000000 )
                  (  0.0000000  1.0000000  0.0000000 )
                  (  0.0000000  0.0000000 -1.0000000 )


      isym =  4     180 deg rotation - cart. axis [1,0,0]        

 cryst.   s( 4) = (     1          0          0      )
                  (     0         -1          0      )
                  (     0          0         -1      )

 cart.    s( 4) = (  1.0000000  0.0000000  0.0000000 )
                  (  0.0000000 -1.0000000  0.0000000 )
                  (  0.0000000  0.0000000 -1.0000000 )


      isym =  5     180 deg rotation - cart. axis [1,1,0]        

 cryst.   s( 5) = (     0          1          0      )
                  (     1          0          0      )
                  (     0          0         -1      )

 cart.    s( 5) = (  0.0000000  1.0000000  0.0000000 )
                  (  1.0000000  0.0000000  0.0000000 )
                  (  0.0000000  0.0000000 -1.0000000 )


      isym =  6     180 deg rotation - cart. axis [1,-1,0]       

 cryst.   s( 6) = (     0         -1          0      )
                  (    -1          0          0      )
                  (     0          0         -1      )

 cart.    s( 6) = (  0.0000000 -1.0000000  0.0000000 )
                  ( -1.0000000  0.0000000  0.0000000 )
                  (  0.0000000  0.0000000 -1.0000000 )


      isym =  7      90 deg rotation - cart. axis [0,0,-1]       

 cryst.   s( 7) = (     0         -1          0      )
                  (     1          0          0      )
                  (     0          0          1      )

 cart.    s( 7) = (  0.0000000  1.0000000  0.0000000 )
                  ( -1.0000000  0.0000000  0.0000000 )
                  (  0.0000000  0.0000000  1.0000000 )


      isym =  8      90 deg rotation - cart. axis [0,0,1]        

 cryst.   s( 8) = (     0          1          0      )
                  (    -1          0          0      )
                  (     0          0          1      )

 cart.    s( 8) = (  0.0000000 -1.0000000  0.0000000 )
                  (  1.0000000  0.0000000  0.0000000 )
                  (  0.0000000  0.0000000  1.0000000 )


      isym =  9     inversion                                    

 cryst.   s( 9) = (    -1          0          0      )
                  (     0         -1          0      )
                  (     0          0         -1      )

 cart.    s( 9) = ( -1.0000000  0.0000000  0.0000000 )
                  (  0.0000000 -1.0000000  0.0000000 )
                  (  0.0000000  0.0000000 -1.0000000 )


      isym = 10     inv. 180 deg rotation - cart. axis [0,0,1]   

 cryst.   s(10) = (     1          0          0      )
                  (     0          1          0      )
                  (     0          0         -1      )

 cart.    s(10) = (  1.0000000  0.0000000  0.0000000 )
                  (  0.0000000  1.0000000  0.0000000 )
                  (  0.0000000  0.0000000 -1.0000000 )


      isym = 11     inv. 180 deg rotation - cart. axis [0,1,0]   

 cryst.   s(11) = (     1          0          0      )
                  (     0         -1          0      )
                  (     0          0          1      )

 cart.    s(11) = (  1.0000000  0.0000000  0.0000000 )
                  (  0.0000000 -1.0000000  0.0000000 )
                  (  0.0000000  0.0000000  1.0000000 )


      isym = 12     inv. 180 deg rotation - cart. axis [1,0,0]   

 cryst.   s(12) = (    -1          0          0      )
                  (     0          1          0      )
                  (     0          0          1      )

 cart.    s(12) = ( -1.0000000  0.0000000  0.0000000 )
                  (  0.0000000  1.0000000  0.0000000 )
                  (  0.0000000  0.0000000  1.0000000 )


      isym = 13     inv. 180 deg rotation - cart. axis [1,1,0]   

 cryst.   s(13) = (     0         -1          0      )
                  (    -1          0          0      )
                  (     0          0          1      )

 cart.    s(13) = (  0.0000000 -1.0000000  0.0000000 )
                  ( -1.0000000  0.0000000  0.0000000 )
                  (  0.0000000  0.0000000  1.0000000 )


      isym = 14     inv. 180 deg rotation - cart. axis [1,-1,0]  

 cryst.   s(14) = (     0          1          0      )
                  (     1          0          0      )
                  (     0          0          1      )

 cart.    s(14) = (  0.0000000  1.0000000  0.0000000 )
                  (  1.0000000  0.0000000  0.0000000 )
                  (  0.0000000  0.0000000  1.0000000 )


      isym = 15     inv.  90 deg rotation - cart. axis [0,0,-1]  

 cryst.   s(15) = (     0          1          0      )
                  (    -1          0          0      )
                  (     0          0         -1      )

 cart.    s(15) = (  0.0000000 -1.0000000  0.0000000 )
                  (  1.0000000  0.0000000  0.0000000 )
                  (  0.0000000  0.0000000 -1.0000000 )


      isym = 16     inv.  90 deg rotation - cart. axis [0,0,1]   

 cryst.   s(16) = (     0         -1          0      )
                  (     1          0          0      )
                  (     0          0         -1      )

 cart.    s(16) = (  0.0000000  1.0000000  0.0000000 )
                  ( -1.0000000  0.0000000  0.0000000 )
                  (  0.0000000  0.0000000 -1.0000000 )


   Cartesian axes

     site n.     atom                  positions (alat units)
         1           Cr  tau(   1) = (   0.0000000   0.0000000   0.0000000  )
         2           Co  tau(   2) = (   0.5000000   0.5000000   0.0000000  )
         3           Pt  tau(   3) = (   0.5000000   0.0000000   0.4904425  )
         4           Pt  tau(   4) = (   0.0000000   0.5000000   0.4904425  )

   Crystallographic axes

     site n.     atom                  positions (cryst. coord.)
         1           Cr  tau(   1) = (  0.0000000  0.0000000  0.0000000  )
         2           Co  tau(   2) = (  0.5000000  0.5000000  0.0000000  )
         3           Pt  tau(   3) = (  0.5000000  0.0000000  0.5000000  )
         4           Pt  tau(   4) = (  0.0000000  0.5000000  0.5000000  )

     number of k points=   147  Marzari-Vanderbilt smearing, width (Ry)=  0.0100
                       cart. coord. in units 2pi/alat
        k(    1) = (   0.0000000   0.0000000   0.0000000), wk =   0.0006887
        k(    2) = (   0.0000000   0.0000000   0.0849573), wk =   0.0013774
        k(    3) = (   0.0000000   0.0000000   0.1699146), wk =   0.0013774
        k(    4) = (   0.0000000   0.0000000   0.2548719), wk =   0.0013774
        k(    5) = (   0.0000000   0.0000000   0.3398292), wk =   0.0013774
        k(    6) = (   0.0000000   0.0000000   0.4247864), wk =   0.0013774
        k(    7) = (   0.0000000   0.0000000  -0.5097437), wk =   0.0006887
        k(    8) = (   0.0000000   0.0909091   0.0000000), wk =   0.0027548
        k(    9) = (   0.0000000   0.0909091   0.0849573), wk =   0.0055096
        k(   10) = (   0.0000000   0.0909091   0.1699146), wk =   0.0055096
        k(   11) = (   0.0000000   0.0909091   0.2548719), wk =   0.0055096
        k(   12) = (   0.0000000   0.0909091   0.3398292), wk =   0.0055096
        k(   13) = (   0.0000000   0.0909091   0.4247864), wk =   0.0055096
        k(   14) = (   0.0000000   0.0909091  -0.5097437), wk =   0.0027548
        k(   15) = (   0.0000000   0.1818182   0.0000000), wk =   0.0027548
        k(   16) = (   0.0000000   0.1818182   0.0849573), wk =   0.0055096
        k(   17) = (   0.0000000   0.1818182   0.1699146), wk =   0.0055096
        k(   18) = (   0.0000000   0.1818182   0.2548719), wk =   0.0055096
        k(   19) = (   0.0000000   0.1818182   0.3398292), wk =   0.0055096
        k(   20) = (   0.0000000   0.1818182   0.4247864), wk =   0.0055096
        k(   21) = (   0.0000000   0.1818182  -0.5097437), wk =   0.0027548
        k(   22) = (   0.0000000   0.2727273   0.0000000), wk =   0.0027548
        k(   23) = (   0.0000000   0.2727273   0.0849573), wk =   0.0055096
        k(   24) = (   0.0000000   0.2727273   0.1699146), wk =   0.0055096
        k(   25) = (   0.0000000   0.2727273   0.2548719), wk =   0.0055096
        k(   26) = (   0.0000000   0.2727273   0.3398292), wk =   0.0055096
        k(   27) = (   0.0000000   0.2727273   0.4247864), wk =   0.0055096
        k(   28) = (   0.0000000   0.2727273  -0.5097437), wk =   0.0027548
        k(   29) = (   0.0000000   0.3636364   0.0000000), wk =   0.0027548
        k(   30) = (   0.0000000   0.3636364   0.0849573), wk =   0.0055096
        k(   31) = (   0.0000000   0.3636364   0.1699146), wk =   0.0055096
        k(   32) = (   0.0000000   0.3636364   0.2548719), wk =   0.0055096
        k(   33) = (   0.0000000   0.3636364   0.3398292), wk =   0.0055096
        k(   34) = (   0.0000000   0.3636364   0.4247864), wk =   0.0055096
        k(   35) = (   0.0000000   0.3636364  -0.5097437), wk =   0.0027548
        k(   36) = (   0.0000000   0.4545455   0.0000000), wk =   0.0027548
        k(   37) = (   0.0000000   0.4545455   0.0849573), wk =   0.0055096
        k(   38) = (   0.0000000   0.4545455   0.1699146), wk =   0.0055096
        k(   39) = (   0.0000000   0.4545455   0.2548719), wk =   0.0055096
        k(   40) = (   0.0000000   0.4545455   0.3398292), wk =   0.0055096
        k(   41) = (   0.0000000   0.4545455   0.4247864), wk =   0.0055096
        k(   42) = (   0.0000000   0.4545455  -0.5097437), wk =   0.0027548
        k(   43) = (   0.0909091   0.0909091   0.0000000), wk =   0.0027548
        k(   44) = (   0.0909091   0.0909091   0.0849573), wk =   0.0055096
        k(   45) = (   0.0909091   0.0909091   0.1699146), wk =   0.0055096
        k(   46) = (   0.0909091   0.0909091   0.2548719), wk =   0.0055096
        k(   47) = (   0.0909091   0.0909091   0.3398292), wk =   0.0055096
        k(   48) = (   0.0909091   0.0909091   0.4247864), wk =   0.0055096
        k(   49) = (   0.0909091   0.0909091  -0.5097437), wk =   0.0027548
        k(   50) = (   0.0909091   0.1818182   0.0000000), wk =   0.0055096
        k(   51) = (   0.0909091   0.1818182   0.0849573), wk =   0.0110193
        k(   52) = (   0.0909091   0.1818182   0.1699146), wk =   0.0110193
        k(   53) = (   0.0909091   0.1818182   0.2548719), wk =   0.0110193
        k(   54) = (   0.0909091   0.1818182   0.3398292), wk =   0.0110193
        k(   55) = (   0.0909091   0.1818182   0.4247864), wk =   0.0110193
        k(   56) = (   0.0909091   0.1818182  -0.5097437), wk =   0.0055096
        k(   57) = (   0.0909091   0.2727273   0.0000000), wk =   0.0055096
        k(   58) = (   0.0909091   0.2727273   0.0849573), wk =   0.0110193
        k(   59) = (   0.0909091   0.2727273   0.1699146), wk =   0.0110193
        k(   60) = (   0.0909091   0.2727273   0.2548719), wk =   0.0110193
        k(   61) = (   0.0909091   0.2727273   0.3398292), wk =   0.0110193
        k(   62) = (   0.0909091   0.2727273   0.4247864), wk =   0.0110193
        k(   63) = (   0.0909091   0.2727273  -0.5097437), wk =   0.0055096
        k(   64) = (   0.0909091   0.3636364   0.0000000), wk =   0.0055096
        k(   65) = (   0.0909091   0.3636364   0.0849573), wk =   0.0110193
        k(   66) = (   0.0909091   0.3636364   0.1699146), wk =   0.0110193
        k(   67) = (   0.0909091   0.3636364   0.2548719), wk =   0.0110193
        k(   68) = (   0.0909091   0.3636364   0.3398292), wk =   0.0110193
        k(   69) = (   0.0909091   0.3636364   0.4247864), wk =   0.0110193
        k(   70) = (   0.0909091   0.3636364  -0.5097437), wk =   0.0055096
        k(   71) = (   0.0909091   0.4545455   0.0000000), wk =   0.0055096
        k(   72) = (   0.0909091   0.4545455   0.0849573), wk =   0.0110193
        k(   73) = (   0.0909091   0.4545455   0.1699146), wk =   0.0110193
        k(   74) = (   0.0909091   0.4545455   0.2548719), wk =   0.0110193
        k(   75) = (   0.0909091   0.4545455   0.3398292), wk =   0.0110193
        k(   76) = (   0.0909091   0.4545455   0.4247864), wk =   0.0110193
        k(   77) = (   0.0909091   0.4545455  -0.5097437), wk =   0.0055096
        k(   78) = (   0.1818182   0.1818182   0.0000000), wk =   0.0027548
        k(   79) = (   0.1818182   0.1818182   0.0849573), wk =   0.0055096
        k(   80) = (   0.1818182   0.1818182   0.1699146), wk =   0.0055096
        k(   81) = (   0.1818182   0.1818182   0.2548719), wk =   0.0055096
        k(   82) = (   0.1818182   0.1818182   0.3398292), wk =   0.0055096
        k(   83) = (   0.1818182   0.1818182   0.4247864), wk =   0.0055096
        k(   84) = (   0.1818182   0.1818182  -0.5097437), wk =   0.0027548
        k(   85) = (   0.1818182   0.2727273   0.0000000), wk =   0.0055096
        k(   86) = (   0.1818182   0.2727273   0.0849573), wk =   0.0110193
        k(   87) = (   0.1818182   0.2727273   0.1699146), wk =   0.0110193
        k(   88) = (   0.1818182   0.2727273   0.2548719), wk =   0.0110193
        k(   89) = (   0.1818182   0.2727273   0.3398292), wk =   0.0110193
        k(   90) = (   0.1818182   0.2727273   0.4247864), wk =   0.0110193
        k(   91) = (   0.1818182   0.2727273  -0.5097437), wk =   0.0055096
        k(   92) = (   0.1818182   0.3636364   0.0000000), wk =   0.0055096
        k(   93) = (   0.1818182   0.3636364   0.0849573), wk =   0.0110193
        k(   94) = (   0.1818182   0.3636364   0.1699146), wk =   0.0110193
        k(   95) = (   0.1818182   0.3636364   0.2548719), wk =   0.0110193
        k(   96) = (   0.1818182   0.3636364   0.3398292), wk =   0.0110193
        k(   97) = (   0.1818182   0.3636364   0.4247864), wk =   0.0110193
        k(   98) = (   0.1818182   0.3636364  -0.5097437), wk =   0.0055096
        k(   99) = (   0.1818182   0.4545455   0.0000000), wk =   0.0055096
        k(  100) = (   0.1818182   0.4545455   0.0849573), wk =   0.0110193
        k(  101) = (   0.1818182   0.4545455   0.1699146), wk =   0.0110193
        k(  102) = (   0.1818182   0.4545455   0.2548719), wk =   0.0110193
        k(  103) = (   0.1818182   0.4545455   0.3398292), wk =   0.0110193
        k(  104) = (   0.1818182   0.4545455   0.4247864), wk =   0.0110193
        k(  105) = (   0.1818182   0.4545455  -0.5097437), wk =   0.0055096
        k(  106) = (   0.2727273   0.2727273   0.0000000), wk =   0.0027548
        k(  107) = (   0.2727273   0.2727273   0.0849573), wk =   0.0055096
        k(  108) = (   0.2727273   0.2727273   0.1699146), wk =   0.0055096
        k(  109) = (   0.2727273   0.2727273   0.2548719), wk =   0.0055096
        k(  110) = (   0.2727273   0.2727273   0.3398292), wk =   0.0055096
        k(  111) = (   0.2727273   0.2727273   0.4247864), wk =   0.0055096
        k(  112) = (   0.2727273   0.2727273  -0.5097437), wk =   0.0027548
        k(  113) = (   0.2727273   0.3636364   0.0000000), wk =   0.0055096
        k(  114) = (   0.2727273   0.3636364   0.0849573), wk =   0.0110193
        k(  115) = (   0.2727273   0.3636364   0.1699146), wk =   0.0110193
        k(  116) = (   0.2727273   0.3636364   0.2548719), wk =   0.0110193
        k(  117) = (   0.2727273   0.3636364   0.3398292), wk =   0.0110193
        k(  118) = (   0.2727273   0.3636364   0.4247864), wk =   0.0110193
        k(  119) = (   0.2727273   0.3636364  -0.5097437), wk =   0.0055096
        k(  120) = (   0.2727273   0.4545455   0.0000000), wk =   0.0055096
        k(  121) = (   0.2727273   0.4545455   0.0849573), wk =   0.0110193
        k(  122) = (   0.2727273   0.4545455   0.1699146), wk =   0.0110193
        k(  123) = (   0.2727273   0.4545455   0.2548719), wk =   0.0110193
        k(  124) = (   0.2727273   0.4545455   0.3398292), wk =   0.0110193
        k(  125) = (   0.2727273   0.4545455   0.4247864), wk =   0.0110193
        k(  126) = (   0.2727273   0.4545455  -0.5097437), wk =   0.0055096
        k(  127) = (   0.3636364   0.3636364   0.0000000), wk =   0.0027548
        k(  128) = (   0.3636364   0.3636364   0.0849573), wk =   0.0055096
        k(  129) = (   0.3636364   0.3636364   0.1699146), wk =   0.0055096
        k(  130) = (   0.3636364   0.3636364   0.2548719), wk =   0.0055096
        k(  131) = (   0.3636364   0.3636364   0.3398292), wk =   0.0055096
        k(  132) = (   0.3636364   0.3636364   0.4247864), wk =   0.0055096
        k(  133) = (   0.3636364   0.3636364  -0.5097437), wk =   0.0027548
        k(  134) = (   0.3636364   0.4545455   0.0000000), wk =   0.0055096
        k(  135) = (   0.3636364   0.4545455   0.0849573), wk =   0.0110193
        k(  136) = (   0.3636364   0.4545455   0.1699146), wk =   0.0110193
        k(  137) = (   0.3636364   0.4545455   0.2548719), wk =   0.0110193
        k(  138) = (   0.3636364   0.4545455   0.3398292), wk =   0.0110193
        k(  139) = (   0.3636364   0.4545455   0.4247864), wk =   0.0110193
        k(  140) = (   0.3636364   0.4545455  -0.5097437), wk =   0.0055096
        k(  141) = (   0.4545455   0.4545455   0.0000000), wk =   0.0027548
        k(  142) = (   0.4545455   0.4545455   0.0849573), wk =   0.0055096
        k(  143) = (   0.4545455   0.4545455   0.1699146), wk =   0.0055096
        k(  144) = (   0.4545455   0.4545455   0.2548719), wk =   0.0055096
        k(  145) = (   0.4545455   0.4545455   0.3398292), wk =   0.0055096
        k(  146) = (   0.4545455   0.4545455   0.4247864), wk =   0.0055096
        k(  147) = (   0.4545455   0.4545455  -0.5097437), wk =   0.0027548

                       cryst. coord.
        k(    1) = (   0.0000000   0.0000000   0.0000000), wk =   0.0006887
        k(    2) = (   0.0000000   0.0000000   0.0833333), wk =   0.0013774
        k(    3) = (   0.0000000   0.0000000   0.1666667), wk =   0.0013774
        k(    4) = (   0.0000000   0.0000000   0.2500000), wk =   0.0013774
        k(    5) = (   0.0000000   0.0000000   0.3333333), wk =   0.0013774
        k(    6) = (   0.0000000   0.0000000   0.4166667), wk =   0.0013774
        k(    7) = (   0.0000000   0.0000000  -0.5000000), wk =   0.0006887
        k(    8) = (   0.0000000   0.0909091   0.0000000), wk =   0.0027548
        k(    9) = (   0.0000000   0.0909091   0.0833333), wk =   0.0055096
        k(   10) = (   0.0000000   0.0909091   0.1666667), wk =   0.0055096
        k(   11) = (   0.0000000   0.0909091   0.2500000), wk =   0.0055096
        k(   12) = (   0.0000000   0.0909091   0.3333333), wk =   0.0055096
        k(   13) = (   0.0000000   0.0909091   0.4166667), wk =   0.0055096
        k(   14) = (   0.0000000   0.0909091  -0.5000000), wk =   0.0027548
        k(   15) = (   0.0000000   0.1818182   0.0000000), wk =   0.0027548
        k(   16) = (   0.0000000   0.1818182   0.0833333), wk =   0.0055096
        k(   17) = (   0.0000000   0.1818182   0.1666667), wk =   0.0055096
        k(   18) = (   0.0000000   0.1818182   0.2500000), wk =   0.0055096
        k(   19) = (   0.0000000   0.1818182   0.3333333), wk =   0.0055096
        k(   20) = (   0.0000000   0.1818182   0.4166667), wk =   0.0055096
        k(   21) = (   0.0000000   0.1818182  -0.5000000), wk =   0.0027548
        k(   22) = (   0.0000000   0.2727273   0.0000000), wk =   0.0027548
        k(   23) = (   0.0000000   0.2727273   0.0833333), wk =   0.0055096
        k(   24) = (   0.0000000   0.2727273   0.1666667), wk =   0.0055096
        k(   25) = (   0.0000000   0.2727273   0.2500000), wk =   0.0055096
        k(   26) = (   0.0000000   0.2727273   0.3333333), wk =   0.0055096
        k(   27) = (   0.0000000   0.2727273   0.4166667), wk =   0.0055096
        k(   28) = (   0.0000000   0.2727273  -0.5000000), wk =   0.0027548
        k(   29) = (   0.0000000   0.3636364   0.0000000), wk =   0.0027548
        k(   30) = (   0.0000000   0.3636364   0.0833333), wk =   0.0055096
        k(   31) = (   0.0000000   0.3636364   0.1666667), wk =   0.0055096
        k(   32) = (   0.0000000   0.3636364   0.2500000), wk =   0.0055096
        k(   33) = (   0.0000000   0.3636364   0.3333333), wk =   0.0055096
        k(   34) = (   0.0000000   0.3636364   0.4166667), wk =   0.0055096
        k(   35) = (   0.0000000   0.3636364  -0.5000000), wk =   0.0027548
        k(   36) = (   0.0000000   0.4545455   0.0000000), wk =   0.0027548
        k(   37) = (   0.0000000   0.4545455   0.0833333), wk =   0.0055096
        k(   38) = (   0.0000000   0.4545455   0.1666667), wk =   0.0055096
        k(   39) = (   0.0000000   0.4545455   0.2500000), wk =   0.0055096
        k(   40) = (   0.0000000   0.4545455   0.3333333), wk =   0.0055096
        k(   41) = (   0.0000000   0.4545455   0.4166667), wk =   0.0055096
        k(   42) = (   0.0000000   0.4545455  -0.5000000), wk =   0.0027548
        k(   43) = (   0.0909091   0.0909091   0.0000000), wk =   0.0027548
        k(   44) = (   0.0909091   0.0909091   0.0833333), wk =   0.0055096
        k(   45) = (   0.0909091   0.0909091   0.1666667), wk =   0.0055096
        k(   46) = (   0.0909091   0.0909091   0.2500000), wk =   0.0055096
        k(   47) = (   0.0909091   0.0909091   0.3333333), wk =   0.0055096
        k(   48) = (   0.0909091   0.0909091   0.4166667), wk =   0.0055096
        k(   49) = (   0.0909091   0.0909091  -0.5000000), wk =   0.0027548
        k(   50) = (   0.0909091   0.1818182   0.0000000), wk =   0.0055096
        k(   51) = (   0.0909091   0.1818182   0.0833333), wk =   0.0110193
        k(   52) = (   0.0909091   0.1818182   0.1666667), wk =   0.0110193
        k(   53) = (   0.0909091   0.1818182   0.2500000), wk =   0.0110193
        k(   54) = (   0.0909091   0.1818182   0.3333333), wk =   0.0110193
        k(   55) = (   0.0909091   0.1818182   0.4166667), wk =   0.0110193
        k(   56) = (   0.0909091   0.1818182  -0.5000000), wk =   0.0055096
        k(   57) = (   0.0909091   0.2727273   0.0000000), wk =   0.0055096
        k(   58) = (   0.0909091   0.2727273   0.0833333), wk =   0.0110193
        k(   59) = (   0.0909091   0.2727273   0.1666667), wk =   0.0110193
        k(   60) = (   0.0909091   0.2727273   0.2500000), wk =   0.0110193
        k(   61) = (   0.0909091   0.2727273   0.3333333), wk =   0.0110193
        k(   62) = (   0.0909091   0.2727273   0.4166667), wk =   0.0110193
        k(   63) = (   0.0909091   0.2727273  -0.5000000), wk =   0.0055096
        k(   64) = (   0.0909091   0.3636364   0.0000000), wk =   0.0055096
        k(   65) = (   0.0909091   0.3636364   0.0833333), wk =   0.0110193
        k(   66) = (   0.0909091   0.3636364   0.1666667), wk =   0.0110193
        k(   67) = (   0.0909091   0.3636364   0.2500000), wk =   0.0110193
        k(   68) = (   0.0909091   0.3636364   0.3333333), wk =   0.0110193
        k(   69) = (   0.0909091   0.3636364   0.4166667), wk =   0.0110193
        k(   70) = (   0.0909091   0.3636364  -0.5000000), wk =   0.0055096
        k(   71) = (   0.0909091   0.4545455   0.0000000), wk =   0.0055096
        k(   72) = (   0.0909091   0.4545455   0.0833333), wk =   0.0110193
        k(   73) = (   0.0909091   0.4545455   0.1666667), wk =   0.0110193
        k(   74) = (   0.0909091   0.4545455   0.2500000), wk =   0.0110193
        k(   75) = (   0.0909091   0.4545455   0.3333333), wk =   0.0110193
        k(   76) = (   0.0909091   0.4545455   0.4166667), wk =   0.0110193
        k(   77) = (   0.0909091   0.4545455  -0.5000000), wk =   0.0055096
        k(   78) = (   0.1818182   0.1818182   0.0000000), wk =   0.0027548
        k(   79) = (   0.1818182   0.1818182   0.0833333), wk =   0.0055096
        k(   80) = (   0.1818182   0.1818182   0.1666667), wk =   0.0055096
        k(   81) = (   0.1818182   0.1818182   0.2500000), wk =   0.0055096
        k(   82) = (   0.1818182   0.1818182   0.3333333), wk =   0.0055096
        k(   83) = (   0.1818182   0.1818182   0.4166667), wk =   0.0055096
        k(   84) = (   0.1818182   0.1818182  -0.5000000), wk =   0.0027548
        k(   85) = (   0.1818182   0.2727273   0.0000000), wk =   0.0055096
        k(   86) = (   0.1818182   0.2727273   0.0833333), wk =   0.0110193
        k(   87) = (   0.1818182   0.2727273   0.1666667), wk =   0.0110193
        k(   88) = (   0.1818182   0.2727273   0.2500000), wk =   0.0110193
        k(   89) = (   0.1818182   0.2727273   0.3333333), wk =   0.0110193
        k(   90) = (   0.1818182   0.2727273   0.4166667), wk =   0.0110193
        k(   91) = (   0.1818182   0.2727273  -0.5000000), wk =   0.0055096
        k(   92) = (   0.1818182   0.3636364   0.0000000), wk =   0.0055096
        k(   93) = (   0.1818182   0.3636364   0.0833333), wk =   0.0110193
        k(   94) = (   0.1818182   0.3636364   0.1666667), wk =   0.0110193
        k(   95) = (   0.1818182   0.3636364   0.2500000), wk =   0.0110193
        k(   96) = (   0.1818182   0.3636364   0.3333333), wk =   0.0110193
        k(   97) = (   0.1818182   0.3636364   0.4166667), wk =   0.0110193
        k(   98) = (   0.1818182   0.3636364  -0.5000000), wk =   0.0055096
        k(   99) = (   0.1818182   0.4545455   0.0000000), wk =   0.0055096
        k(  100) = (   0.1818182   0.4545455   0.0833333), wk =   0.0110193
        k(  101) = (   0.1818182   0.4545455   0.1666667), wk =   0.0110193
        k(  102) = (   0.1818182   0.4545455   0.2500000), wk =   0.0110193
        k(  103) = (   0.1818182   0.4545455   0.3333333), wk =   0.0110193
        k(  104) = (   0.1818182   0.4545455   0.4166667), wk =   0.0110193
        k(  105) = (   0.1818182   0.4545455  -0.5000000), wk =   0.0055096
        k(  106) = (   0.2727273   0.2727273   0.0000000), wk =   0.0027548
        k(  107) = (   0.2727273   0.2727273   0.0833333), wk =   0.0055096
        k(  108) = (   0.2727273   0.2727273   0.1666667), wk =   0.0055096
        k(  109) = (   0.2727273   0.2727273   0.2500000), wk =   0.0055096
        k(  110) = (   0.2727273   0.2727273   0.3333333), wk =   0.0055096
        k(  111) = (   0.2727273   0.2727273   0.4166667), wk =   0.0055096
        k(  112) = (   0.2727273   0.2727273  -0.5000000), wk =   0.0027548
        k(  113) = (   0.2727273   0.3636364   0.0000000), wk =   0.0055096
        k(  114) = (   0.2727273   0.3636364   0.0833333), wk =   0.0110193
        k(  115) = (   0.2727273   0.3636364   0.1666667), wk =   0.0110193
        k(  116) = (   0.2727273   0.3636364   0.2500000), wk =   0.0110193
        k(  117) = (   0.2727273   0.3636364   0.3333333), wk =   0.0110193
        k(  118) = (   0.2727273   0.3636364   0.4166667), wk =   0.0110193
        k(  119) = (   0.2727273   0.3636364  -0.5000000), wk =   0.0055096
        k(  120) = (   0.2727273   0.4545455   0.0000000), wk =   0.0055096
        k(  121) = (   0.2727273   0.4545455   0.0833333), wk =   0.0110193
        k(  122) = (   0.2727273   0.4545455   0.1666667), wk =   0.0110193
        k(  123) = (   0.2727273   0.4545455   0.2500000), wk =   0.0110193
        k(  124) = (   0.2727273   0.4545455   0.3333333), wk =   0.0110193
        k(  125) = (   0.2727273   0.4545455   0.4166667), wk =   0.0110193
        k(  126) = (   0.2727273   0.4545455  -0.5000000), wk =   0.0055096
        k(  127) = (   0.3636364   0.3636364   0.0000000), wk =   0.0027548
        k(  128) = (   0.3636364   0.3636364   0.0833333), wk =   0.0055096
        k(  129) = (   0.3636364   0.3636364   0.1666667), wk =   0.0055096
        k(  130) = (   0.3636364   0.3636364   0.2500000), wk =   0.0055096
        k(  131) = (   0.3636364   0.3636364   0.3333333), wk =   0.0055096
        k(  132) = (   0.3636364   0.3636364   0.4166667), wk =   0.0055096
        k(  133) = (   0.3636364   0.3636364  -0.5000000), wk =   0.0027548
        k(  134) = (   0.3636364   0.4545455   0.0000000), wk =   0.0055096
        k(  135) = (   0.3636364   0.4545455   0.0833333), wk =   0.0110193
        k(  136) = (   0.3636364   0.4545455   0.1666667), wk =   0.0110193
        k(  137) = (   0.3636364   0.4545455   0.2500000), wk =   0.0110193
        k(  138) = (   0.3636364   0.4545455   0.3333333), wk =   0.0110193
        k(  139) = (   0.3636364   0.4545455   0.4166667), wk =   0.0110193
        k(  140) = (   0.3636364   0.4545455  -0.5000000), wk =   0.0055096
        k(  141) = (   0.4545455   0.4545455   0.0000000), wk =   0.0027548
        k(  142) = (   0.4545455   0.4545455   0.0833333), wk =   0.0055096
        k(  143) = (   0.4545455   0.4545455   0.1666667), wk =   0.0055096
        k(  144) = (   0.4545455   0.4545455   0.2500000), wk =   0.0055096
        k(  145) = (   0.4545455   0.4545455   0.3333333), wk =   0.0055096
        k(  146) = (   0.4545455   0.4545455   0.4166667), wk =   0.0055096
        k(  147) = (   0.4545455   0.4545455  -0.5000000), wk =   0.0027548

     Dense  grid:    42579 G-vectors     FFT dimensions: (  45,  45,  45)

     Smooth grid:    15075 G-vectors     FFT dimensions: (  32,  32,  32)

     Dynamical RAM for                 wfc:       1.09 MB

     Dynamical RAM for     wfc (w. buffer):     321.40 MB

     Dynamical RAM for           str. fact:       1.95 MB

     Dynamical RAM for           local pot:       0.00 MB

     Dynamical RAM for          nlocal pot:       2.06 MB

     Dynamical RAM for                qrad:       4.57 MB

     Dynamical RAM for          rho,v,vnew:       8.07 MB

     Dynamical RAM for               rhoin:       2.69 MB

     Dynamical RAM for            rho*nmix:      20.79 MB

     Dynamical RAM for           G-vectors:       2.55 MB

     Dynamical RAM for          h,s,v(r/c):       0.26 MB

     Dynamical RAM for          <psi|beta>:       0.04 MB

     Dynamical RAM for                 psi:       2.18 MB

     Dynamical RAM for                hpsi:       2.18 MB

     Dynamical RAM for                spsi:       2.18 MB

     Dynamical RAM for      wfcinit/wfcrot:       2.21 MB

     Dynamical RAM for           addusdens:     122.79 MB

     Dynamical RAM for          addusforce:     124.11 MB

     Dynamical RAM for         addusstress:     131.57 MB

     Estimated static dynamical RAM per process >     350.07 MB

     Estimated max dynamical RAM per process >     502.42 MB

     Atomic positions and unit cell read from directory:
     ./out/aiida.save/
 

     Check: negative core charge=   -0.000007
     Generating pointlists ...
     new r_m :   0.2889 (alat units)  2.0850 (a.u.) for type    1
     new r_m :   0.2889 (alat units)  2.0850 (a.u.) for type    2
     new r_m :   0.2889 (alat units)  2.0850 (a.u.) for type    3

     The initial density is read from file :
     ./out/aiida.save/charge-density


     negative rho (up, down):  1.724E-01 1.718E-01
     Starting wfcs from file

     total cpu time spent up to now is        3.9 secs

     per-process dynamical memory:   395.8 Mb

     Self-consistent Calculation
[tb_dev] Currently allocated     3.05E-05 Mbytes, locked:    0 /   2
[tb_pin] Currently allocated     0.00E+00 Mbytes, locked:    0 /   0

     iteration #  1     ecut=    45.00 Ry     beta= 0.20
     Davidson diagonalization with overlap

---- Real-time Memory Report at c_bands before calling an iterative solver
           495 MiB given to the printing process from OS
           386 MiB allocation reported by mallinfo(arena+hblkhd)
         54212 MiB available memory on the node where the printing process lives
     GPU memory used/free/total (MiB): 628 / 15652 / 16280
------------------
     ethr =  1.00E-05,  avg # of iterations =  1.6

     negative rho (up, down):  1.724E-01 1.718E-01

     total cpu time spent up to now is       10.1 secs

     total energy              =    -894.79886661 Ry
     estimated scf accuracy    <       0.00067464 Ry

     total magnetization       =     3.38 Bohr mag/cell
     absolute magnetization    =     3.64 Bohr mag/cell
[tb_dev] Currently allocated     7.95E-01 Mbytes, locked:    0 /   8
[tb_pin] Currently allocated     0.00E+00 Mbytes, locked:    0 /   0

     iteration #  2     ecut=    45.00 Ry     beta= 0.20
     Davidson diagonalization with overlap

---- Real-time Memory Report at c_bands before calling an iterative solver
          1208 MiB given to the printing process from OS
          1019 MiB allocation reported by mallinfo(arena+hblkhd)
         52809 MiB available memory on the node where the printing process lives
     GPU memory used/free/total (MiB): 966 / 15314 / 16280
------------------
     ethr =  1.07E-06,  avg # of iterations =  2.4

     negative rho (up, down):  1.724E-01 1.718E-01

     total cpu time spent up to now is       16.3 secs

     total energy              =    -894.79865789 Ry
     estimated scf accuracy    <       0.01444325 Ry

     total magnetization       =     3.24 Bohr mag/cell
     absolute magnetization    =     3.52 Bohr mag/cell
[tb_dev] Currently allocated     7.95E-01 Mbytes, locked:    0 /   8
[tb_pin] Currently allocated     0.00E+00 Mbytes, locked:    0 /   0

     iteration #  3     ecut=    45.00 Ry     beta= 0.20
     Davidson diagonalization with overlap

---- Real-time Memory Report at c_bands before calling an iterative solver
          1215 MiB given to the printing process from OS
          1020 MiB allocation reported by mallinfo(arena+hblkhd)
         52813 MiB available memory on the node where the printing process lives
     GPU memory used/free/total (MiB): 966 / 15314 / 16280
------------------
     ethr =  1.07E-06,  avg # of iterations =  2.0

     negative rho (up, down):  1.724E-01 1.718E-01

     total cpu time spent up to now is       22.0 secs

     total energy              =    -894.79908676 Ry
     estimated scf accuracy    <       0.00010044 Ry

     total magnetization       =     3.34 Bohr mag/cell
     absolute magnetization    =     3.61 Bohr mag/cell
[tb_dev] Currently allocated     7.95E-01 Mbytes, locked:    0 /   8
[tb_pin] Currently allocated     0.00E+00 Mbytes, locked:    0 /   0

     iteration #  4     ecut=    45.00 Ry     beta= 0.20
     Davidson diagonalization with overlap

---- Real-time Memory Report at c_bands before calling an iterative solver
          1217 MiB given to the printing process from OS
          1021 MiB allocation reported by mallinfo(arena+hblkhd)
         52813 MiB available memory on the node where the printing process lives
     GPU memory used/free/total (MiB): 966 / 15314 / 16280
------------------
     ethr =  1.59E-07,  avg # of iterations =  2.0

     negative rho (up, down):  1.724E-01 1.718E-01

     total cpu time spent up to now is       27.7 secs

     total energy              =    -894.79910308 Ry
     estimated scf accuracy    <       0.00005654 Ry

     total magnetization       =     3.33 Bohr mag/cell
     absolute magnetization    =     3.60 Bohr mag/cell
[tb_dev] Currently allocated     7.95E-01 Mbytes, locked:    0 /   8
[tb_pin] Currently allocated     0.00E+00 Mbytes, locked:    0 /   0

     iteration #  5     ecut=    45.00 Ry     beta= 0.20
     Davidson diagonalization with overlap

---- Real-time Memory Report at c_bands before calling an iterative solver
          1219 MiB given to the printing process from OS
          1021 MiB allocation reported by mallinfo(arena+hblkhd)
         52812 MiB available memory on the node where the printing process lives
     GPU memory used/free/total (MiB): 966 / 15314 / 16280
------------------
     ethr =  8.97E-08,  avg # of iterations =  1.0

     negative rho (up, down):  1.725E-01 1.718E-01

     total cpu time spent up to now is       32.5 secs

     total energy              =    -894.79900240 Ry
     estimated scf accuracy    <       0.00005484 Ry

     total magnetization       =     3.33 Bohr mag/cell
     absolute magnetization    =     3.59 Bohr mag/cell
[tb_dev] Currently allocated     7.95E-01 Mbytes, locked:    0 /   8
[tb_pin] Currently allocated     0.00E+00 Mbytes, locked:    0 /   0

     iteration #  6     ecut=    45.00 Ry     beta= 0.20
     Davidson diagonalization with overlap

---- Real-time Memory Report at c_bands before calling an iterative solver
          1221 MiB given to the printing process from OS
          1023 MiB allocation reported by mallinfo(arena+hblkhd)
         52810 MiB available memory on the node where the printing process lives
     GPU memory used/free/total (MiB): 966 / 15314 / 16280
------------------
     ethr =  8.71E-08,  avg # of iterations =  2.0

     negative rho (up, down):  1.724E-01 1.718E-01

     total cpu time spent up to now is       38.2 secs

     total energy              =    -894.79906265 Ry
     estimated scf accuracy    <       0.00047940 Ry

     total magnetization       =     3.38 Bohr mag/cell
     absolute magnetization    =     3.64 Bohr mag/cell
[tb_dev] Currently allocated     7.95E-01 Mbytes, locked:    0 /   8
[tb_pin] Currently allocated     0.00E+00 Mbytes, locked:    0 /   0

     iteration #  7     ecut=    45.00 Ry     beta= 0.20
     Davidson diagonalization with overlap

---- Real-time Memory Report at c_bands before calling an iterative solver
          1224 MiB given to the printing process from OS
          1023 MiB allocation reported by mallinfo(arena+hblkhd)
         52809 MiB available memory on the node where the printing process lives
     GPU memory used/free/total (MiB): 966 / 15314 / 16280
------------------
     ethr =  8.71E-08,  avg # of iterations =  2.7

     negative rho (up, down):  1.724E-01 1.718E-01

     total cpu time spent up to now is       44.9 secs

     total energy              =    -894.79908254 Ry
     estimated scf accuracy    <       0.00052681 Ry

     total magnetization       =     3.33 Bohr mag/cell
     absolute magnetization    =     3.59 Bohr mag/cell
[tb_dev] Currently allocated     7.95E-01 Mbytes, locked:    0 /   8
[tb_pin] Currently allocated     0.00E+00 Mbytes, locked:    0 /   0

     iteration #  8     ecut=    45.00 Ry     beta= 0.20
     Davidson diagonalization with overlap

---- Real-time Memory Report at c_bands before calling an iterative solver
          1225 MiB given to the printing process from OS
          1024 MiB allocation reported by mallinfo(arena+hblkhd)
         52808 MiB available memory on the node where the printing process lives
     GPU memory used/free/total (MiB): 966 / 15314 / 16280
------------------
     ethr =  8.71E-08,  avg # of iterations =  1.6

     negative rho (up, down):  1.724E-01 1.719E-01

     total cpu time spent up to now is       50.3 secs

     total energy              =    -894.79912044 Ry
     estimated scf accuracy    <       0.00055304 Ry

     total magnetization       =     3.36 Bohr mag/cell
     absolute magnetization    =     3.62 Bohr mag/cell
[tb_dev] Currently allocated     7.95E-01 Mbytes, locked:    0 /   8
[tb_pin] Currently allocated     0.00E+00 Mbytes, locked:    0 /   0

     iteration #  9     ecut=    45.00 Ry     beta= 0.20
     Davidson diagonalization with overlap

---- Real-time Memory Report at c_bands before calling an iterative solver
          1227 MiB given to the printing process from OS
          1025 MiB allocation reported by mallinfo(arena+hblkhd)
         52805 MiB available memory on the node where the printing process lives
     GPU memory used/free/total (MiB): 966 / 15314 / 16280
------------------
     ethr =  8.71E-08,  avg # of iterations =  2.0

     negative rho (up, down):  1.726E-01 1.715E-01

     total cpu time spent up to now is       56.1 secs

     total energy              =    -894.79580015 Ry
     estimated scf accuracy    <       0.00051784 Ry

     total magnetization       =     3.31 Bohr mag/cell
     absolute magnetization    =     3.57 Bohr mag/cell
[tb_dev] Currently allocated     7.95E-01 Mbytes, locked:    0 /   8
[tb_pin] Currently allocated     0.00E+00 Mbytes, locked:    0 /   0

     iteration # 10     ecut=    45.00 Ry     beta= 0.20
     Davidson diagonalization with overlap

---- Real-time Memory Report at c_bands before calling an iterative solver
          1229 MiB given to the printing process from OS
          1026 MiB allocation reported by mallinfo(arena+hblkhd)
         52804 MiB available memory on the node where the printing process lives
     GPU memory used/free/total (MiB): 966 / 15314 / 16280
------------------
     ethr =  8.71E-08,  avg # of iterations =  4.8

     negative rho (up, down):  1.724E-01 1.718E-01

     total cpu time spent up to now is       66.3 secs

     total energy              =    -894.79685197 Ry
     estimated scf accuracy    <       0.00273746 Ry

     total magnetization       =     3.64 Bohr mag/cell
     absolute magnetization    =     3.90 Bohr mag/cell
[tb_dev] Currently allocated     7.95E-01 Mbytes, locked:    0 /   8
[tb_pin] Currently allocated     0.00E+00 Mbytes, locked:    0 /   0

     iteration # 11     ecut=    45.00 Ry     beta= 0.20
     Davidson diagonalization with overlap

---- Real-time Memory Report at c_bands before calling an iterative solver
          1229 MiB given to the printing process from OS
          1026 MiB allocation reported by mallinfo(arena+hblkhd)
         52805 MiB available memory on the node where the printing process lives
     GPU memory used/free/total (MiB): 966 / 15314 / 16280
------------------
     ethr =  8.71E-08,  avg # of iterations =  4.9

     negative rho (up, down):  1.724E-01 1.719E-01

     total cpu time spent up to now is       76.5 secs

     total energy              =    -894.79917799 Ry
     estimated scf accuracy    <       0.00074554 Ry

     total magnetization       =     3.32 Bohr mag/cell
     absolute magnetization    =     3.58 Bohr mag/cell
[tb_dev] Currently allocated     7.95E-01 Mbytes, locked:    0 /   8
[tb_pin] Currently allocated     0.00E+00 Mbytes, locked:    0 /   0

     iteration # 12     ecut=    45.00 Ry     beta= 0.20
     Davidson diagonalization with overlap

---- Real-time Memory Report at c_bands before calling an iterative solver
          1230 MiB given to the printing process from OS
          1026 MiB allocation reported by mallinfo(arena+hblkhd)
         52805 MiB available memory on the node where the printing process lives
     GPU memory used/free/total (MiB): 966 / 15314 / 16280
------------------
     ethr =  8.71E-08,  avg # of iterations =  2.7

     negative rho (up, down):  1.724E-01 1.718E-01

     total cpu time spent up to now is       83.3 secs

     total energy              =    -894.79905102 Ry
     estimated scf accuracy    <       0.00087177 Ry

     total magnetization       =     3.26 Bohr mag/cell
     absolute magnetization    =     3.53 Bohr mag/cell
[tb_dev] Currently allocated     7.95E-01 Mbytes, locked:    0 /   8
[tb_pin] Currently allocated     0.00E+00 Mbytes, locked:    0 /   0

     iteration # 13     ecut=    45.00 Ry     beta= 0.20
     Davidson diagonalization with overlap

---- Real-time Memory Report at c_bands before calling an iterative solver
          1230 MiB given to the printing process from OS
          1026 MiB allocation reported by mallinfo(arena+hblkhd)
         52806 MiB available memory on the node where the printing process lives
     GPU memory used/free/total (MiB): 966 / 15314 / 16280
------------------
     ethr =  8.71E-08,  avg # of iterations =  2.7

     negative rho (up, down):  1.723E-01 1.720E-01

     total cpu time spent up to now is       90.1 secs

     total energy              =    -894.79871611 Ry
     estimated scf accuracy    <       0.00071162 Ry

     total magnetization       =     3.33 Bohr mag/cell
     absolute magnetization    =     3.59 Bohr mag/cell
[tb_dev] Currently allocated     7.95E-01 Mbytes, locked:    0 /   8
[tb_pin] Currently allocated     0.00E+00 Mbytes, locked:    0 /   0

     iteration # 14     ecut=    45.00 Ry     beta= 0.20
     Davidson diagonalization with overlap

---- Real-time Memory Report at c_bands before calling an iterative solver
          1230 MiB given to the printing process from OS
          1026 MiB allocation reported by mallinfo(arena+hblkhd)
         52806 MiB available memory on the node where the printing process lives
     GPU memory used/free/total (MiB): 966 / 15314 / 16280
------------------
     ethr =  8.71E-08,  avg # of iterations =  4.1

     negative rho (up, down):  1.726E-01 1.715E-01

     total cpu time spent up to now is       99.2 secs

     total energy              =    -894.79229843 Ry
     estimated scf accuracy    <       0.00147342 Ry

     total magnetization       =     3.16 Bohr mag/cell
     absolute magnetization    =     3.43 Bohr mag/cell
[tb_dev] Currently allocated     7.95E-01 Mbytes, locked:    0 /   8
[tb_pin] Currently allocated     0.00E+00 Mbytes, locked:    0 /   0

     iteration # 15     ecut=    45.00 Ry     beta= 0.20
     Davidson diagonalization with overlap

---- Real-time Memory Report at c_bands before calling an iterative solver
          1230 MiB given to the printing process from OS
          1026 MiB allocation reported by mallinfo(arena+hblkhd)
         52806 MiB available memory on the node where the printing process lives
     GPU memory used/free/total (MiB): 966 / 15314 / 16280
------------------
     ethr =  8.71E-08,  avg # of iterations =  5.3

     negative rho (up, down):  1.723E-01 1.720E-01

     total cpu time spent up to now is      110.3 secs

     total energy              =    -894.79311134 Ry
     estimated scf accuracy    <       0.00471863 Ry

     total magnetization       =     3.66 Bohr mag/cell
     absolute magnetization    =     3.92 Bohr mag/cell
[tb_dev] Currently allocated     7.95E-01 Mbytes, locked:    0 /   8
[tb_pin] Currently allocated     0.00E+00 Mbytes, locked:    0 /   0

     iteration # 16     ecut=    45.00 Ry     beta= 0.20
     Davidson diagonalization with overlap

---- Real-time Memory Report at c_bands before calling an iterative solver
          1230 MiB given to the printing process from OS
          1026 MiB allocation reported by mallinfo(arena+hblkhd)
         52807 MiB available memory on the node where the printing process lives
     GPU memory used/free/total (MiB): 966 / 15314 / 16280
------------------
     ethr =  8.71E-08,  avg # of iterations =  5.4

     negative rho (up, down):  1.721E-01 1.722E-01

     total cpu time spent up to now is      121.6 secs

     total energy              =    -894.79908755 Ry
     estimated scf accuracy    <       0.00254732 Ry

     total magnetization       =     3.12 Bohr mag/cell
     absolute magnetization    =     3.39 Bohr mag/cell
[tb_dev] Currently allocated     7.95E-01 Mbytes, locked:    0 /   8
[tb_pin] Currently allocated     0.00E+00 Mbytes, locked:    0 /   0

     iteration # 17     ecut=    45.00 Ry     beta= 0.20
     Davidson diagonalization with overlap

---- Real-time Memory Report at c_bands before calling an iterative solver
          1230 MiB given to the printing process from OS
          1026 MiB allocation reported by mallinfo(arena+hblkhd)
         52807 MiB available memory on the node where the printing process lives
     GPU memory used/free/total (MiB): 966 / 15314 / 16280
------------------
     ethr =  8.71E-08,  avg # of iterations =  4.3

     negative rho (up, down):  1.722E-01 1.721E-01

     total cpu time spent up to now is      131.0 secs

     total energy              =    -894.79986725 Ry
     estimated scf accuracy    <       0.00907894 Ry

     total magnetization       =     2.93 Bohr mag/cell
     absolute magnetization    =     3.23 Bohr mag/cell
[tb_dev] Currently allocated     7.95E-01 Mbytes, locked:    0 /   8
[tb_pin] Currently allocated     0.00E+00 Mbytes, locked:    0 /   0

     iteration # 18     ecut=    45.00 Ry     beta= 0.20
     Davidson diagonalization with overlap

---- Real-time Memory Report at c_bands before calling an iterative solver
          1230 MiB given to the printing process from OS
          1026 MiB allocation reported by mallinfo(arena+hblkhd)
         52807 MiB available memory on the node where the printing process lives
     GPU memory used/free/total (MiB): 966 / 15314 / 16280
------------------
     ethr =  8.71E-08,  avg # of iterations =  3.0

     negative rho (up, down):  1.724E-01 1.718E-01

     total cpu time spent up to now is      138.1 secs

     total energy              =    -894.79563526 Ry
     estimated scf accuracy    <       0.00631237 Ry

     total magnetization       =     2.99 Bohr mag/cell
     absolute magnetization    =     3.28 Bohr mag/cell
[tb_dev] Currently allocated     7.95E-01 Mbytes, locked:    0 /   8
[tb_pin] Currently allocated     0.00E+00 Mbytes, locked:    0 /   0

     iteration # 19     ecut=    45.00 Ry     beta= 0.20
     Davidson diagonalization with overlap

---- Real-time Memory Report at c_bands before calling an iterative solver
          1230 MiB given to the printing process from OS
          1026 MiB allocation reported by mallinfo(arena+hblkhd)
         52808 MiB available memory on the node where the printing process lives
     GPU memory used/free/total (MiB): 966 / 15314 / 16280
------------------
     ethr =  8.71E-08,  avg # of iterations =  4.9

     negative rho (up, down):  1.723E-01 1.719E-01

     total cpu time spent up to now is      148.5 secs

     total energy              =    -894.79891103 Ry
     estimated scf accuracy    <       0.00088601 Ry

     total magnetization       =     3.34 Bohr mag/cell
     absolute magnetization    =     3.60 Bohr mag/cell
[tb_dev] Currently allocated     7.95E-01 Mbytes, locked:    0 /   8
[tb_pin] Currently allocated     0.00E+00 Mbytes, locked:    0 /   0

     iteration # 20     ecut=    45.00 Ry     beta= 0.20
     Davidson diagonalization with overlap

---- Real-time Memory Report at c_bands before calling an iterative solver
          1230 MiB given to the printing process from OS
          1026 MiB allocation reported by mallinfo(arena+hblkhd)
         52808 MiB available memory on the node where the printing process lives
     GPU memory used/free/total (MiB): 966 / 15314 / 16280
------------------
     ethr =  8.71E-08,  avg # of iterations =  3.9

     negative rho (up, down):  1.724E-01 1.719E-01

     total cpu time spent up to now is      157.4 secs

     total energy              =    -894.79902340 Ry
     estimated scf accuracy    <       0.00144141 Ry

     total magnetization       =     3.20 Bohr mag/cell
     absolute magnetization    =     3.47 Bohr mag/cell
[tb_dev] Currently allocated     7.95E-01 Mbytes, locked:    0 /   8
[tb_pin] Currently allocated     0.00E+00 Mbytes, locked:    0 /   0

     iteration # 21     ecut=    45.00 Ry     beta= 0.20
     Davidson diagonalization with overlap

---- Real-time Memory Report at c_bands before calling an iterative solver
          1230 MiB given to the printing process from OS
          1026 MiB allocation reported by mallinfo(arena+hblkhd)
         52808 MiB available memory on the node where the printing process lives
     GPU memory used/free/total (MiB): 966 / 15314 / 16280
------------------
     ethr =  8.71E-08,  avg # of iterations =  3.4

     negative rho (up, down):  1.725E-01 1.716E-01

     total cpu time spent up to now is      165.4 secs

     total energy              =    -894.79748974 Ry
     estimated scf accuracy    <       0.00092688 Ry

     total magnetization       =     3.28 Bohr mag/cell
     absolute magnetization    =     3.55 Bohr mag/cell
[tb_dev] Currently allocated     7.95E-01 Mbytes, locked:    0 /   8
[tb_pin] Currently allocated     0.00E+00 Mbytes, locked:    0 /   0

     iteration # 22     ecut=    45.00 Ry     beta= 0.20
     Davidson diagonalization with overlap

---- Real-time Memory Report at c_bands before calling an iterative solver
          1230 MiB given to the printing process from OS
          1026 MiB allocation reported by mallinfo(arena+hblkhd)
         52808 MiB available memory on the node where the printing process lives
     GPU memory used/free/total (MiB): 966 / 15314 / 16280
------------------
     ethr =  8.71E-08,  avg # of iterations =  4.5

     negative rho (up, down):  1.726E-01 1.715E-01

     total cpu time spent up to now is      175.2 secs

     total energy              =    -894.79816406 Ry
     estimated scf accuracy    <       0.00157518 Ry

     total magnetization       =     3.53 Bohr mag/cell
     absolute magnetization    =     3.78 Bohr mag/cell
[tb_dev] Currently allocated     7.95E-01 Mbytes, locked:    0 /   8
[tb_pin] Currently allocated     0.00E+00 Mbytes, locked:    0 /   0

     iteration # 23     ecut=    45.00 Ry     beta= 0.20
     Davidson diagonalization with overlap

---- Real-time Memory Report at c_bands before calling an iterative solver
          1230 MiB given to the printing process from OS
          1026 MiB allocation reported by mallinfo(arena+hblkhd)
         52808 MiB available memory on the node where the printing process lives
     GPU memory used/free/total (MiB): 966 / 15314 / 16280
------------------
     ethr =  8.71E-08,  avg # of iterations =  4.0

     negative rho (up, down):  1.725E-01 1.717E-01

     total cpu time spent up to now is      184.2 secs

     total energy              =    -894.79851833 Ry
     estimated scf accuracy    <       0.00406554 Ry

     total magnetization       =     3.66 Bohr mag/cell
     absolute magnetization    =     3.91 Bohr mag/cell
[tb_dev] Currently allocated     7.95E-01 Mbytes, locked:    0 /   8
[tb_pin] Currently allocated     0.00E+00 Mbytes, locked:    0 /   0

     iteration # 24     ecut=    45.00 Ry     beta= 0.20
     Davidson diagonalization with overlap

---- Real-time Memory Report at c_bands before calling an iterative solver
          1230 MiB given to the printing process from OS
          1026 MiB allocation reported by mallinfo(arena+hblkhd)
         52808 MiB available memory on the node where the printing process lives
     GPU memory used/free/total (MiB): 966 / 15314 / 16280
------------------
     ethr =  8.71E-08,  avg # of iterations =  4.0

     negative rho (up, down):  1.725E-01 1.717E-01

     total cpu time spent up to now is      193.2 secs

     total energy              =    -894.79888530 Ry
     estimated scf accuracy    <       0.00149036 Ry

     total magnetization       =     3.53 Bohr mag/cell
     absolute magnetization    =     3.79 Bohr mag/cell
[tb_dev] Currently allocated     7.95E-01 Mbytes, locked:    0 /   8
[tb_pin] Currently allocated     0.00E+00 Mbytes, locked:    0 /   0

     iteration # 25     ecut=    45.00 Ry     beta= 0.20
     Davidson diagonalization with overlap

---- Real-time Memory Report at c_bands before calling an iterative solver
          1230 MiB given to the printing process from OS
          1026 MiB allocation reported by mallinfo(arena+hblkhd)
         52781 MiB available memory on the node where the printing process lives
     GPU memory used/free/total (MiB): 966 / 15314 / 16280
------------------
     ethr =  8.71E-08,  avg # of iterations =  2.4

     negative rho (up, down):  1.725E-01 1.717E-01

     total cpu time spent up to now is      199.7 secs

     total energy              =    -894.79895495 Ry
     estimated scf accuracy    <       0.00109298 Ry

     total magnetization       =     3.48 Bohr mag/cell
     absolute magnetization    =     3.74 Bohr mag/cell
[tb_dev] Currently allocated     7.95E-01 Mbytes, locked:    0 /   8
[tb_pin] Currently allocated     0.00E+00 Mbytes, locked:    0 /   0

     iteration # 26     ecut=    45.00 Ry     beta= 0.20
     Davidson diagonalization with overlap

---- Real-time Memory Report at c_bands before calling an iterative solver
          1230 MiB given to the printing process from OS
          1026 MiB allocation reported by mallinfo(arena+hblkhd)
         52787 MiB available memory on the node where the printing process lives
     GPU memory used/free/total (MiB): 966 / 15314 / 16280
------------------
     ethr =  8.71E-08,  avg # of iterations =  2.8

     negative rho (up, down):  1.723E-01 1.719E-01

     total cpu time spent up to now is      206.4 secs

     total energy              =    -894.79833678 Ry
     estimated scf accuracy    <       0.00081320 Ry

     total magnetization       =     3.43 Bohr mag/cell
     absolute magnetization    =     3.69 Bohr mag/cell
[tb_dev] Currently allocated     7.95E-01 Mbytes, locked:    0 /   8
[tb_pin] Currently allocated     0.00E+00 Mbytes, locked:    0 /   0

     iteration # 27     ecut=    45.00 Ry     beta= 0.20
     Davidson diagonalization with overlap

---- Real-time Memory Report at c_bands before calling an iterative solver
          1230 MiB given to the printing process from OS
          1026 MiB allocation reported by mallinfo(arena+hblkhd)
         52793 MiB available memory on the node where the printing process lives
     GPU memory used/free/total (MiB): 966 / 15314 / 16280
------------------
     ethr =  8.71E-08,  avg # of iterations =  4.3

     negative rho (up, down):  1.724E-01 1.719E-01

     total cpu time spent up to now is      215.8 secs

     total energy              =    -894.79914674 Ry
     estimated scf accuracy    <       0.00111467 Ry

     total magnetization       =     3.23 Bohr mag/cell
     absolute magnetization    =     3.49 Bohr mag/cell
[tb_dev] Currently allocated     7.95E-01 Mbytes, locked:    0 /   8
[tb_pin] Currently allocated     0.00E+00 Mbytes, locked:    0 /   0

     iteration # 28     ecut=    45.00 Ry     beta= 0.20
     Davidson diagonalization with overlap

---- Real-time Memory Report at c_bands before calling an iterative solver
          1230 MiB given to the printing process from OS
          1026 MiB allocation reported by mallinfo(arena+hblkhd)
         52798 MiB available memory on the node where the printing process lives
     GPU memory used/free/total (MiB): 966 / 15314 / 16280
------------------
     ethr =  8.71E-08,  avg # of iterations =  2.6

     negative rho (up, down):  1.723E-01 1.719E-01

     total cpu time spent up to now is      222.4 secs

     total energy              =    -894.79919241 Ry
     estimated scf accuracy    <       0.00082351 Ry

     total magnetization       =     3.28 Bohr mag/cell
     absolute magnetization    =     3.54 Bohr mag/cell
[tb_dev] Currently allocated     7.95E-01 Mbytes, locked:    0 /   8
[tb_pin] Currently allocated     0.00E+00 Mbytes, locked:    0 /   0

     iteration # 29     ecut=    45.00 Ry     beta= 0.20
     Davidson diagonalization with overlap

---- Real-time Memory Report at c_bands before calling an iterative solver
          1230 MiB given to the printing process from OS
          1026 MiB allocation reported by mallinfo(arena+hblkhd)
         52799 MiB available memory on the node where the printing process lives
     GPU memory used/free/total (MiB): 966 / 15314 / 16280
------------------
     ethr =  8.71E-08,  avg # of iterations =  3.2

     negative rho (up, down):  1.725E-01 1.717E-01

     total cpu time spent up to now is      230.2 secs

     total energy              =    -894.79699543 Ry
     estimated scf accuracy    <       0.00134919 Ry

     total magnetization       =     3.20 Bohr mag/cell
     absolute magnetization    =     3.47 Bohr mag/cell
[tb_dev] Currently allocated     7.95E-01 Mbytes, locked:    0 /   8
[tb_pin] Currently allocated     0.00E+00 Mbytes, locked:    0 /   0

     iteration # 30     ecut=    45.00 Ry     beta= 0.20
     Davidson diagonalization with overlap

---- Real-time Memory Report at c_bands before calling an iterative solver
          1230 MiB given to the printing process from OS
          1026 MiB allocation reported by mallinfo(arena+hblkhd)
         52799 MiB available memory on the node where the printing process lives
     GPU memory used/free/total (MiB): 966 / 15314 / 16280
------------------
     ethr =  8.71E-08,  avg # of iterations =  4.6

     negative rho (up, down):  1.727E-01 1.715E-01

     total cpu time spent up to now is      240.2 secs

     total energy              =    -894.79734990 Ry
     estimated scf accuracy    <       0.00113250 Ry

     total magnetization       =     3.48 Bohr mag/cell
     absolute magnetization    =     3.73 Bohr mag/cell
[tb_dev] Currently allocated     7.95E-01 Mbytes, locked:    0 /   8
[tb_pin] Currently allocated     0.00E+00 Mbytes, locked:    0 /   0

     iteration # 31     ecut=    45.00 Ry     beta= 0.20
     Davidson diagonalization with overlap

---- Real-time Memory Report at c_bands before calling an iterative solver
          1230 MiB given to the printing process from OS
          1026 MiB allocation reported by mallinfo(arena+hblkhd)
         52801 MiB available memory on the node where the printing process lives
     GPU memory used/free/total (MiB): 966 / 15314 / 16280
------------------
     ethr =  8.71E-08,  avg # of iterations =  4.4

     negative rho (up, down):  1.728E-01 1.713E-01

     total cpu time spent up to now is      250.0 secs

     total energy              =    -894.79710776 Ry
     estimated scf accuracy    <       0.00527777 Ry

     total magnetization       =     3.70 Bohr mag/cell
     absolute magnetization    =     3.96 Bohr mag/cell
[tb_dev] Currently allocated     7.95E-01 Mbytes, locked:    0 /   8
[tb_pin] Currently allocated     0.00E+00 Mbytes, locked:    0 /   0

     iteration # 32     ecut=    45.00 Ry     beta= 0.20
     Davidson diagonalization with overlap

---- Real-time Memory Report at c_bands before calling an iterative solver
          1230 MiB given to the printing process from OS
          1026 MiB allocation reported by mallinfo(arena+hblkhd)
         52802 MiB available memory on the node where the printing process lives
     GPU memory used/free/total (MiB): 966 / 15314 / 16280
------------------
     ethr =  8.71E-08,  avg # of iterations =  4.1

     negative rho (up, down):  1.728E-01 1.712E-01

     total cpu time spent up to now is      259.2 secs

     total energy              =    -894.79697339 Ry
     estimated scf accuracy    <       0.01305883 Ry

     total magnetization       =     3.87 Bohr mag/cell
     absolute magnetization    =     4.13 Bohr mag/cell
[tb_dev] Currently allocated     7.95E-01 Mbytes, locked:    0 /   8
[tb_pin] Currently allocated     0.00E+00 Mbytes, locked:    0 /   0

     iteration # 33     ecut=    45.00 Ry     beta= 0.20
     Davidson diagonalization with overlap

---- Real-time Memory Report at c_bands before calling an iterative solver
          1230 MiB given to the printing process from OS
          1026 MiB allocation reported by mallinfo(arena+hblkhd)
         52802 MiB available memory on the node where the printing process lives
     GPU memory used/free/total (MiB): 966 / 15314 / 16280
------------------
     ethr =  8.71E-08,  avg # of iterations =  3.4

     negative rho (up, down):  1.726E-01 1.715E-01

     total cpu time spent up to now is      267.3 secs

     total energy              =    -894.79678820 Ry
     estimated scf accuracy    <       0.01931493 Ry

     total magnetization       =     3.96 Bohr mag/cell
     absolute magnetization    =     4.22 Bohr mag/cell
[tb_dev] Currently allocated     7.95E-01 Mbytes, locked:    0 /   8
[tb_pin] Currently allocated     0.00E+00 Mbytes, locked:    0 /   0

     iteration # 34     ecut=    45.00 Ry     beta= 0.20
     Davidson diagonalization with overlap

---- Real-time Memory Report at c_bands before calling an iterative solver
          1230 MiB given to the printing process from OS
          1026 MiB allocation reported by mallinfo(arena+hblkhd)
         52803 MiB available memory on the node where the printing process lives
     GPU memory used/free/total (MiB): 966 / 15314 / 16280
------------------
     ethr =  8.71E-08,  avg # of iterations =  4.8

     negative rho (up, down):  1.726E-01 1.715E-01

     total cpu time spent up to now is      277.6 secs

     total energy              =    -894.79861859 Ry
     estimated scf accuracy    <       0.00373142 Ry

     total magnetization       =     3.64 Bohr mag/cell
     absolute magnetization    =     3.90 Bohr mag/cell
[tb_dev] Currently allocated     7.95E-01 Mbytes, locked:    0 /   8
[tb_pin] Currently allocated     0.00E+00 Mbytes, locked:    0 /   0

     iteration # 35     ecut=    45.00 Ry     beta= 0.20
     Davidson diagonalization with overlap

---- Real-time Memory Report at c_bands before calling an iterative solver
          1230 MiB given to the printing process from OS
          1026 MiB allocation reported by mallinfo(arena+hblkhd)
         52803 MiB available memory on the node where the printing process lives
     GPU memory used/free/total (MiB): 966 / 15314 / 16280
------------------
     ethr =  8.71E-08,  avg # of iterations =  1.1

     negative rho (up, down):  1.726E-01 1.715E-01

     total cpu time spent up to now is      282.4 secs

     total energy              =    -894.79854094 Ry
     estimated scf accuracy    <       0.00329782 Ry

     total magnetization       =     3.62 Bohr mag/cell
     absolute magnetization    =     3.88 Bohr mag/cell
[tb_dev] Currently allocated     7.95E-01 Mbytes, locked:    0 /   8
[tb_pin] Currently allocated     0.00E+00 Mbytes, locked:    0 /   0

     iteration # 36     ecut=    45.00 Ry     beta= 0.20
     Davidson diagonalization with overlap

---- Real-time Memory Report at c_bands before calling an iterative solver
          1230 MiB given to the printing process from OS
          1026 MiB allocation reported by mallinfo(arena+hblkhd)
         52803 MiB available memory on the node where the printing process lives
     GPU memory used/free/total (MiB): 966 / 15314 / 16280
------------------
     ethr =  8.71E-08,  avg # of iterations =  1.5

     negative rho (up, down):  1.727E-01 1.715E-01

     total cpu time spent up to now is      287.6 secs

     total energy              =    -894.79820021 Ry
     estimated scf accuracy    <       0.00377160 Ry

     total magnetization       =     3.65 Bohr mag/cell
     absolute magnetization    =     3.90 Bohr mag/cell
[tb_dev] Currently allocated     7.95E-01 Mbytes, locked:    0 /   8
[tb_pin] Currently allocated     0.00E+00 Mbytes, locked:    0 /   0

     iteration # 37     ecut=    45.00 Ry     beta= 0.20
     Davidson diagonalization with overlap

---- Real-time Memory Report at c_bands before calling an iterative solver
          1230 MiB given to the printing process from OS
          1026 MiB allocation reported by mallinfo(arena+hblkhd)
         52803 MiB available memory on the node where the printing process lives
     GPU memory used/free/total (MiB): 966 / 15314 / 16280
------------------
     ethr =  8.71E-08,  avg # of iterations =  3.1

     negative rho (up, down):  1.721E-01 1.722E-01

     total cpu time spent up to now is      295.2 secs

     total energy              =    -894.78549822 Ry
     estimated scf accuracy    <       0.00595014 Ry

     total magnetization       =     3.72 Bohr mag/cell
     absolute magnetization    =     3.97 Bohr mag/cell
[tb_dev] Currently allocated     7.95E-01 Mbytes, locked:    0 /   8
[tb_pin] Currently allocated     0.00E+00 Mbytes, locked:    0 /   0

     iteration # 38     ecut=    45.00 Ry     beta= 0.20
     Davidson diagonalization with overlap

---- Real-time Memory Report at c_bands before calling an iterative solver
          1230 MiB given to the printing process from OS
          1026 MiB allocation reported by mallinfo(arena+hblkhd)
         52804 MiB available memory on the node where the printing process lives
     GPU memory used/free/total (MiB): 966 / 15314 / 16280
------------------
     ethr =  8.71E-08,  avg # of iterations =  5.9

     negative rho (up, down):  1.725E-01 1.717E-01

     total cpu time spent up to now is      307.7 secs

     total energy              =    -894.79087949 Ry
     estimated scf accuracy    <       0.00930445 Ry

     total magnetization       =     2.92 Bohr mag/cell
     absolute magnetization    =     3.22 Bohr mag/cell
[tb_dev] Currently allocated     7.95E-01 Mbytes, locked:    0 /   8
[tb_pin] Currently allocated     0.00E+00 Mbytes, locked:    0 /   0

     iteration # 39     ecut=    45.00 Ry     beta= 0.20
     Davidson diagonalization with overlap

---- Real-time Memory Report at c_bands before calling an iterative solver
          1230 MiB given to the printing process from OS
          1026 MiB allocation reported by mallinfo(arena+hblkhd)
         52805 MiB available memory on the node where the printing process lives
     GPU memory used/free/total (MiB): 966 / 15314 / 16280
------------------
     ethr =  8.71E-08,  avg # of iterations =  5.4

     negative rho (up, down):  1.724E-01 1.718E-01

     total cpu time spent up to now is      319.0 secs

     total energy              =    -894.79899153 Ry
     estimated scf accuracy    <       0.00093824 Ry

     total magnetization       =     3.45 Bohr mag/cell
     absolute magnetization    =     3.71 Bohr mag/cell
[tb_dev] Currently allocated     7.95E-01 Mbytes, locked:    0 /   8
[tb_pin] Currently allocated     0.00E+00 Mbytes, locked:    0 /   0

     iteration # 40     ecut=    45.00 Ry     beta= 0.20
     Davidson diagonalization with overlap

---- Real-time Memory Report at c_bands before calling an iterative solver
          1230 MiB given to the printing process from OS
          1026 MiB allocation reported by mallinfo(arena+hblkhd)
         52805 MiB available memory on the node where the printing process lives
     GPU memory used/free/total (MiB): 966 / 15314 / 16280
------------------
     ethr =  8.71E-08,  avg # of iterations =  2.7

     negative rho (up, down):  1.724E-01 1.718E-01

     total cpu time spent up to now is      325.8 secs

     total energy              =    -894.79907530 Ry
     estimated scf accuracy    <       0.00076640 Ry

     total magnetization       =     3.39 Bohr mag/cell
     absolute magnetization    =     3.65 Bohr mag/cell
[tb_dev] Currently allocated     7.95E-01 Mbytes, locked:    0 /   8
[tb_pin] Currently allocated     0.00E+00 Mbytes, locked:    0 /   0

     iteration # 41     ecut=    45.00 Ry     beta= 0.20
     Davidson diagonalization with overlap

---- Real-time Memory Report at c_bands before calling an iterative solver
          1230 MiB given to the printing process from OS
          1026 MiB allocation reported by mallinfo(arena+hblkhd)
         52806 MiB available memory on the node where the printing process lives
     GPU memory used/free/total (MiB): 966 / 15314 / 16280
------------------
     ethr =  8.71E-08,  avg # of iterations =  3.0

     negative rho (up, down):  1.723E-01 1.719E-01

     total cpu time spent up to now is      332.8 secs

     total energy              =    -894.79906782 Ry
     estimated scf accuracy    <       0.00078018 Ry

     total magnetization       =     3.33 Bohr mag/cell
     absolute magnetization    =     3.59 Bohr mag/cell
[tb_dev] Currently allocated     7.95E-01 Mbytes, locked:    0 /   8
[tb_pin] Currently allocated     0.00E+00 Mbytes, locked:    0 /   0

     iteration # 42     ecut=    45.00 Ry     beta= 0.20
     Davidson diagonalization with overlap

---- Real-time Memory Report at c_bands before calling an iterative solver
          1230 MiB given to the printing process from OS
          1026 MiB allocation reported by mallinfo(arena+hblkhd)
         52806 MiB available memory on the node where the printing process lives
     GPU memory used/free/total (MiB): 966 / 15314 / 16280
------------------
     ethr =  8.71E-08,  avg # of iterations =  3.7

     negative rho (up, down):  1.724E-01 1.719E-01

     total cpu time spent up to now is      341.4 secs

     total energy              =    -894.79918557 Ry
     estimated scf accuracy    <       0.00122575 Ry

     total magnetization       =     3.23 Bohr mag/cell
     absolute magnetization    =     3.50 Bohr mag/cell
[tb_dev] Currently allocated     7.95E-01 Mbytes, locked:    0 /   8
[tb_pin] Currently allocated     0.00E+00 Mbytes, locked:    0 /   0

     iteration # 43     ecut=    45.00 Ry     beta= 0.20
     Davidson diagonalization with overlap

---- Real-time Memory Report at c_bands before calling an iterative solver
          1230 MiB given to the printing process from OS
          1026 MiB allocation reported by mallinfo(arena+hblkhd)
         52806 MiB available memory on the node where the printing process lives
     GPU memory used/free/total (MiB): 966 / 15314 / 16280
------------------
     ethr =  8.71E-08,  avg # of iterations =  2.3

     negative rho (up, down):  1.724E-01 1.719E-01

     total cpu time spent up to now is      347.4 secs

     total energy              =    -894.79926491 Ry
     estimated scf accuracy    <       0.00099230 Ry

     total magnetization       =     3.28 Bohr mag/cell
     absolute magnetization    =     3.54 Bohr mag/cell
[tb_dev] Currently allocated     7.95E-01 Mbytes, locked:    0 /   8
[tb_pin] Currently allocated     0.00E+00 Mbytes, locked:    0 /   0

     iteration # 44     ecut=    45.00 Ry     beta= 0.20
     Davidson diagonalization with overlap

---- Real-time Memory Report at c_bands before calling an iterative solver
          1230 MiB given to the printing process from OS
          1026 MiB allocation reported by mallinfo(arena+hblkhd)
         52806 MiB available memory on the node where the printing process lives
     GPU memory used/free/total (MiB): 966 / 15314 / 16280
------------------
     ethr =  8.71E-08,  avg # of iterations =  1.6

     negative rho (up, down):  1.724E-01 1.719E-01
[...]
          1230 MiB given to the printing process from OS
          1026 MiB allocation reported by mallinfo(arena+hblkhd)
         52807 MiB available memory on the node where the printing process lives
     GPU memory used/free/total (MiB): 966 / 15314 / 16280
------------------
     ethr =  8.71E-08,  avg # of iterations =  3.3

     negative rho (up, down):  1.723E-01 1.720E-01

     total cpu time spent up to now is      520.3 secs

     total energy              =    -894.79361082 Ry
     estimated scf accuracy    <       0.00395275 Ry

     total magnetization       =     3.65 Bohr mag/cell
     absolute magnetization    =     3.91 Bohr mag/cell
[tb_dev] Currently allocated     7.95E-01 Mbytes, locked:    0 /   8
[tb_pin] Currently allocated     0.00E+00 Mbytes, locked:    0 /   0

     iteration # 66     ecut=    45.00 Ry     beta= 0.20
     Davidson diagonalization with overlap

---- Real-time Memory Report at c_bands before calling an iterative solver
          1230 MiB given to the printing process from OS
          1026 MiB allocation reported by mallinfo(arena+hblkhd)
         52807 MiB available memory on the node where the printing process lives
     GPU memory used/free/total (MiB): 966 / 15314 / 16280
------------------
     ethr =  8.71E-08,  avg # of iterations =  5.3

     negative rho (up, down):  1.721E-01 1.723E-01

     total cpu time spent up to now is      531.4 secs

     total energy              =    -894.79794720 Ry
     estimated scf accuracy    <       0.00261552 Ry

     total magnetization       =     3.13 Bohr mag/cell
     absolute magnetization    =     3.40 Bohr mag/cell
[tb_dev] Currently allocated     7.95E-01 Mbytes, locked:    0 /   8
[tb_pin] Currently allocated     0.00E+00 Mbytes, locked:    0 /   0

     iteration # 67     ecut=    45.00 Ry     beta= 0.20
     Davidson diagonalization with overlap

---- Real-time Memory Report at c_bands before calling an iterative solver
          1230 MiB given to the printing process from OS
          1026 MiB allocation reported by mallinfo(arena+hblkhd)
         52807 MiB available memory on the node where the printing process lives
     GPU memory used/free/total (MiB): 966 / 15314 / 16280
------------------
     ethr =  8.71E-08,  avg # of iterations =  4.8

     negative rho (up, down):  1.720E-01 1.723E-01

     total cpu time spent up to now is      541.7 secs

     total energy              =    -894.80092742 Ry
     estimated scf accuracy    <       0.01561046 Ry

     total magnetization       =     2.84 Bohr mag/cell
     absolute magnetization    =     3.15 Bohr mag/cell
[tb_dev] Currently allocated     7.95E-01 Mbytes, locked:    0 /   8
[tb_pin] Currently allocated     0.00E+00 Mbytes, locked:    0 /   0

     iteration # 68     ecut=    45.00 Ry     beta= 0.20
     Davidson diagonalization with overlap

---- Real-time Memory Report at c_bands before calling an iterative solver
          1230 MiB given to the printing process from OS
          1026 MiB allocation reported by mallinfo(arena+hblkhd)
         52807 MiB available memory on the node where the printing process lives
     GPU memory used/free/total (MiB): 966 / 15314 / 16280
------------------
     ethr =  8.71E-08,  avg # of iterations =  2.5

     negative rho (up, down):  1.719E-01 1.724E-01

     total cpu time spent up to now is      547.9 secs

     total energy              =    -894.80131181 Ry
     estimated scf accuracy    <       0.01905479 Ry

     total magnetization       =     2.80 Bohr mag/cell
     absolute magnetization    =     3.12 Bohr mag/cell
[tb_dev] Currently allocated     7.95E-01 Mbytes, locked:    0 /   8
[tb_pin] Currently allocated     0.00E+00 Mbytes, locked:    0 /   0

     iteration # 69     ecut=    45.00 Ry     beta= 0.20
     Davidson diagonalization with overlap

---- Real-time Memory Report at c_bands before calling an iterative solver
          1230 MiB given to the printing process from OS
          1026 MiB allocation reported by mallinfo(arena+hblkhd)
         52808 MiB available memory on the node where the printing process lives
     GPU memory used/free/total (MiB): 966 / 15314 / 16280
------------------
     ethr =  8.71E-08,  avg # of iterations =  4.2

     negative rho (up, down):  1.721E-01 1.722E-01

     total cpu time spent up to now is      557.3 secs

     total energy              =    -894.79895675 Ry
     estimated scf accuracy    <       0.03699599 Ry

     total magnetization       =     2.64 Bohr mag/cell
     absolute magnetization    =     3.01 Bohr mag/cell
[tb_dev] Currently allocated     7.95E-01 Mbytes, locked:    0 /   8
[tb_pin] Currently allocated     0.00E+00 Mbytes, locked:    0 /   0

     iteration # 70     ecut=    45.00 Ry     beta= 0.20
     Davidson diagonalization with overlap

---- Real-time Memory Report at c_bands before calling an iterative solver
          1230 MiB given to the printing process from OS
          1026 MiB allocation reported by mallinfo(arena+hblkhd)
         52808 MiB available memory on the node where the printing process lives
     GPU memory used/free/total (MiB): 966 / 15314 / 16280
------------------
     ethr =  8.71E-08,  avg # of iterations =  4.5

     negative rho (up, down):  1.721E-01 1.722E-01

     total cpu time spent up to now is      567.1 secs

     total energy              =    -894.80016766 Ry
     estimated scf accuracy    <       0.01436890 Ry

     total magnetization       =     2.86 Bohr mag/cell
     absolute magnetization    =     3.16 Bohr mag/cell
[tb_dev] Currently allocated     7.95E-01 Mbytes, locked:    0 /   8
[tb_pin] Currently allocated     0.00E+00 Mbytes, locked:    0 /   0

     iteration # 71     ecut=    45.00 Ry     beta= 0.20
     Davidson diagonalization with overlap

---- Real-time Memory Report at c_bands before calling an iterative solver
          1230 MiB given to the printing process from OS
          1026 MiB allocation reported by mallinfo(arena+hblkhd)
         52808 MiB available memory on the node where the printing process lives
     GPU memory used/free/total (MiB): 966 / 15314 / 16280
------------------
     ethr =  8.71E-08,  avg # of iterations =  3.2

     negative rho (up, down):  1.721E-01 1.722E-01

     total cpu time spent up to now is      574.6 secs

     total energy              =    -894.80032354 Ry
     estimated scf accuracy    <       0.01029478 Ry

     total magnetization       =     2.92 Bohr mag/cell
     absolute magnetization    =     3.22 Bohr mag/cell
[tb_dev] Currently allocated     7.95E-01 Mbytes, locked:    0 /   8
[tb_pin] Currently allocated     0.00E+00 Mbytes, locked:    0 /   0

     iteration # 72     ecut=    45.00 Ry     beta= 0.20
     Davidson diagonalization with overlap

---- Real-time Memory Report at c_bands before calling an iterative solver
          1230 MiB given to the printing process from OS
          1026 MiB allocation reported by mallinfo(arena+hblkhd)
         52807 MiB available memory on the node where the printing process lives
     GPU memory used/free/total (MiB): 966 / 15314 / 16280
------------------
     ethr =  8.71E-08,  avg # of iterations =  1.0

     negative rho (up, down):  1.721E-01 1.722E-01

     total cpu time spent up to now is      579.4 secs

     total energy              =    -894.80043752 Ry
     estimated scf accuracy    <       0.01050550 Ry

     total magnetization       =     2.92 Bohr mag/cell
     absolute magnetization    =     3.21 Bohr mag/cell
[tb_dev] Currently allocated     7.95E-01 Mbytes, locked:    0 /   8
[tb_pin] Currently allocated     0.00E+00 Mbytes, locked:    0 /   0

     iteration # 73     ecut=    45.00 Ry     beta= 0.20
     Davidson diagonalization with overlap

---- Real-time Memory Report at c_bands before calling an iterative solver
          1230 MiB given to the printing process from OS
          1026 MiB allocation reported by mallinfo(arena+hblkhd)
         52808 MiB available memory on the node where the printing process lives
     GPU memory used/free/total (MiB): 966 / 15314 / 16280
------------------
     ethr =  8.71E-08,  avg # of iterations =  2.0

     negative rho (up, down):  1.717E-01 1.728E-01

     total cpu time spent up to now is      585.1 secs

     total energy              =    -894.79363773 Ry
     estimated scf accuracy    <       0.01217710 Ry

     total magnetization       =     2.89 Bohr mag/cell
     absolute magnetization    =     3.19 Bohr mag/cell
[tb_dev] Currently allocated     7.95E-01 Mbytes, locked:    0 /   8
[tb_pin] Currently allocated     0.00E+00 Mbytes, locked:    0 /   0

     iteration # 74     ecut=    45.00 Ry     beta= 0.20
     Davidson diagonalization with overlap

---- Real-time Memory Report at c_bands before calling an iterative solver
          1230 MiB given to the printing process from OS
          1026 MiB allocation reported by mallinfo(arena+hblkhd)
         52808 MiB available memory on the node where the printing process lives
     GPU memory used/free/total (MiB): 966 / 15314 / 16280
------------------
     ethr =  8.71E-08,  avg # of iterations =  5.7

     negative rho (up, down):  1.725E-01 1.717E-01

     total cpu time spent up to now is      596.9 secs

     total energy              =    -894.75235329 Ry
     estimated scf accuracy    <       0.11339238 Ry

     total magnetization       =     2.21 Bohr mag/cell
     absolute magnetization    =     3.12 Bohr mag/cell
[tb_dev] Currently allocated     7.95E-01 Mbytes, locked:    0 /   8
[tb_pin] Currently allocated     0.00E+00 Mbytes, locked:    0 /   0

     iteration # 75     ecut=    45.00 Ry     beta= 0.20
     Davidson diagonalization with overlap

---- Real-time Memory Report at c_bands before calling an iterative solver
          1230 MiB given to the printing process from OS
          1026 MiB allocation reported by mallinfo(arena+hblkhd)
         52808 MiB available memory on the node where the printing process lives
     GPU memory used/free/total (MiB): 966 / 15314 / 16280
------------------
     ethr =  8.71E-08,  avg # of iterations =  6.4

     negative rho (up, down):  1.725E-01 1.716E-01

     total cpu time spent up to now is      609.8 secs

     total energy              =    -894.79860235 Ry
     estimated scf accuracy    <       0.00109214 Ry

     total magnetization       =     3.43 Bohr mag/cell
     absolute magnetization    =     3.69 Bohr mag/cell
[tb_dev] Currently allocated     7.95E-01 Mbytes, locked:    0 /   8
[tb_pin] Currently allocated     0.00E+00 Mbytes, locked:    0 /   0

     iteration # 76     ecut=    45.00 Ry     beta= 0.20
     Davidson diagonalization with overlap

---- Real-time Memory Report at c_bands before calling an iterative solver
          1230 MiB given to the printing process from OS
          1026 MiB allocation reported by mallinfo(arena+hblkhd)
         52808 MiB available memory on the node where the printing process lives
     GPU memory used/free/total (MiB): 966 / 15314 / 16280
------------------
     ethr =  8.71E-08,  avg # of iterations =  3.8

     negative rho (up, down):  1.728E-01 1.713E-01

     total cpu time spent up to now is      618.7 secs

     total energy              =    -894.79549481 Ry
     estimated scf accuracy    <       0.00219266 Ry

     total magnetization       =     3.53 Bohr mag/cell
     absolute magnetization    =     3.79 Bohr mag/cell
[tb_dev] Currently allocated     7.95E-01 Mbytes, locked:    0 /   8
[tb_pin] Currently allocated     0.00E+00 Mbytes, locked:    0 /   0

     iteration # 77     ecut=    45.00 Ry     beta= 0.20
     Davidson diagonalization with overlap

---- Real-time Memory Report at c_bands before calling an iterative solver
          1230 MiB given to the printing process from OS
          1026 MiB allocation reported by mallinfo(arena+hblkhd)
         52808 MiB available memory on the node where the printing process lives
     GPU memory used/free/total (MiB): 966 / 15314 / 16280
------------------
     ethr =  8.71E-08,  avg # of iterations =  4.9

     negative rho (up, down):  1.725E-01 1.717E-01

     total cpu time spent up to now is      629.1 secs

     total energy              =    -894.79513750 Ry
     estimated scf accuracy    <       0.01469955 Ry

     total magnetization       =     3.87 Bohr mag/cell
     absolute magnetization    =     4.12 Bohr mag/cell
[tb_dev] Currently allocated     7.95E-01 Mbytes, locked:    0 /   8
[tb_pin] Currently allocated     0.00E+00 Mbytes, locked:    0 /   0

     iteration # 78     ecut=    45.00 Ry     beta= 0.20
     Davidson diagonalization with overlap

---- Real-time Memory Report at c_bands before calling an iterative solver
          1230 MiB given to the printing process from OS
          1026 MiB allocation reported by mallinfo(arena+hblkhd)
         52808 MiB available memory on the node where the printing process lives
     GPU memory used/free/total (MiB): 966 / 15314 / 16280
------------------
     ethr =  8.71E-08,  avg # of iterations =  5.1

     negative rho (up, down):  1.724E-01 1.718E-01

     total cpu time spent up to now is      639.6 secs

     total energy              =    -894.79906997 Ry
     estimated scf accuracy    <       0.00148686 Ry

     total magnetization       =     3.41 Bohr mag/cell
     absolute magnetization    =     3.67 Bohr mag/cell
[tb_dev] Currently allocated     7.95E-01 Mbytes, locked:    0 /   8
[tb_pin] Currently allocated     0.00E+00 Mbytes, locked:    0 /   0

     iteration # 79     ecut=    45.00 Ry     beta= 0.20
     Davidson diagonalization with overlap

---- Real-time Memory Report at c_bands before calling an iterative solver
          1230 MiB given to the printing process from OS
          1026 MiB allocation reported by mallinfo(arena+hblkhd)
         52808 MiB available memory on the node where the printing process lives
     GPU memory used/free/total (MiB): 966 / 15314 / 16280
------------------
     ethr =  8.71E-08,  avg # of iterations =  2.1

     negative rho (up, down):  1.724E-01 1.718E-01

     total cpu time spent up to now is      645.5 secs

     total energy              =    -894.79907763 Ry
     estimated scf accuracy    <       0.00135168 Ry

     total magnetization       =     3.37 Bohr mag/cell
     absolute magnetization    =     3.63 Bohr mag/cell
[tb_dev] Currently allocated     7.95E-01 Mbytes, locked:    0 /   8
[tb_pin] Currently allocated     0.00E+00 Mbytes, locked:    0 /   0

     iteration # 80     ecut=    45.00 Ry     beta= 0.20
     Davidson diagonalization with overlap

---- Real-time Memory Report at c_bands before calling an iterative solver
          1230 MiB given to the printing process from OS
          1026 MiB allocation reported by mallinfo(arena+hblkhd)
         52808 MiB available memory on the node where the printing process lives
     GPU memory used/free/total (MiB): 966 / 15314 / 16280
------------------
     ethr =  8.71E-08,  avg # of iterations =  1.0

     negative rho (up, down):  1.725E-01 1.717E-01

     total cpu time spent up to now is      650.3 secs

     total energy              =    -894.79889002 Ry
     estimated scf accuracy    <       0.00131125 Ry

     total magnetization       =     3.39 Bohr mag/cell
     absolute magnetization    =     3.65 Bohr mag/cell

     End of self-consistent calculation

     convergence NOT achieved after  80 iterations: stopping

     Writing config to output data dir ./out/aiida.save/
 
     init_run     :     10.55s CPU      2.94s WALL (       1 calls)
     electrons    :    715.82s CPU    646.48s WALL (       1 calls)

     Called by init_run:
     wfcinit      :      0.66s CPU      0.66s WALL (       1 calls)
                                        0.66s GPU  (       1 calls)
     potinit      :      0.27s CPU      0.09s WALL (       1 calls)
     hinit0       :      7.42s CPU      1.65s WALL (       1 calls)

     Called by electrons:
     c_bands      :    624.70s CPU    580.15s WALL (      80 calls)
     sum_band     :     50.75s CPU     62.42s WALL (      80 calls)
     v_of_rho     :      6.71s CPU      0.61s WALL (      81 calls)
     v_h          :      1.01s CPU      0.09s WALL (      81 calls)
     v_xc         :      5.69s CPU      0.52s WALL (      81 calls)
     newd         :     20.69s CPU      2.21s WALL (      81 calls)
                                        2.20s GPU  (      81 calls)
     mix_rho      :      8.17s CPU      0.81s WALL (      80 calls)

     Called by c_bands:
     init_us_2    :     46.31s CPU     48.04s WALL (   47040 calls)
     init_us_2:gp :     45.48s CPU     47.25s WALL (   47040 calls)
     cegterg      :    561.29s CPU    517.74s WALL (   23520 calls)

     Called by sum_band:
     sum_band:wei :      0.89s CPU      0.90s WALL (      80 calls)
                                        0.90s GPU  (      80 calls)
     sum_band:loo :     47.46s CPU     58.87s WALL (      80 calls)
                                       58.87s GPU  (      80 calls)
     sum_band:buf :      7.01s CPU      8.62s WALL (   23520 calls)
                                        8.48s GPU  (   23520 calls)
     sum_band:ini :     18.28s CPU     23.45s WALL (   23520 calls)
                                       23.32s GPU  (   23520 calls)
     sum_band:cal :      0.69s CPU      1.67s WALL (   23520 calls)
                                        1.53s GPU  (   23520 calls)
     sum_band:bec :      3.75s CPU      4.78s WALL (   23520 calls)
                                        4.63s GPU  (   23520 calls)
     addusdens    :      1.97s CPU      2.21s WALL (      80 calls)
                                        2.21s GPU  (      80 calls)
     addusd:skk   :      0.01s CPU      0.01s WALL (     240 calls)
                                        0.01s GPU  (     240 calls)

     Called by *egterg:
     cdiaghg      :    327.12s CPU    308.99s WALL (  103296 calls)
                                      308.31s GPU  (  103296 calls)
     cegterg:over :     11.33s CPU     10.04s WALL (   80070 calls)
     cegterg:upda :     30.34s CPU     27.42s WALL (   80070 calls)
     cegterg:last :      7.03s CPU      6.27s WALL (   53455 calls)
     h_psi        :    138.87s CPU    125.90s WALL (  103590 calls)
                                      125.35s GPU  (  103590 calls)
     s_psi        :     10.09s CPU     13.39s WALL (  103590 calls)
                                       12.63s GPU  (  103590 calls)
     g_psi        :      0.67s CPU      1.72s WALL (   80070 calls)
                                        1.21s GPU  (   80070 calls)

     Called by h_psi:
     h_psi:calbec :      3.91s CPU      7.89s WALL (  103590 calls)
                                        7.27s GPU  (  103590 calls)
     vloc_psi     :    106.45s CPU     97.39s WALL (  103590 calls)
                                       96.79s GPU  (  103590 calls)
     add_vuspsi   :     12.60s CPU     14.27s WALL (  103590 calls)
                                       13.67s GPU  (  103590 calls)

     General routines
     calbec       :      3.48s CPU      3.25s WALL (  127110 calls)
     fft          :      3.64s CPU      0.38s WALL (    2023 calls)
                                        0.23s GPU  (    1861 calls)
     ffts         :      1.08s CPU      0.11s WALL (     322 calls)
                                        0.01s GPU  (     160 calls)
     fftw         :     10.73s CPU     50.32s WALL (  498714 calls)
                                       47.59s GPU  (  498714 calls)
     interpolate  :      3.23s CPU      0.29s WALL (     162 calls)
     davcio       :      1.18s CPU      0.51s WALL (     606 calls)
 
     Parallel routines
 
     PWSCF        :  12m10.55s CPU  10m50.68s WALL

 
   This run was terminated on:  17:50:59  23Oct2023            

=------------------------------------------------------------------------------=
   JOB DONE.
=------------------------------------------------------------------------------=
