
     Program PWSCF v.7.2 starts on 22Oct2023 at 17:14:29 

     This program is part of the open-source Quantum ESPRESSO suite
     for quantum simulation of materials; please cite
         "P. Giannozzi et al., J. Phys.:Condens. Matter 21 395502 (2009);
         "P. Giannozzi et al., J. Phys.:Condens. Matter 29 465901 (2017);
         "P. Giannozzi et al., J. Chem. Phys. 152 154105 (2020);
          URL http://www.quantum-espresso.org", 
     in publications or presentations arising from this work. More details at
     http://www.quantum-espresso.org/quote

     Parallel version (MPI & OpenMP), running on      12 processor cores
     Number of MPI processes:                 1
     Threads/MPI process:                    12

     MPI processes distributed on     1 nodes
     59508 MiB available memory on the printing compute node when the environment starts
 
     Reading input from aiida.in

     Current dimensions of program PWSCF are:
     Max number of different atomic species (ntypx) = 10
     Max number of k-points (npk) =  40000
     Max angular momentum in pseudopotentials (lmaxx) =  4
     Message from routine setup:
     using ibrav=0 with symmetry is DISCOURAGED, use correct ibrav instead
 
     Subspace diagonalization in iterative solution of the eigenvalue problem:
     a serial algorithm will be used

 
     G-vector sticks info
     --------------------
     sticks:   dense  smooth     PW     G-vecs:    dense   smooth      PW
     Sum        5215    2597    853               136037    48083    9091
 
     Using Slab Decomposition
 


     bravais-lattice index     =            0
     lattice parameter (alat)  =      16.4075  a.u.
     unit-cell volume          =    1406.8082 (a.u.)^3
     number of atoms/cell      =            7
     number of atomic types    =            3
     number of electrons       =        60.00
     number of Kohn-Sham states=           36
     kinetic-energy cutoff     =      40.0000  Ry
     charge density cutoff     =     320.0000  Ry
     scf convergence threshold =      1.4E-09
     mixing beta               =       0.4000
     number of iterations used =            8  plain     mixing
     Exchange-correlation= PBESOL
                           (   1   4  10   8   0   0   0)

     GPU acceleration is ACTIVE.


     GPU used by master process:

        Device Number: 0
        Device name: Tesla P100-PCIE-16GB
        Compute capability : 60
        Ratio of single to double precision performance  : 2
        Memory Clock Rate (KHz): 715000
        Memory Bus Width (bits): 4096
        Peak Memory Bandwidth (GB/s): 732.16

     celldm(1)=  16.407505  celldm(2)=   0.000000  celldm(3)=   0.000000
     celldm(4)=   0.000000  celldm(5)=   0.000000  celldm(6)=   0.000000

     crystal axes: (cart. coord. in units of alat)
               a(1) = (  -0.296114   0.296114   0.908093 )  
               a(2) = (   0.296114  -0.296114   0.908093 )  
               a(3) = (   0.296114   0.296114  -0.908093 )  

     reciprocal axes: (cart. coord. in units 2 pi/alat)
               b(1) = ( -0.000000  1.688541  0.550604 )  
               b(2) = (  1.688541 -0.000000  0.550604 )  
               b(3) = (  1.688541  1.688541 -0.000000 )  


     PseudoPot. # 1 for Cl read from file:
     ./pseudo/cl_pbesol_v1.4.uspp.F.UPF
     MD5 check sum: ed6bbcf06f19043c0df9f6394706ff8f
     Pseudo is Ultrasoft + core correction, Zval =  7.0
     Generated by new atomic code, or converted to UPF format
     Using radial grid of  909 points,  6 beta functions with: 
                l(1) =   0
                l(2) =   0
                l(3) =   1
                l(4) =   1
                l(5) =   2
                l(6) =   2
     Q(r) pseudized with  8 coefficients,  rinner =    1.300   1.300   1.300
                                                       1.300   1.300

     PseudoPot. # 2 for Cr read from file:
     ./pseudo/cr_pbesol_v1.5.uspp.F.UPF
     MD5 check sum: a621641e0be27168676a837af8893d0f
     Pseudo is Ultrasoft + core correction, Zval = 14.0
     Generated by new atomic code, or converted to UPF format
     Using radial grid of  857 points,  6 beta functions with: 
                l(1) =   0
                l(2) =   0
                l(3) =   1
                l(4) =   1
                l(5) =   2
                l(6) =   2
     Q(r) pseudized with  8 coefficients,  rinner =    0.950   0.950   0.950
                                                       0.950   0.950

     PseudoPot. # 3 for Rb read from file:
     ./pseudo/Rb_ONCV_PBEsol-1.0.upf
     MD5 check sum: 84df3c5f64297d00eda9a2a6a50301db
     Pseudo is Norm-conserving, Zval =  9.0
     Generated using ONCVPSP code by D. R. Hamann
     Using radial grid of 2280 points,  6 beta functions with: 
                l(1) =   0
                l(2) =   0
                l(3) =   1
                l(4) =   1
                l(5) =   2
                l(6) =   2

     atomic species   valence    mass     pseudopotential
        Cl             7.00    35.45300     Cl( 1.00)
        Cr            14.00    51.99610     Cr( 1.00)
        Rb             9.00    85.46780     Rb( 1.00)

     Starting magnetic structure 
     atomic species   magnetization
        Cl           0.100
        Cr           0.357
        Rb           0.100

     16 Sym. Ops., with inversion, found


                                    s                        frac. trans.

      isym =  1     identity                                     

 cryst.   s( 1) = (     1          0          0      )
                  (     0          1          0      )
                  (     0          0          1      )

 cart.    s( 1) = (  1.0000000 -0.0000000 -0.0000000 )
                  ( -0.0000000  1.0000000  0.0000000 )
                  ( -0.0000000  0.0000000  1.0000000 )


      isym =  2     180 deg rotation - cart. axis [0,0,1]        

 cryst.   s( 2) = (     0          1          0      )
                  (     1          0          0      )
                  (    -1         -1         -1      )

 cart.    s( 2) = ( -1.0000000  0.0000000 -0.0000000 )
                  (  0.0000000 -1.0000000  0.0000000 )
                  ( -0.0000000 -0.0000000  1.0000000 )


      isym =  3     180 deg rotation - cart. axis [0,1,0]        

 cryst.   s( 3) = (     0          0          1      )
                  (    -1         -1         -1      )
                  (     1          0          0      )

 cart.    s( 3) = ( -1.0000000 -0.0000000  0.0000000 )
                  (  0.0000000  1.0000000 -0.0000000 )
                  ( -0.0000000  0.0000000 -1.0000000 )


      isym =  4     180 deg rotation - cart. axis [1,0,0]        

 cryst.   s( 4) = (    -1         -1         -1      )
                  (     0          0          1      )
                  (     0          1          0      )

 cart.    s( 4) = (  1.0000000  0.0000000  0.0000000 )
                  ( -0.0000000 -1.0000000 -0.0000000 )
                  (  0.0000000 -0.0000000 -1.0000000 )


      isym =  5     180 deg rotation - cart. axis [1,1,0]        

 cryst.   s( 5) = (    -1          0          0      )
                  (     0         -1          0      )
                  (     1          1          1      )

 cart.    s( 5) = ( -0.0000000  1.0000000  0.0000000 )
                  (  1.0000000 -0.0000000 -0.0000000 )
                  (  0.0000000  0.0000000 -1.0000000 )


      isym =  6     180 deg rotation - cart. axis [1,-1,0]       

 cryst.   s( 6) = (     0         -1          0      )
                  (    -1          0          0      )
                  (     0          0         -1      )

 cart.    s( 6) = (  0.0000000 -1.0000000  0.0000000 )
                  ( -1.0000000  0.0000000 -0.0000000 )
                  ( -0.0000000  0.0000000 -1.0000000 )


      isym =  7      90 deg rotation - cart. axis [0,0,-1]       

 cryst.   s( 7) = (     1          1          1      )
                  (     0          0         -1      )
                  (    -1          0          0      )

 cart.    s( 7) = (  0.0000000  1.0000000 -0.0000000 )
                  ( -1.0000000 -0.0000000  0.0000000 )
                  ( -0.0000000  0.0000000  1.0000000 )


      isym =  8      90 deg rotation - cart. axis [0,0,1]        

 cryst.   s( 8) = (     0          0         -1      )
                  (     1          1          1      )
                  (     0         -1          0      )

 cart.    s( 8) = ( -0.0000000 -1.0000000 -0.0000000 )
                  (  1.0000000  0.0000000  0.0000000 )
                  (  0.0000000 -0.0000000  1.0000000 )


      isym =  9     inversion                                    

 cryst.   s( 9) = (    -1          0          0      )
                  (     0         -1          0      )
                  (     0          0         -1      )

 cart.    s( 9) = ( -1.0000000  0.0000000  0.0000000 )
                  (  0.0000000 -1.0000000 -0.0000000 )
                  (  0.0000000 -0.0000000 -1.0000000 )


      isym = 10     inv. 180 deg rotation - cart. axis [0,0,1]   

 cryst.   s(10) = (     0         -1          0      )
                  (    -1          0          0      )
                  (     1          1          1      )

 cart.    s(10) = (  1.0000000 -0.0000000  0.0000000 )
                  ( -0.0000000  1.0000000 -0.0000000 )
                  (  0.0000000  0.0000000 -1.0000000 )


      isym = 11     inv. 180 deg rotation - cart. axis [0,1,0]   

 cryst.   s(11) = (     0          0         -1      )
                  (     1          1          1      )
                  (    -1          0          0      )

 cart.    s(11) = (  1.0000000  0.0000000 -0.0000000 )
                  ( -0.0000000 -1.0000000  0.0000000 )
                  (  0.0000000 -0.0000000  1.0000000 )


      isym = 12     inv. 180 deg rotation - cart. axis [1,0,0]   

 cryst.   s(12) = (     1          1          1      )
                  (     0          0         -1      )
                  (     0         -1          0      )

 cart.    s(12) = ( -1.0000000 -0.0000000 -0.0000000 )
                  (  0.0000000  1.0000000  0.0000000 )
                  ( -0.0000000  0.0000000  1.0000000 )


      isym = 13     inv. 180 deg rotation - cart. axis [1,1,0]   

 cryst.   s(13) = (     1          0          0      )
                  (     0          1          0      )
                  (    -1         -1         -1      )

 cart.    s(13) = (  0.0000000 -1.0000000 -0.0000000 )
                  ( -1.0000000  0.0000000  0.0000000 )
                  ( -0.0000000 -0.0000000  1.0000000 )


      isym = 14     inv. 180 deg rotation - cart. axis [1,-1,0]  

 cryst.   s(14) = (     0          1          0      )
                  (     1          0          0      )
                  (     0          0          1      )

 cart.    s(14) = ( -0.0000000  1.0000000 -0.0000000 )
                  (  1.0000000 -0.0000000  0.0000000 )
                  (  0.0000000 -0.0000000  1.0000000 )


      isym = 15     inv.  90 deg rotation - cart. axis [0,0,-1]  

 cryst.   s(15) = (    -1         -1         -1      )
                  (     0          0          1      )
                  (     1          0          0      )

 cart.    s(15) = ( -0.0000000 -1.0000000  0.0000000 )
                  (  1.0000000  0.0000000 -0.0000000 )
                  (  0.0000000 -0.0000000 -1.0000000 )


      isym = 16     inv.  90 deg rotation - cart. axis [0,0,1]   

 cryst.   s(16) = (     0          0          1      )
                  (    -1         -1         -1      )
                  (     0          1          0      )

 cart.    s(16) = (  0.0000000  1.0000000  0.0000000 )
                  ( -1.0000000 -0.0000000 -0.0000000 )
                  ( -0.0000000  0.0000000 -1.0000000 )


   Cartesian axes

     site n.     atom                  positions (alat units)
         1           Rb  tau(   1) = (   0.2961136   0.2961136   0.2506338  )
         2           Rb  tau(   2) = (   0.0000000  -0.0000000   0.6574595  )
         3           Cr  tau(   3) = (   0.0000000   0.0000000   0.0000000  )
         4           Cl  tau(   4) = (   0.0000000   0.2961136   0.6276741  )
         5           Cl  tau(   5) = (   0.2961136   0.0000000   0.6276741  )
         6           Cl  tau(   6) = (   0.2961136   0.0000000   0.2804192  )
         7           Cl  tau(   7) = (   0.0000000   0.2961136   0.2804192  )

   Crystallographic axes

     site n.     atom                  positions (cryst. coord.)
         1           Rb  tau(   1) = (  0.6380000  0.6380000  1.0000000  )
         2           Rb  tau(   2) = (  0.3620000  0.3620000 -0.0000000  )
         3           Cr  tau(   3) = (  0.0000000  0.0000000  0.0000000  )
         4           Cl  tau(   4) = (  0.8456000  0.3456000  0.5000000  )
         5           Cl  tau(   5) = (  0.3456000  0.8456000  0.5000000  )
         6           Cl  tau(   6) = (  0.1544000  0.6544000  0.5000000  )
         7           Cl  tau(   7) = (  0.6544000  0.1544000  0.5000000  )

     number of k points=   163  Marzari-Vanderbilt smearing, width (Ry)=  0.0100
                       cart. coord. in units 2pi/alat
        k(    1) = (   0.0000000   0.0000000   0.0000000), wk =   0.0005787
        k(    2) = (   0.1407118   0.1407118  -0.0000000), wk =   0.0023148
        k(    3) = (   0.2814235   0.2814235  -0.0000000), wk =   0.0023148
        k(    4) = (   0.4221353   0.4221353  -0.0000000), wk =   0.0023148
        k(    5) = (   0.5628470   0.5628470  -0.0000000), wk =   0.0023148
        k(    6) = (   0.7035588   0.7035588  -0.0000000), wk =   0.0023148
        k(    7) = (  -0.8442705  -0.8442705   0.0000000), wk =   0.0011574
        k(    8) = (   0.1407118  -0.0000000   0.0458837), wk =   0.0046296
        k(    9) = (   0.2814235   0.1407118   0.0458837), wk =   0.0092593
        k(   10) = (   0.4221353   0.2814235   0.0458837), wk =   0.0092593
        k(   11) = (   0.5628470   0.4221353   0.0458837), wk =   0.0092593
        k(   12) = (   0.7035588   0.5628470   0.0458837), wk =   0.0092593
        k(   13) = (   0.8442705   0.7035588   0.0458837), wk =   0.0092593
        k(   14) = (   0.2814235  -0.0000000   0.0917674), wk =   0.0046296
        k(   15) = (   0.4221353   0.1407118   0.0917674), wk =   0.0092593
        k(   16) = (   0.5628470   0.2814235   0.0917674), wk =   0.0092593
        k(   17) = (   0.7035588   0.4221353   0.0917674), wk =   0.0092593
        k(   18) = (   0.8442705   0.5628470   0.0917674), wk =   0.0092593
        k(   19) = (   0.9849823   0.7035588   0.0917674), wk =   0.0046296
        k(   20) = (   0.1407118  -0.1407118   0.0917674), wk =   0.0046296
        k(   21) = (   0.4221353  -0.0000000   0.1376511), wk =   0.0046296
        k(   22) = (   0.5628470   0.1407118   0.1376511), wk =   0.0092593
        k(   23) = (   0.7035588   0.2814235   0.1376511), wk =   0.0092593
        k(   24) = (   0.8442705   0.4221353   0.1376511), wk =   0.0092593
        k(   25) = (   0.9849823   0.5628470   0.1376511), wk =   0.0092593
        k(   26) = (   0.1407118  -0.2814235   0.1376511), wk =   0.0092593
        k(   27) = (   0.5628470  -0.0000000   0.1835347), wk =   0.0046296
        k(   28) = (   0.7035588   0.1407118   0.1835347), wk =   0.0092593
        k(   29) = (   0.8442705   0.2814235   0.1835347), wk =   0.0092593
        k(   30) = (   0.9849823   0.4221353   0.1835347), wk =   0.0092593
        k(   31) = (   1.1256940   0.5628470   0.1835347), wk =   0.0046296
        k(   32) = (   0.1407118  -0.4221353   0.1835347), wk =   0.0092593
        k(   33) = (   0.2814235  -0.2814235   0.1835347), wk =   0.0046296
        k(   34) = (   0.7035588  -0.0000000   0.2294184), wk =   0.0046296
        k(   35) = (   0.8442705   0.1407118   0.2294184), wk =   0.0092593
        k(   36) = (   0.9849823   0.2814235   0.2294184), wk =   0.0092593
        k(   37) = (   1.1256940   0.4221353   0.2294184), wk =   0.0092593
        k(   38) = (   0.1407118  -0.5628470   0.2294184), wk =   0.0092593
        k(   39) = (   0.2814235  -0.4221353   0.2294184), wk =   0.0092593
        k(   40) = (  -0.8442705   0.0000000  -0.2753021), wk =   0.0023148
        k(   41) = (  -0.7035588   0.1407118  -0.2753021), wk =   0.0092593
        k(   42) = (  -0.5628470   0.2814235  -0.2753021), wk =   0.0092593
        k(   43) = (  -0.4221353   0.4221353  -0.2753021), wk =   0.0046296
        k(   44) = (   0.2814235   0.2814235   0.0917674), wk =   0.0046296
        k(   45) = (   0.4221353   0.4221353   0.0917674), wk =   0.0046296
        k(   46) = (   0.5628470   0.5628470   0.0917674), wk =   0.0046296
        k(   47) = (   0.7035588   0.7035588   0.0917674), wk =   0.0046296
        k(   48) = (   0.8442705   0.8442705   0.0917674), wk =   0.0023148
        k(   49) = (  -0.0000000  -0.0000000   0.0917674), wk =   0.0011574
        k(   50) = (   0.4221353   0.2814235   0.1376511), wk =   0.0092593
        k(   51) = (   0.5628470   0.4221353   0.1376511), wk =   0.0092593
        k(   52) = (   0.7035588   0.5628470   0.1376511), wk =   0.0092593
        k(   53) = (   0.8442705   0.7035588   0.1376511), wk =   0.0092593
        k(   54) = (   0.0000000  -0.1407118   0.1376511), wk =   0.0046296
        k(   55) = (   0.5628470   0.2814235   0.1835347), wk =   0.0092593
        k(   56) = (   0.7035588   0.4221353   0.1835347), wk =   0.0092593
        k(   57) = (   0.8442705   0.5628470   0.1835347), wk =   0.0092593
        k(   58) = (   0.9849823   0.7035588   0.1835347), wk =   0.0046296
        k(   59) = (   0.0000000  -0.2814235   0.1835347), wk =   0.0046296
        k(   60) = (   0.1407118  -0.1407118   0.1835347), wk =   0.0046296
        k(   61) = (   0.7035588   0.2814235   0.2294184), wk =   0.0092593
        k(   62) = (   0.8442705   0.4221353   0.2294184), wk =   0.0092593
        k(   63) = (   0.9849823   0.5628470   0.2294184), wk =   0.0092593
        k(   64) = (  -0.0000000  -0.4221353   0.2294184), wk =   0.0046296
        k(   65) = (   0.1407118  -0.2814235   0.2294184), wk =   0.0092593
        k(   66) = (   0.8442705   0.2814235   0.2753021), wk =   0.0046296
        k(   67) = (   0.9849823   0.4221353   0.2753021), wk =   0.0092593
        k(   68) = (   1.1256940   0.5628470   0.2753021), wk =   0.0046296
        k(   69) = (   0.0000000  -0.5628470   0.2753021), wk =   0.0046296
        k(   70) = (   0.1407118  -0.4221353   0.2753021), wk =   0.0092593
        k(   71) = (   0.2814235  -0.2814235   0.2753021), wk =   0.0046296
        k(   72) = (  -0.5628470   0.4221353  -0.2294184), wk =   0.0092593
        k(   73) = (  -1.6885410  -0.7035588  -0.2294184), wk =   0.0046296
        k(   74) = (  -1.5478293  -0.5628470  -0.2294184), wk =   0.0092593
        k(   75) = (  -1.4071175  -0.4221353  -0.2294184), wk =   0.0092593
        k(   76) = (  -0.4221353   0.4221353  -0.1835347), wk =   0.0046296
        k(   77) = (   0.0000000   0.8442705  -0.1835347), wk =   0.0046296
        k(   78) = (  -1.5478293  -0.7035588  -0.1835347), wk =   0.0092593
        k(   79) = (  -1.4071175  -0.5628470  -0.1835347), wk =   0.0092593
        k(   80) = (  -1.2664058  -0.4221353  -0.1835347), wk =   0.0046296
        k(   81) = (  -0.0000000   0.7035588  -0.1376511), wk =   0.0046296
        k(   82) = (   0.1407118   0.8442705  -0.1376511), wk =   0.0092593
        k(   83) = (  -1.4071175  -0.7035588  -0.1376511), wk =   0.0092593
        k(   84) = (  -1.2664058  -0.5628470  -0.1376511), wk =   0.0092593
        k(   85) = (   0.0000000   0.5628470  -0.0917674), wk =   0.0046296
        k(   86) = (   0.1407118   0.7035588  -0.0917674), wk =   0.0092593
        k(   87) = (   0.2814235   0.8442705  -0.0917674), wk =   0.0092593
        k(   88) = (  -1.2664058  -0.7035588  -0.0917674), wk =   0.0092593
        k(   89) = (  -1.1256940  -0.5628470  -0.0917674), wk =   0.0046296
        k(   90) = (   0.0000000   0.4221353  -0.0458837), wk =   0.0046296
        k(   91) = (   0.1407118   0.5628470  -0.0458837), wk =   0.0092593
        k(   92) = (   0.2814235   0.7035588  -0.0458837), wk =   0.0092593
        k(   93) = (   0.4221353   0.8442705  -0.0458837), wk =   0.0092593
        k(   94) = (  -1.1256940  -0.7035588  -0.0458837), wk =   0.0092593
        k(   95) = (  -0.0000000   0.2814235  -0.0000000), wk =   0.0023148
        k(   96) = (   0.1407118   0.4221353  -0.0000000), wk =   0.0046296
        k(   97) = (   0.2814235   0.5628470  -0.0000000), wk =   0.0046296
        k(   98) = (   0.4221353   0.7035588  -0.0000000), wk =   0.0046296
        k(   99) = (   0.5628470   0.8442705  -0.0000000), wk =   0.0046296
        k(  100) = (  -0.9849823  -0.7035588  -0.0000000), wk =   0.0023148
        k(  101) = (   0.5628470   0.5628470   0.1835347), wk =   0.0046296
        k(  102) = (   0.7035588   0.7035588   0.1835347), wk =   0.0046296
        k(  103) = (   0.8442705   0.8442705   0.1835347), wk =   0.0023148
        k(  104) = (   0.0000000   0.0000000   0.1835347), wk =   0.0011574
        k(  105) = (   0.7035588   0.5628470   0.2294184), wk =   0.0092593
        k(  106) = (   0.8442705   0.7035588   0.2294184), wk =   0.0092593
        k(  107) = (   0.0000000  -0.1407118   0.2294184), wk =   0.0046296
        k(  108) = (   0.8442705   0.5628470   0.2753021), wk =   0.0046296
        k(  109) = (   0.9849823   0.7035588   0.2753021), wk =   0.0046296
        k(  110) = (  -0.0000000  -0.2814235   0.2753021), wk =   0.0046296
        k(  111) = (   0.1407118  -0.1407118   0.2753021), wk =   0.0046296
        k(  112) = (   0.0000000  -0.4221353   0.3211858), wk =   0.0046296
        k(  113) = (   0.1407118  -0.2814235   0.3211858), wk =   0.0092593
        k(  114) = (  -1.6885410  -0.5628470  -0.1835347), wk =   0.0046296
        k(  115) = (  -1.5478293  -0.4221353  -0.1835347), wk =   0.0092593
        k(  116) = (  -1.4071175  -0.2814235  -0.1835347), wk =   0.0046296
        k(  117) = (   0.0000000   0.9849823  -0.1376511), wk =   0.0046296
        k(  118) = (  -1.5478293  -0.5628470  -0.1376511), wk =   0.0092593
        k(  119) = (  -1.4071175  -0.4221353  -0.1376511), wk =   0.0092593
        k(  120) = (  -0.0000000   0.8442705  -0.0917674), wk =   0.0046296
        k(  121) = (   0.1407118   0.9849823  -0.0917674), wk =   0.0092593
        k(  122) = (  -1.4071175  -0.5628470  -0.0917674), wk =   0.0092593
        k(  123) = (  -1.2664058  -0.4221353  -0.0917674), wk =   0.0046296
        k(  124) = (   0.0000000   0.7035588  -0.0458837), wk =   0.0046296
        k(  125) = (   0.1407118   0.8442705  -0.0458837), wk =   0.0092593
        k(  126) = (   0.2814235   0.9849823  -0.0458837), wk =   0.0092593
        k(  127) = (  -1.2664058  -0.5628470  -0.0458837), wk =   0.0092593
        k(  128) = (   0.0000000   0.5628470   0.0000000), wk =   0.0023148
        k(  129) = (   0.1407118   0.7035588   0.0000000), wk =   0.0046296
        k(  130) = (   0.2814235   0.8442705   0.0000000), wk =   0.0046296
        k(  131) = (   0.4221353   0.9849823   0.0000000), wk =   0.0046296
        k(  132) = (  -1.1256940  -0.5628470   0.0000000), wk =   0.0023148
        k(  133) = (   0.8442705   0.8442705   0.2753021), wk =   0.0011574
        k(  134) = (   0.0000000   0.0000000   0.2753021), wk =   0.0011574
        k(  135) = (  -0.0000000  -0.1407118   0.3211858), wk =   0.0046296
        k(  136) = (   0.0000000  -0.2814235   0.3670695), wk =   0.0046296
        k(  137) = (   0.1407118  -0.1407118   0.3670695), wk =   0.0046296
        k(  138) = (  -1.6885410  -0.4221353  -0.1376511), wk =   0.0046296
        k(  139) = (  -1.5478293  -0.2814235  -0.1376511), wk =   0.0092593
        k(  140) = (   0.0000000   1.1256940  -0.0917674), wk =   0.0046296
        k(  141) = (  -1.5478293  -0.4221353  -0.0917674), wk =   0.0092593
        k(  142) = (  -1.4071175  -0.2814235  -0.0917674), wk =   0.0046296
        k(  143) = (  -0.0000000   0.9849823  -0.0458837), wk =   0.0046296
        k(  144) = (   0.1407118   1.1256940  -0.0458837), wk =   0.0092593
        k(  145) = (  -1.4071175  -0.4221353  -0.0458837), wk =   0.0092593
        k(  146) = (   0.0000000   0.8442705  -0.0000000), wk =   0.0023148
        k(  147) = (   0.1407118   0.9849823  -0.0000000), wk =   0.0046296
        k(  148) = (   0.2814235   1.1256940  -0.0000000), wk =   0.0046296
        k(  149) = (  -1.2664058  -0.4221353   0.0000000), wk =   0.0023148
        k(  150) = (  -0.0000000  -0.0000000   0.3670695), wk =   0.0011574
        k(  151) = (   0.0000000  -0.1407118   0.4129532), wk =   0.0046296
        k(  152) = (  -1.6885410  -0.2814235  -0.0917674), wk =   0.0046296
        k(  153) = (  -1.5478293  -0.1407118  -0.0917674), wk =   0.0046296
        k(  154) = (   0.0000000   1.2664058  -0.0458837), wk =   0.0046296
        k(  155) = (  -1.5478293  -0.2814235  -0.0458837), wk =   0.0092593
        k(  156) = (  -0.0000000   1.1256940  -0.0000000), wk =   0.0023148
        k(  157) = (   0.1407118   1.2664058  -0.0000000), wk =   0.0046296
        k(  158) = (  -1.4071175  -0.2814235  -0.0000000), wk =   0.0023148
        k(  159) = (   0.0000000   0.0000000   0.4588368), wk =   0.0011574
        k(  160) = (  -1.6885410  -0.1407118  -0.0458837), wk =   0.0046296
        k(  161) = (   0.0000000   1.4071175   0.0000000), wk =   0.0023148
        k(  162) = (  -1.5478293  -0.1407118   0.0000000), wk =   0.0023148
        k(  163) = (  -1.6885410  -1.6885410  -0.5506042), wk =   0.0005787

                       cryst. coord.
        k(    1) = (   0.0000000   0.0000000   0.0000000), wk =   0.0005787
        k(    2) = (   0.0000000  -0.0000000   0.0833333), wk =   0.0023148
        k(    3) = (   0.0000000  -0.0000000   0.1666667), wk =   0.0023148
        k(    4) = (  -0.0000000   0.0000000   0.2500000), wk =   0.0023148
        k(    5) = (   0.0000000  -0.0000000   0.3333333), wk =   0.0023148
        k(    6) = (  -0.0000000   0.0000000   0.4166667), wk =   0.0023148
        k(    7) = (   0.0000000  -0.0000000  -0.5000000), wk =   0.0011574
        k(    8) = (  -0.0000000   0.0833333   0.0000000), wk =   0.0046296
        k(    9) = (  -0.0000000   0.0833333   0.0833333), wk =   0.0092593
        k(   10) = (  -0.0000000   0.0833333   0.1666667), wk =   0.0092593
        k(   11) = (   0.0000000   0.0833333   0.2500000), wk =   0.0092593
        k(   12) = (   0.0000000   0.0833333   0.3333333), wk =   0.0092593
        k(   13) = (  -0.0000000   0.0833333   0.4166667), wk =   0.0092593
        k(   14) = (  -0.0000000   0.1666667   0.0000000), wk =   0.0046296
        k(   15) = (  -0.0000000   0.1666667   0.0833333), wk =   0.0092593
        k(   16) = (  -0.0000000   0.1666667   0.1666667), wk =   0.0092593
        k(   17) = (   0.0000000   0.1666667   0.2500000), wk =   0.0092593
        k(   18) = (  -0.0000000   0.1666667   0.3333333), wk =   0.0092593
        k(   19) = (   0.0000000   0.1666667   0.4166667), wk =   0.0046296
        k(   20) = (  -0.0000000   0.1666667  -0.0833333), wk =   0.0046296
        k(   21) = (  -0.0000000   0.2500000   0.0000000), wk =   0.0046296
        k(   22) = (  -0.0000000   0.2500000   0.0833333), wk =   0.0092593
        k(   23) = (  -0.0000000   0.2500000   0.1666667), wk =   0.0092593
        k(   24) = (  -0.0000000   0.2500000   0.2500000), wk =   0.0092593
        k(   25) = (  -0.0000000   0.2500000   0.3333333), wk =   0.0092593
        k(   26) = (  -0.0000000   0.2500000  -0.1666667), wk =   0.0092593
        k(   27) = (  -0.0000000   0.3333333   0.0000000), wk =   0.0046296
        k(   28) = (  -0.0000000   0.3333333   0.0833333), wk =   0.0092593
        k(   29) = (  -0.0000000   0.3333333   0.1666667), wk =   0.0092593
        k(   30) = (  -0.0000000   0.3333333   0.2500000), wk =   0.0092593
        k(   31) = (  -0.0000000   0.3333333   0.3333333), wk =   0.0046296
        k(   32) = (  -0.0000000   0.3333333  -0.2500000), wk =   0.0092593
        k(   33) = (  -0.0000000   0.3333333  -0.1666667), wk =   0.0046296
        k(   34) = (  -0.0000000   0.4166667   0.0000000), wk =   0.0046296
        k(   35) = (  -0.0000000   0.4166667   0.0833333), wk =   0.0092593
        k(   36) = (   0.0000000   0.4166667   0.1666667), wk =   0.0092593
        k(   37) = (  -0.0000000   0.4166667   0.2500000), wk =   0.0092593
        k(   38) = (   0.0000000   0.4166667  -0.3333333), wk =   0.0092593
        k(   39) = (  -0.0000000   0.4166667  -0.2500000), wk =   0.0092593
        k(   40) = (   0.0000000  -0.5000000  -0.0000000), wk =   0.0023148
        k(   41) = (   0.0000000  -0.5000000   0.0833333), wk =   0.0092593
        k(   42) = (   0.0000000  -0.5000000   0.1666667), wk =   0.0092593
        k(   43) = (   0.0000000  -0.5000000   0.2500000), wk =   0.0046296
        k(   44) = (   0.0833333   0.0833333   0.0833333), wk =   0.0046296
        k(   45) = (   0.0833333   0.0833333   0.1666667), wk =   0.0046296
        k(   46) = (   0.0833333   0.0833333   0.2500000), wk =   0.0046296
        k(   47) = (   0.0833333   0.0833333   0.3333333), wk =   0.0046296
        k(   48) = (   0.0833333   0.0833333   0.4166667), wk =   0.0023148
        k(   49) = (   0.0833333   0.0833333  -0.0833333), wk =   0.0011574
        k(   50) = (   0.0833333   0.1666667   0.0833333), wk =   0.0092593
        k(   51) = (   0.0833333   0.1666667   0.1666667), wk =   0.0092593
        k(   52) = (   0.0833333   0.1666667   0.2500000), wk =   0.0092593
        k(   53) = (   0.0833333   0.1666667   0.3333333), wk =   0.0092593
        k(   54) = (   0.0833333   0.1666667  -0.1666667), wk =   0.0046296
        k(   55) = (   0.0833333   0.2500000   0.0833333), wk =   0.0092593
        k(   56) = (   0.0833333   0.2500000   0.1666667), wk =   0.0092593
        k(   57) = (   0.0833333   0.2500000   0.2500000), wk =   0.0092593
        k(   58) = (   0.0833333   0.2500000   0.3333333), wk =   0.0046296
        k(   59) = (   0.0833333   0.2500000  -0.2500000), wk =   0.0046296
        k(   60) = (   0.0833333   0.2500000  -0.1666667), wk =   0.0046296
        k(   61) = (   0.0833333   0.3333333   0.0833333), wk =   0.0092593
        k(   62) = (   0.0833333   0.3333333   0.1666667), wk =   0.0092593
        k(   63) = (   0.0833333   0.3333333   0.2500000), wk =   0.0092593
        k(   64) = (   0.0833333   0.3333333  -0.3333333), wk =   0.0046296
        k(   65) = (   0.0833333   0.3333333  -0.2500000), wk =   0.0092593
        k(   66) = (   0.0833333   0.4166667   0.0833333), wk =   0.0046296
        k(   67) = (   0.0833333   0.4166667   0.1666667), wk =   0.0092593
        k(   68) = (   0.0833333   0.4166667   0.2500000), wk =   0.0046296
        k(   69) = (   0.0833333   0.4166667  -0.4166667), wk =   0.0046296
        k(   70) = (   0.0833333   0.4166667  -0.3333333), wk =   0.0092593
        k(   71) = (   0.0833333   0.4166667  -0.2500000), wk =   0.0046296
        k(   72) = (   0.0833333  -0.5000000   0.1666667), wk =   0.0092593
        k(   73) = (   0.0833333  -0.5000000  -0.5000000), wk =   0.0046296
        k(   74) = (   0.0833333  -0.5000000  -0.4166667), wk =   0.0092593
        k(   75) = (   0.0833333  -0.5000000  -0.3333333), wk =   0.0092593
        k(   76) = (   0.0833333  -0.4166667   0.1666667), wk =   0.0046296
        k(   77) = (   0.0833333  -0.4166667   0.4166667), wk =   0.0046296
        k(   78) = (   0.0833333  -0.4166667  -0.5000000), wk =   0.0092593
        k(   79) = (   0.0833333  -0.4166667  -0.4166667), wk =   0.0092593
        k(   80) = (   0.0833333  -0.4166667  -0.3333333), wk =   0.0046296
        k(   81) = (   0.0833333  -0.3333333   0.3333333), wk =   0.0046296
        k(   82) = (   0.0833333  -0.3333333   0.4166667), wk =   0.0092593
        k(   83) = (   0.0833333  -0.3333333  -0.5000000), wk =   0.0092593
        k(   84) = (   0.0833333  -0.3333333  -0.4166667), wk =   0.0092593
        k(   85) = (   0.0833333  -0.2500000   0.2500000), wk =   0.0046296
        k(   86) = (   0.0833333  -0.2500000   0.3333333), wk =   0.0092593
        k(   87) = (   0.0833333  -0.2500000   0.4166667), wk =   0.0092593
        k(   88) = (   0.0833333  -0.2500000  -0.5000000), wk =   0.0092593
        k(   89) = (   0.0833333  -0.2500000  -0.4166667), wk =   0.0046296
        k(   90) = (   0.0833333  -0.1666667   0.1666667), wk =   0.0046296
        k(   91) = (   0.0833333  -0.1666667   0.2500000), wk =   0.0092593
        k(   92) = (   0.0833333  -0.1666667   0.3333333), wk =   0.0092593
        k(   93) = (   0.0833333  -0.1666667   0.4166667), wk =   0.0092593
        k(   94) = (   0.0833333  -0.1666667  -0.5000000), wk =   0.0092593
        k(   95) = (   0.0833333  -0.0833333   0.0833333), wk =   0.0023148
        k(   96) = (   0.0833333  -0.0833333   0.1666667), wk =   0.0046296
        k(   97) = (   0.0833333  -0.0833333   0.2500000), wk =   0.0046296
        k(   98) = (   0.0833333  -0.0833333   0.3333333), wk =   0.0046296
        k(   99) = (   0.0833333  -0.0833333   0.4166667), wk =   0.0046296
        k(  100) = (   0.0833333  -0.0833333  -0.5000000), wk =   0.0023148
        k(  101) = (   0.1666667   0.1666667   0.1666667), wk =   0.0046296
        k(  102) = (   0.1666667   0.1666667   0.2500000), wk =   0.0046296
        k(  103) = (   0.1666667   0.1666667   0.3333333), wk =   0.0023148
        k(  104) = (   0.1666667   0.1666667  -0.1666667), wk =   0.0011574
        k(  105) = (   0.1666667   0.2500000   0.1666667), wk =   0.0092593
        k(  106) = (   0.1666667   0.2500000   0.2500000), wk =   0.0092593
        k(  107) = (   0.1666667   0.2500000  -0.2500000), wk =   0.0046296
        k(  108) = (   0.1666667   0.3333333   0.1666667), wk =   0.0046296
        k(  109) = (   0.1666667   0.3333333   0.2500000), wk =   0.0046296
        k(  110) = (   0.1666667   0.3333333  -0.3333333), wk =   0.0046296
        k(  111) = (   0.1666667   0.3333333  -0.2500000), wk =   0.0046296
        k(  112) = (   0.1666667   0.4166667  -0.4166667), wk =   0.0046296
        k(  113) = (   0.1666667   0.4166667  -0.3333333), wk =   0.0092593
        k(  114) = (   0.1666667  -0.5000000  -0.5000000), wk =   0.0046296
        k(  115) = (   0.1666667  -0.5000000  -0.4166667), wk =   0.0092593
        k(  116) = (   0.1666667  -0.5000000  -0.3333333), wk =   0.0046296
        k(  117) = (   0.1666667  -0.4166667   0.4166667), wk =   0.0046296
        k(  118) = (   0.1666667  -0.4166667  -0.5000000), wk =   0.0092593
        k(  119) = (   0.1666667  -0.4166667  -0.4166667), wk =   0.0092593
        k(  120) = (   0.1666667  -0.3333333   0.3333333), wk =   0.0046296
        k(  121) = (   0.1666667  -0.3333333   0.4166667), wk =   0.0092593
        k(  122) = (   0.1666667  -0.3333333  -0.5000000), wk =   0.0092593
        k(  123) = (   0.1666667  -0.3333333  -0.4166667), wk =   0.0046296
        k(  124) = (   0.1666667  -0.2500000   0.2500000), wk =   0.0046296
        k(  125) = (   0.1666667  -0.2500000   0.3333333), wk =   0.0092593
        k(  126) = (   0.1666667  -0.2500000   0.4166667), wk =   0.0092593
        k(  127) = (   0.1666667  -0.2500000  -0.5000000), wk =   0.0092593
        k(  128) = (   0.1666667  -0.1666667   0.1666667), wk =   0.0023148
        k(  129) = (   0.1666667  -0.1666667   0.2500000), wk =   0.0046296
        k(  130) = (   0.1666667  -0.1666667   0.3333333), wk =   0.0046296
        k(  131) = (   0.1666667  -0.1666667   0.4166667), wk =   0.0046296
        k(  132) = (   0.1666667  -0.1666667  -0.5000000), wk =   0.0023148
        k(  133) = (   0.2500000   0.2500000   0.2500000), wk =   0.0011574
        k(  134) = (   0.2500000   0.2500000  -0.2500000), wk =   0.0011574
        k(  135) = (   0.2500000   0.3333333  -0.3333333), wk =   0.0046296
        k(  136) = (   0.2500000   0.4166667  -0.4166667), wk =   0.0046296
        k(  137) = (   0.2500000   0.4166667  -0.3333333), wk =   0.0046296
        k(  138) = (   0.2500000  -0.5000000  -0.5000000), wk =   0.0046296
        k(  139) = (   0.2500000  -0.5000000  -0.4166667), wk =   0.0092593
        k(  140) = (   0.2500000  -0.4166667   0.4166667), wk =   0.0046296
        k(  141) = (   0.2500000  -0.4166667  -0.5000000), wk =   0.0092593
        k(  142) = (   0.2500000  -0.4166667  -0.4166667), wk =   0.0046296
        k(  143) = (   0.2500000  -0.3333333   0.3333333), wk =   0.0046296
        k(  144) = (   0.2500000  -0.3333333   0.4166667), wk =   0.0092593
        k(  145) = (   0.2500000  -0.3333333  -0.5000000), wk =   0.0092593
        k(  146) = (   0.2500000  -0.2500000   0.2500000), wk =   0.0023148
        k(  147) = (   0.2500000  -0.2500000   0.3333333), wk =   0.0046296
        k(  148) = (   0.2500000  -0.2500000   0.4166667), wk =   0.0046296
        k(  149) = (   0.2500000  -0.2500000  -0.5000000), wk =   0.0023148
        k(  150) = (   0.3333333   0.3333333  -0.3333333), wk =   0.0011574
        k(  151) = (   0.3333333   0.4166667  -0.4166667), wk =   0.0046296
        k(  152) = (   0.3333333  -0.5000000  -0.5000000), wk =   0.0046296
        k(  153) = (   0.3333333  -0.5000000  -0.4166667), wk =   0.0046296
        k(  154) = (   0.3333333  -0.4166667   0.4166667), wk =   0.0046296
        k(  155) = (   0.3333333  -0.4166667  -0.5000000), wk =   0.0092593
        k(  156) = (   0.3333333  -0.3333333   0.3333333), wk =   0.0023148
        k(  157) = (   0.3333333  -0.3333333   0.4166667), wk =   0.0046296
        k(  158) = (   0.3333333  -0.3333333  -0.5000000), wk =   0.0023148
        k(  159) = (   0.4166667   0.4166667  -0.4166667), wk =   0.0011574
        k(  160) = (   0.4166667  -0.5000000  -0.5000000), wk =   0.0046296
        k(  161) = (   0.4166667  -0.4166667   0.4166667), wk =   0.0023148
        k(  162) = (   0.4166667  -0.4166667  -0.5000000), wk =   0.0023148
        k(  163) = (  -0.5000000  -0.5000000  -0.5000000), wk =   0.0005787

     Dense  grid:   136037 G-vectors     FFT dimensions: (  96,  96,  96)

     Smooth grid:    48083 G-vectors     FFT dimensions: (  72,  72,  72)

     Dynamical RAM for                 wfc:       3.30 MB

     Dynamical RAM for     wfc (w. buffer):    1079.56 MB

     Dynamical RAM for           str. fact:       6.23 MB

     Dynamical RAM for           local pot:       0.00 MB

     Dynamical RAM for          nlocal pot:      11.55 MB

     Dynamical RAM for                qrad:       4.31 MB

     Dynamical RAM for          rho,v,vnew:      52.95 MB

     Dynamical RAM for               rhoin:      17.65 MB

     Dynamical RAM for            rho*nmix:      66.42 MB

     Dynamical RAM for           G-vectors:       8.15 MB

     Dynamical RAM for          h,s,v(r/c):       0.24 MB

     Dynamical RAM for          <psi|beta>:       0.07 MB

     Dynamical RAM for                 psi:       6.60 MB

     Dynamical RAM for                hpsi:       6.60 MB

     Dynamical RAM for                spsi:       6.60 MB

     Dynamical RAM for      wfcinit/wfcrot:       6.63 MB

     Dynamical RAM for           addusdens:     396.47 MB

     Dynamical RAM for          addusforce:     408.96 MB

     Dynamical RAM for         addusstress:     420.34 MB

     Estimated static dynamical RAM per process >       1.20 GB

     Estimated max dynamical RAM per process >       1.68 GB

     Check: negative core charge=   -0.000001
     Generating pointlists ...
     new r_m :   0.1228 (alat units)  2.0142 (a.u.) for type    1
     new r_m :   0.1682 (alat units)  2.7602 (a.u.) for type    2
     new r_m :   0.1228 (alat units)  2.0142 (a.u.) for type    3

     Initial potential from superposition of free atoms

     starting charge      58.9520, renormalised to      60.0000

     negative rho (up, down):  3.450E-02 2.804E-02
     Starting wfcs are   36 randomized atomic wfcs

     total cpu time spent up to now is        9.9 secs

     per-process dynamical memory:  1893.1 Mb

     Self-consistent Calculation
[tb_dev] Currently allocated     2.53E+00 Mbytes, locked:    0 /  10
[tb_pin] Currently allocated     0.00E+00 Mbytes, locked:    0 /   0

     iteration #  1     ecut=    40.00 Ry     beta= 0.40
     Davidson diagonalization with overlap

---- Real-time Memory Report at c_bands before calling an iterative solver
          2055 MiB given to the printing process from OS
          1867 MiB allocation reported by mallinfo(arena+hblkhd)
         56979 MiB available memory on the node where the printing process lives
     GPU memory used/free/total (MiB): 1352 / 14928 / 16280
------------------
     ethr =  1.00E-02,  avg # of iterations =  5.6

     negative rho (up, down):  3.315E-02 3.018E-02

     total cpu time spent up to now is       29.2 secs

     total energy              =    -405.74002554 Ry
     estimated scf accuracy    <       0.78384433 Ry

     total magnetization       =     6.09 Bohr mag/cell
     absolute magnetization    =     6.16 Bohr mag/cell
[tb_dev] Currently allocated     2.53E+00 Mbytes, locked:    0 /   8
[tb_pin] Currently allocated     0.00E+00 Mbytes, locked:    0 /   0

     iteration #  2     ecut=    40.00 Ry     beta= 0.40
     Davidson diagonalization with overlap

---- Real-time Memory Report at c_bands before calling an iterative solver
          2125 MiB given to the printing process from OS
          1911 MiB allocation reported by mallinfo(arena+hblkhd)
         56951 MiB available memory on the node where the printing process lives
     GPU memory used/free/total (MiB): 2392 / 13888 / 16280
------------------
     ethr =  1.31E-03,  avg # of iterations =  4.7

     negative rho (up, down):  3.295E-02 3.081E-02

     total cpu time spent up to now is       49.1 secs

     total energy              =    -405.72287710 Ry
     estimated scf accuracy    <       2.45201261 Ry

     total magnetization       =     3.79 Bohr mag/cell
     absolute magnetization    =     3.87 Bohr mag/cell
[tb_dev] Currently allocated     2.53E+00 Mbytes, locked:    0 /   8
[tb_pin] Currently allocated     0.00E+00 Mbytes, locked:    0 /   0

     iteration #  3     ecut=    40.00 Ry     beta= 0.40
     Davidson diagonalization with overlap

---- Real-time Memory Report at c_bands before calling an iterative solver
          2128 MiB given to the printing process from OS
          1914 MiB allocation reported by mallinfo(arena+hblkhd)
         56951 MiB available memory on the node where the printing process lives
     GPU memory used/free/total (MiB): 2392 / 13888 / 16280
------------------
     ethr =  1.31E-03,  avg # of iterations =  3.6
     Minimization algorithm failed to find Fermi energy: reverting to bisection
     Possible cause: smearing is larger than the electronic band-gap.

     negative rho (up, down):  3.186E-02 3.287E-02

     total cpu time spent up to now is       65.7 secs

     total energy              =    -406.02242517 Ry
     estimated scf accuracy    <       0.15769360 Ry

     total magnetization       =     6.02 Bohr mag/cell
     absolute magnetization    =     6.06 Bohr mag/cell
[tb_dev] Currently allocated     2.53E+00 Mbytes, locked:    0 /   8
[tb_pin] Currently allocated     0.00E+00 Mbytes, locked:    0 /   0

     iteration #  4     ecut=    40.00 Ry     beta= 0.40
     Davidson diagonalization with overlap

---- Real-time Memory Report at c_bands before calling an iterative solver
          2131 MiB given to the printing process from OS
          1917 MiB allocation reported by mallinfo(arena+hblkhd)
         56947 MiB available memory on the node where the printing process lives
     GPU memory used/free/total (MiB): 2392 / 13888 / 16280
------------------
     ethr =  2.63E-04,  avg # of iterations =  2.5

     negative rho (up, down):  3.151E-02 3.340E-02

     total cpu time spent up to now is       80.0 secs

     total energy              =    -406.03041486 Ry
     estimated scf accuracy    <       0.14425852 Ry

     total magnetization       =     4.39 Bohr mag/cell
     absolute magnetization    =     4.59 Bohr mag/cell
[tb_dev] Currently allocated     2.53E+00 Mbytes, locked:    0 /   8
[tb_pin] Currently allocated     0.00E+00 Mbytes, locked:    0 /   0

     iteration #  5     ecut=    40.00 Ry     beta= 0.40
     Davidson diagonalization with overlap

---- Real-time Memory Report at c_bands before calling an iterative solver
          2134 MiB given to the printing process from OS
          1920 MiB allocation reported by mallinfo(arena+hblkhd)
         56946 MiB available memory on the node where the printing process lives
     GPU memory used/free/total (MiB): 2392 / 13888 / 16280
------------------
     ethr =  2.40E-04,  avg # of iterations =  1.4

     negative rho (up, down):  3.064E-02 3.468E-02

     total cpu time spent up to now is       92.9 secs

     total energy              =    -406.03798393 Ry
     estimated scf accuracy    <       0.05253110 Ry

     total magnetization       =     5.81 Bohr mag/cell
     absolute magnetization    =     5.86 Bohr mag/cell
[tb_dev] Currently allocated     2.53E+00 Mbytes, locked:    0 /   8
[tb_pin] Currently allocated     0.00E+00 Mbytes, locked:    0 /   0

     iteration #  6     ecut=    40.00 Ry     beta= 0.40
     Davidson diagonalization with overlap

---- Real-time Memory Report at c_bands before calling an iterative solver
          2137 MiB given to the printing process from OS
          1923 MiB allocation reported by mallinfo(arena+hblkhd)
         56942 MiB available memory on the node where the printing process lives
     GPU memory used/free/total (MiB): 2392 / 13888 / 16280
------------------
     ethr =  8.76E-05,  avg # of iterations =  1.6

     negative rho (up, down):  3.046E-02 3.486E-02

     total cpu time spent up to now is      105.8 secs

     total energy              =    -406.03108141 Ry
     estimated scf accuracy    <       0.21111309 Ry

     total magnetization       =     4.13 Bohr mag/cell
     absolute magnetization    =     4.46 Bohr mag/cell
[tb_dev] Currently allocated     2.53E+00 Mbytes, locked:    0 /   8
[tb_pin] Currently allocated     0.00E+00 Mbytes, locked:    0 /   0

     iteration #  7     ecut=    40.00 Ry     beta= 0.40
     Davidson diagonalization with overlap

---- Real-time Memory Report at c_bands before calling an iterative solver
          2140 MiB given to the printing process from OS
          1926 MiB allocation reported by mallinfo(arena+hblkhd)
         56941 MiB available memory on the node where the printing process lives
     GPU memory used/free/total (MiB): 2392 / 13888 / 16280
------------------
     ethr =  8.76E-05,  avg # of iterations =  1.4

     negative rho (up, down):  3.036E-02 3.501E-02

     total cpu time spent up to now is      118.5 secs

     total energy              =    -406.04557828 Ry
     estimated scf accuracy    <       0.09934416 Ry

     total magnetization       =     5.71 Bohr mag/cell
     absolute magnetization    =     5.75 Bohr mag/cell
[tb_dev] Currently allocated     2.53E+00 Mbytes, locked:    0 /   8
[tb_pin] Currently allocated     0.00E+00 Mbytes, locked:    0 /   0

     iteration #  8     ecut=    40.00 Ry     beta= 0.40
     Davidson diagonalization with overlap

---- Real-time Memory Report at c_bands before calling an iterative solver
          2143 MiB given to the printing process from OS
          1929 MiB allocation reported by mallinfo(arena+hblkhd)
         56937 MiB available memory on the node where the printing process lives
     GPU memory used/free/total (MiB): 2392 / 13888 / 16280
------------------
     ethr =  8.76E-05,  avg # of iterations =  1.1

     negative rho (up, down):  3.031E-02 3.505E-02

     total cpu time spent up to now is      131.2 secs

     total energy              =    -406.04467686 Ry
     estimated scf accuracy    <       0.03391031 Ry

     total magnetization       =     5.42 Bohr mag/cell
     absolute magnetization    =     5.52 Bohr mag/cell
[tb_dev] Currently allocated     2.53E+00 Mbytes, locked:    0 /   8
[tb_pin] Currently allocated     0.00E+00 Mbytes, locked:    0 /   0

     iteration #  9     ecut=    40.00 Ry     beta= 0.40
     Davidson diagonalization with overlap

---- Real-time Memory Report at c_bands before calling an iterative solver
          2146 MiB given to the printing process from OS
          1932 MiB allocation reported by mallinfo(arena+hblkhd)
         56936 MiB available memory on the node where the printing process lives
     GPU memory used/free/total (MiB): 2392 / 13888 / 16280
------------------
     ethr =  5.65E-05,  avg # of iterations =  1.2

     negative rho (up, down):  3.028E-02 3.503E-02

     total cpu time spent up to now is      143.7 secs

     total energy              =    -406.04556383 Ry
     estimated scf accuracy    <       0.00011663 Ry

     total magnetization       =     5.03 Bohr mag/cell
     absolute magnetization    =     5.20 Bohr mag/cell
[tb_dev] Currently allocated     2.53E+00 Mbytes, locked:    0 /   8
[tb_pin] Currently allocated     0.00E+00 Mbytes, locked:    0 /   0

     iteration # 10     ecut=    40.00 Ry     beta= 0.40
     Davidson diagonalization with overlap

---- Real-time Memory Report at c_bands before calling an iterative solver
          2149 MiB given to the printing process from OS
          1934 MiB allocation reported by mallinfo(arena+hblkhd)
         56934 MiB available memory on the node where the printing process lives
     GPU memory used/free/total (MiB): 2392 / 13888 / 16280
------------------
     ethr =  1.94E-07,  avg # of iterations =  4.5

     negative rho (up, down):  3.022E-02 3.508E-02

     total cpu time spent up to now is      161.5 secs

     total energy              =    -406.04563098 Ry
     estimated scf accuracy    <       0.00029678 Ry

     total magnetization       =     5.04 Bohr mag/cell
     absolute magnetization    =     5.21 Bohr mag/cell
[tb_dev] Currently allocated     2.53E+00 Mbytes, locked:    0 /   8
[tb_pin] Currently allocated     0.00E+00 Mbytes, locked:    0 /   0

     iteration # 11     ecut=    40.00 Ry     beta= 0.40
     Davidson diagonalization with overlap

---- Real-time Memory Report at c_bands before calling an iterative solver
          2149 MiB given to the printing process from OS
          1934 MiB allocation reported by mallinfo(arena+hblkhd)
         56932 MiB available memory on the node where the printing process lives
     GPU memory used/free/total (MiB): 2392 / 13888 / 16280
------------------
     ethr =  1.94E-07,  avg # of iterations =  1.5

     negative rho (up, down):  3.020E-02 3.510E-02

     total cpu time spent up to now is      174.8 secs

     total energy              =    -406.04563207 Ry
     estimated scf accuracy    <       0.00081326 Ry

     total magnetization       =     5.01 Bohr mag/cell
     absolute magnetization    =     5.19 Bohr mag/cell
[tb_dev] Currently allocated     2.53E+00 Mbytes, locked:    0 /   8
[tb_pin] Currently allocated     0.00E+00 Mbytes, locked:    0 /   0

     iteration # 12     ecut=    40.00 Ry     beta= 0.40
     Davidson diagonalization with overlap

---- Real-time Memory Report at c_bands before calling an iterative solver
          2149 MiB given to the printing process from OS
          1934 MiB allocation reported by mallinfo(arena+hblkhd)
         56932 MiB available memory on the node where the printing process lives
     GPU memory used/free/total (MiB): 2392 / 13888 / 16280
------------------
     ethr =  1.94E-07,  avg # of iterations =  1.0

     negative rho (up, down):  3.018E-02 3.511E-02

     total cpu time spent up to now is      187.3 secs

     total energy              =    -406.04567415 Ry
     estimated scf accuracy    <       0.00003139 Ry

     total magnetization       =     4.92 Bohr mag/cell
     absolute magnetization    =     5.12 Bohr mag/cell
[tb_dev] Currently allocated     2.53E+00 Mbytes, locked:    0 /   8
[tb_pin] Currently allocated     0.00E+00 Mbytes, locked:    0 /   0

     iteration # 13     ecut=    40.00 Ry     beta= 0.40
     Davidson diagonalization with overlap

---- Real-time Memory Report at c_bands before calling an iterative solver
          2150 MiB given to the printing process from OS
          1934 MiB allocation reported by mallinfo(arena+hblkhd)
         56931 MiB available memory on the node where the printing process lives
     GPU memory used/free/total (MiB): 2392 / 13888 / 16280
------------------
     ethr =  5.23E-08,  avg # of iterations =  1.6

     negative rho (up, down):  3.023E-02 3.507E-02

     total cpu time spent up to now is      200.5 secs

     total energy              =    -406.04559300 Ry
     estimated scf accuracy    <       0.00048307 Ry

     total magnetization       =     4.93 Bohr mag/cell
     absolute magnetization    =     5.14 Bohr mag/cell
[tb_dev] Currently allocated     2.53E+00 Mbytes, locked:    0 /   8
[tb_pin] Currently allocated     0.00E+00 Mbytes, locked:    0 /   0

     iteration # 14     ecut=    40.00 Ry     beta= 0.40
     Davidson diagonalization with overlap

---- Real-time Memory Report at c_bands before calling an iterative solver
          2150 MiB given to the printing process from OS
          1934 MiB allocation reported by mallinfo(arena+hblkhd)
         56932 MiB available memory on the node where the printing process lives
     GPU memory used/free/total (MiB): 2392 / 13888 / 16280
------------------
     ethr =  5.23E-08,  avg # of iterations =  2.0

     negative rho (up, down):  3.034E-02 3.496E-02

     total cpu time spent up to now is      215.6 secs

     total energy              =    -406.04522766 Ry
     estimated scf accuracy    <       0.00084355 Ry

     total magnetization       =     5.03 Bohr mag/cell
     absolute magnetization    =     5.21 Bohr mag/cell
[tb_dev] Currently allocated     2.53E+00 Mbytes, locked:    0 /   8
[tb_pin] Currently allocated     0.00E+00 Mbytes, locked:    0 /   0

     iteration # 15     ecut=    40.00 Ry     beta= 0.40
     Davidson diagonalization with overlap

---- Real-time Memory Report at c_bands before calling an iterative solver
          2150 MiB given to the printing process from OS
          1934 MiB allocation reported by mallinfo(arena+hblkhd)
         56927 MiB available memory on the node where the printing process lives
     GPU memory used/free/total (MiB): 2392 / 13888 / 16280
------------------
     ethr =  5.23E-08,  avg # of iterations =  3.0

     negative rho (up, down):  3.009E-02 3.522E-02

     total cpu time spent up to now is      233.8 secs

     total energy              =    -406.04449943 Ry
     estimated scf accuracy    <       0.00014990 Ry

     total magnetization       =     5.18 Bohr mag/cell
     absolute magnetization    =     5.34 Bohr mag/cell
[tb_dev] Currently allocated     2.53E+00 Mbytes, locked:    0 /   8
[tb_pin] Currently allocated     0.00E+00 Mbytes, locked:    0 /   0

     iteration # 16     ecut=    40.00 Ry     beta= 0.40
     Davidson diagonalization with overlap

---- Real-time Memory Report at c_bands before calling an iterative solver
          2150 MiB given to the printing process from OS
          1934 MiB allocation reported by mallinfo(arena+hblkhd)
         56926 MiB available memory on the node where the printing process lives
     GPU memory used/free/total (MiB): 2392 / 13888 / 16280
------------------
     ethr =  5.23E-08,  avg # of iterations =  4.0

     negative rho (up, down):  3.019E-02 3.511E-02

     total cpu time spent up to now is      254.6 secs

     total energy              =    -406.04540427 Ry
     estimated scf accuracy    <       0.00039517 Ry

     total magnetization       =     4.72 Bohr mag/cell
     absolute magnetization    =     5.01 Bohr mag/cell
[tb_dev] Currently allocated     2.53E+00 Mbytes, locked:    0 /   8
[tb_pin] Currently allocated     0.00E+00 Mbytes, locked:    0 /   0

     iteration # 17     ecut=    40.00 Ry     beta= 0.40
     Davidson diagonalization with overlap

---- Real-time Memory Report at c_bands before calling an iterative solver
          2150 MiB given to the printing process from OS
          1934 MiB allocation reported by mallinfo(arena+hblkhd)
         56931 MiB available memory on the node where the printing process lives
     GPU memory used/free/total (MiB): 2392 / 13888 / 16280
------------------
     ethr =  5.23E-08,  avg # of iterations =  3.0

     negative rho (up, down):  3.038E-02 3.491E-02

     total cpu time spent up to now is      272.6 secs

     total energy              =    -406.04449982 Ry
     estimated scf accuracy    <       0.00024754 Ry

     total magnetization       =     4.93 Bohr mag/cell
     absolute magnetization    =     5.13 Bohr mag/cell
[tb_dev] Currently allocated     2.53E+00 Mbytes, locked:    0 /   8
[tb_pin] Currently allocated     0.00E+00 Mbytes, locked:    0 /   0

     iteration # 18     ecut=    40.00 Ry     beta= 0.40
     Davidson diagonalization with overlap

---- Real-time Memory Report at c_bands before calling an iterative solver
          2150 MiB given to the printing process from OS
          1934 MiB allocation reported by mallinfo(arena+hblkhd)
         56931 MiB available memory on the node where the printing process lives
     GPU memory used/free/total (MiB): 2392 / 13888 / 16280
------------------
     ethr =  5.23E-08,  avg # of iterations =  3.5

     negative rho (up, down):  3.079E-02 3.449E-02

     total cpu time spent up to now is      292.2 secs

     total energy              =    -406.04029172 Ry
     estimated scf accuracy    <       0.00097768 Ry

     total magnetization       =     5.29 Bohr mag/cell
     absolute magnetization    =     5.43 Bohr mag/cell
[tb_dev] Currently allocated     2.53E+00 Mbytes, locked:    0 /   8
[tb_pin] Currently allocated     0.00E+00 Mbytes, locked:    0 /   0

     iteration # 19     ecut=    40.00 Ry     beta= 0.40
     Davidson diagonalization with overlap

---- Real-time Memory Report at c_bands before calling an iterative solver
          2150 MiB given to the printing process from OS
          1934 MiB allocation reported by mallinfo(arena+hblkhd)
         56929 MiB available memory on the node where the printing process lives
     GPU memory used/free/total (MiB): 2392 / 13888 / 16280
------------------
     ethr =  5.23E-08,  avg # of iterations =  4.8

     negative rho (up, down):  3.031E-02 3.496E-02

     total cpu time spent up to now is      315.8 secs

     total energy              =    -406.04385554 Ry
     estimated scf accuracy    <       0.02366793 Ry

     total magnetization       =     5.74 Bohr mag/cell
     absolute magnetization    =     5.87 Bohr mag/cell
[tb_dev] Currently allocated     2.53E+00 Mbytes, locked:    0 /   8
[tb_pin] Currently allocated     0.00E+00 Mbytes, locked:    0 /   0

     iteration # 20     ecut=    40.00 Ry     beta= 0.40
     Davidson diagonalization with overlap

---- Real-time Memory Report at c_bands before calling an iterative solver
          2150 MiB given to the printing process from OS
          1934 MiB allocation reported by mallinfo(arena+hblkhd)
         56932 MiB available memory on the node where the printing process lives
     GPU memory used/free/total (MiB): 2392 / 13888 / 16280
------------------
     ethr =  5.23E-08,  avg # of iterations =  4.9

     negative rho (up, down):  3.026E-02 3.501E-02

     total cpu time spent up to now is      339.7 secs

     total energy              =    -406.04550867 Ry
     estimated scf accuracy    <       0.00038187 Ry

     total magnetization       =     5.19 Bohr mag/cell
     absolute magnetization    =     5.35 Bohr mag/cell
[tb_dev] Currently allocated     2.53E+00 Mbytes, locked:    0 /   8
[tb_pin] Currently allocated     0.00E+00 Mbytes, locked:    0 /   0

     iteration # 21     ecut=    40.00 Ry     beta= 0.40
     Davidson diagonalization with overlap

---- Real-time Memory Report at c_bands before calling an iterative solver
          2150 MiB given to the printing process from OS
          1934 MiB allocation reported by mallinfo(arena+hblkhd)
         56933 MiB available memory on the node where the printing process lives
     GPU memory used/free/total (MiB): 2392 / 13888 / 16280
------------------
     ethr =  5.23E-08,  avg # of iterations =  2.1

     negative rho (up, down):  3.021E-02 3.507E-02

     total cpu time spent up to now is      355.6 secs

     total energy              =    -406.04555729 Ry
     estimated scf accuracy    <       0.00016568 Ry

     total magnetization       =     5.11 Bohr mag/cell
     absolute magnetization    =     5.28 Bohr mag/cell
[tb_dev] Currently allocated     2.53E+00 Mbytes, locked:    0 /   8
[tb_pin] Currently allocated     0.00E+00 Mbytes, locked:    0 /   0

     iteration # 22     ecut=    40.00 Ry     beta= 0.40
     Davidson diagonalization with overlap

---- Real-time Memory Report at c_bands before calling an iterative solver
          2150 MiB given to the printing process from OS
          1934 MiB allocation reported by mallinfo(arena+hblkhd)
         56932 MiB available memory on the node where the printing process lives
     GPU memory used/free/total (MiB): 2392 / 13888 / 16280
------------------
     ethr =  5.23E-08,  avg # of iterations =  2.0

     negative rho (up, down):  3.014E-02 3.513E-02

     total cpu time spent up to now is      371.3 secs

     total energy              =    -406.04560839 Ry
     estimated scf accuracy    <       0.00011847 Ry

     total magnetization       =     5.00 Bohr mag/cell
     absolute magnetization    =     5.19 Bohr mag/cell
[tb_dev] Currently allocated     2.53E+00 Mbytes, locked:    0 /   8
[tb_pin] Currently allocated     0.00E+00 Mbytes, locked:    0 /   0

     iteration # 23     ecut=    40.00 Ry     beta= 0.40
     Davidson diagonalization with overlap

---- Real-time Memory Report at c_bands before calling an iterative solver
          2150 MiB given to the printing process from OS
          1934 MiB allocation reported by mallinfo(arena+hblkhd)
         56934 MiB available memory on the node where the printing process lives
     GPU memory used/free/total (MiB): 2392 / 13888 / 16280
------------------
     ethr =  5.23E-08,  avg # of iterations =  2.1

     negative rho (up, down):  3.010E-02 3.517E-02

     total cpu time spent up to now is      387.3 secs

     total energy              =    -406.04574015 Ry
     estimated scf accuracy    <       0.00019443 Ry

     total magnetization       =     4.87 Bohr mag/cell
     absolute magnetization    =     5.09 Bohr mag/cell
[tb_dev] Currently allocated     2.53E+00 Mbytes, locked:    0 /   8
[tb_pin] Currently allocated     0.00E+00 Mbytes, locked:    0 /   0

     iteration # 24     ecut=    40.00 Ry     beta= 0.40
     Davidson diagonalization with overlap

---- Real-time Memory Report at c_bands before calling an iterative solver
          2150 MiB given to the printing process from OS
          1934 MiB allocation reported by mallinfo(arena+hblkhd)
         56934 MiB available memory on the node where the printing process lives
     GPU memory used/free/total (MiB): 2392 / 13888 / 16280
------------------
     ethr =  5.23E-08,  avg # of iterations =  2.0

     negative rho (up, down):  3.011E-02 3.517E-02

     total cpu time spent up to now is      402.4 secs

     total energy              =    -406.04577287 Ry
     estimated scf accuracy    <       0.00031279 Ry

     total magnetization       =     4.79 Bohr mag/cell
     absolute magnetization    =     5.04 Bohr mag/cell
[tb_dev] Currently allocated     2.53E+00 Mbytes, locked:    0 /   8
[tb_pin] Currently allocated     0.00E+00 Mbytes, locked:    0 /   0

     iteration # 25     ecut=    40.00 Ry     beta= 0.40
     Davidson diagonalization with overlap

---- Real-time Memory Report at c_bands before calling an iterative solver
          2150 MiB given to the printing process from OS
          1934 MiB allocation reported by mallinfo(arena+hblkhd)
         56934 MiB available memory on the node where the printing process lives
     GPU memory used/free/total (MiB): 2392 / 13888 / 16280
------------------
     ethr =  5.23E-08,  avg # of iterations =  1.0

     negative rho (up, down):  3.006E-02 3.521E-02

     total cpu time spent up to now is      415.1 secs

     total energy              =    -406.04580648 Ry
     estimated scf accuracy    <       0.00028562 Ry

     total magnetization       =     4.80 Bohr mag/cell
     absolute magnetization    =     5.05 Bohr mag/cell
[tb_dev] Currently allocated     2.53E+00 Mbytes, locked:    0 /   8
[tb_pin] Currently allocated     0.00E+00 Mbytes, locked:    0 /   0

     iteration # 26     ecut=    40.00 Ry     beta= 0.40
     Davidson diagonalization with overlap

---- Real-time Memory Report at c_bands before calling an iterative solver
          2150 MiB given to the printing process from OS
          1934 MiB allocation reported by mallinfo(arena+hblkhd)
         56933 MiB available memory on the node where the printing process lives
     GPU memory used/free/total (MiB): 2392 / 13888 / 16280
------------------
     ethr =  5.23E-08,  avg # of iterations =  2.0

     negative rho (up, down):  3.004E-02 3.523E-02

     total cpu time spent up to now is      430.2 secs

     total energy              =    -406.04589169 Ry
     estimated scf accuracy    <       0.00052013 Ry

     total magnetization       =     4.72 Bohr mag/cell
     absolute magnetization    =     5.01 Bohr mag/cell
[tb_dev] Currently allocated     2.53E+00 Mbytes, locked:    0 /   8
[tb_pin] Currently allocated     0.00E+00 Mbytes, locked:    0 /   0

     iteration # 27     ecut=    40.00 Ry     beta= 0.40
     Davidson diagonalization with overlap

---- Real-time Memory Report at c_bands before calling an iterative solver
          2150 MiB given to the printing process from OS
          1934 MiB allocation reported by mallinfo(arena+hblkhd)
         56934 MiB available memory on the node where the printing process lives
     GPU memory used/free/total (MiB): 2392 / 13888 / 16280
------------------
     ethr =  5.23E-08,  avg # of iterations =  1.7

     negative rho (up, down):  3.004E-02 3.524E-02

     total cpu time spent up to now is      443.5 secs

     total energy              =    -406.04591372 Ry
     estimated scf accuracy    <       0.00070916 Ry

     total magnetization       =     4.68 Bohr mag/cell
     absolute magnetization    =     5.01 Bohr mag/cell
[tb_dev] Currently allocated     2.53E+00 Mbytes, locked:    0 /   8
[tb_pin] Currently allocated     0.00E+00 Mbytes, locked:    0 /   0

     iteration # 28     ecut=    40.00 Ry     beta= 0.40
     Davidson diagonalization with overlap

---- Real-time Memory Report at c_bands before calling an iterative solver
          2150 MiB given to the printing process from OS
          1934 MiB allocation reported by mallinfo(arena+hblkhd)
         56934 MiB available memory on the node where the printing process lives
     GPU memory used/free/total (MiB): 2392 / 13888 / 16280
------------------
     ethr =  5.23E-08,  avg # of iterations =  1.0

     negative rho (up, down):  3.060E-02 3.468E-02

     total cpu time spent up to now is      455.9 secs

     total energy              =    -406.03750450 Ry
     estimated scf accuracy    <       0.00075224 Ry

     total magnetization       =     4.67 Bohr mag/cell
     absolute magnetization    =     5.01 Bohr mag/cell
[tb_dev] Currently allocated     2.53E+00 Mbytes, locked:    0 /   8
[tb_pin] Currently allocated     0.00E+00 Mbytes, locked:    0 /   0

     iteration # 29     ecut=    40.00 Ry     beta= 0.40
     Davidson diagonalization with overlap

---- Real-time Memory Report at c_bands before calling an iterative solver
          2150 MiB given to the printing process from OS
          1934 MiB allocation reported by mallinfo(arena+hblkhd)
         56935 MiB available memory on the node where the printing process lives
     GPU memory used/free/total (MiB): 2392 / 13888 / 16280
------------------
     ethr =  5.23E-08,  avg # of iterations =  5.7

     negative rho (up, down):  2.994E-02 3.534E-02

     total cpu time spent up to now is      481.4 secs

     total energy              =    -406.03965055 Ry
     estimated scf accuracy    <       0.00773050 Ry

     total magnetization       =     5.56 Bohr mag/cell
     absolute magnetization    =     5.69 Bohr mag/cell
[tb_dev] Currently allocated     2.53E+00 Mbytes, locked:    0 /   8
[tb_pin] Currently allocated     0.00E+00 Mbytes, locked:    0 /   0

     iteration # 30     ecut=    40.00 Ry     beta= 0.40
     Davidson diagonalization with overlap

---- Real-time Memory Report at c_bands before calling an iterative solver
          2150 MiB given to the printing process from OS
          1934 MiB allocation reported by mallinfo(arena+hblkhd)
         56937 MiB available memory on the node where the printing process lives
     GPU memory used/free/total (MiB): 2392 / 13888 / 16280
------------------
     ethr =  5.23E-08,  avg # of iterations =  6.0

     negative rho (up, down):  2.994E-02 3.534E-02

     total cpu time spent up to now is      508.1 secs

     total energy              =    -406.04622389 Ry
     estimated scf accuracy    <       0.00275367 Ry

     total magnetization       =     4.47 Bohr mag/cell
     absolute magnetization    =     5.23 Bohr mag/cell
[tb_dev] Currently allocated     2.53E+00 Mbytes, locked:    0 /   8
[tb_pin] Currently allocated     0.00E+00 Mbytes, locked:    0 /   0

     iteration # 31     ecut=    40.00 Ry     beta= 0.40
     Davidson diagonalization with overlap

---- Real-time Memory Report at c_bands before calling an iterative solver
          2150 MiB given to the printing process from OS
          1934 MiB allocation reported by mallinfo(arena+hblkhd)
         56936 MiB available memory on the node where the printing process lives
     GPU memory used/free/total (MiB): 2392 / 13888 / 16280
------------------
     ethr =  5.23E-08,  avg # of iterations =  1.0

     negative rho (up, down):  3.002E-02 3.525E-02

     total cpu time spent up to now is      520.5 secs

     total energy              =    -406.04576064 Ry
     estimated scf accuracy    <       0.00270653 Ry

     total magnetization       =     4.47 Bohr mag/cell
     absolute magnetization    =     5.23 Bohr mag/cell
[tb_dev] Currently allocated     2.53E+00 Mbytes, locked:    0 /   8
[tb_pin] Currently allocated     0.00E+00 Mbytes, locked:    0 /   0

     iteration # 32     ecut=    40.00 Ry     beta= 0.40
     Davidson diagonalization with overlap

---- Real-time Memory Report at c_bands before calling an iterative solver
          2150 MiB given to the printing process from OS
          1934 MiB allocation reported by mallinfo(arena+hblkhd)
         56937 MiB available memory on the node where the printing process lives
     GPU memory used/free/total (MiB): 2392 / 13888 / 16280
------------------
     ethr =  5.23E-08,  avg # of iterations =  2.4

     negative rho (up, down):  3.002E-02 3.525E-02

     total cpu time spent up to now is      537.0 secs

     total energy              =    -406.04595261 Ry
     estimated scf accuracy    <       0.00105997 Ry

     total magnetization       =     4.63 Bohr mag/cell
     absolute magnetization    =     5.02 Bohr mag/cell
[tb_dev] Currently allocated     2.53E+00 Mbytes, locked:    0 /   8
[tb_pin] Currently allocated     0.00E+00 Mbytes, locked:    0 /   0

     iteration # 33     ecut=    40.00 Ry     beta= 0.40
     Davidson diagonalization with overlap

---- Real-time Memory Report at c_bands before calling an iterative solver
          2150 MiB given to the printing process from OS
          1934 MiB allocation reported by mallinfo(arena+hblkhd)
         56937 MiB available memory on the node where the printing process lives
     GPU memory used/free/total (MiB): 2392 / 13888 / 16280
------------------
     ethr =  5.23E-08,  avg # of iterations =  1.0

     negative rho (up, down):  3.001E-02 3.527E-02

     total cpu time spent up to now is      549.4 secs

     total energy              =    -406.04598655 Ry
     estimated scf accuracy    <       0.00103419 Ry

     total magnetization       =     4.64 Bohr mag/cell
     absolute magnetization    =     5.02 Bohr mag/cell
[tb_dev] Currently allocated     2.53E+00 Mbytes, locked:    0 /   8
[tb_pin] Currently allocated     0.00E+00 Mbytes, locked:    0 /   0

     iteration # 34     ecut=    40.00 Ry     beta= 0.40
     Davidson diagonalization with overlap

---- Real-time Memory Report at c_bands before calling an iterative solver
          2150 MiB given to the printing process from OS
          1934 MiB allocation reported by mallinfo(arena+hblkhd)
         56937 MiB available memory on the node where the printing process lives
     GPU memory used/free/total (MiB): 2392 / 13888 / 16280
------------------
     ethr =  5.23E-08,  avg # of iterations =  1.0

     negative rho (up, down):  2.996E-02 3.531E-02

     total cpu time spent up to now is      561.8 secs

     total energy              =    -406.04607356 Ry
     estimated scf accuracy    <       0.00119793 Ry

     total magnetization       =     4.61 Bohr mag/cell
     absolute magnetization    =     5.04 Bohr mag/cell
[tb_dev] Currently allocated     2.53E+00 Mbytes, locked:    0 /   8
[tb_pin] Currently allocated     0.00E+00 Mbytes, locked:    0 /   0

     iteration # 35     ecut=    40.00 Ry     beta= 0.40
     Davidson diagonalization with overlap

---- Real-time Memory Report at c_bands before calling an iterative solver
          2150 MiB given to the printing process from OS
          1934 MiB allocation reported by mallinfo(arena+hblkhd)
         56936 MiB available memory on the node where the printing process lives
     GPU memory used/free/total (MiB): 2392 / 13888 / 16280
------------------
     ethr =  5.23E-08,  avg # of iterations =  2.1

     negative rho (up, down):  2.990E-02 3.538E-02

     total cpu time spent up to now is      577.4 secs

     total energy              =    -406.04626784 Ry
     estimated scf accuracy    <       0.00203291 Ry

     total magnetization       =     4.52 Bohr mag/cell
     absolute magnetization    =     5.17 Bohr mag/cell
[tb_dev] Currently allocated     2.53E+00 Mbytes, locked:    0 /   8
[tb_pin] Currently allocated     0.00E+00 Mbytes, locked:    0 /   0

     iteration # 36     ecut=    40.00 Ry     beta= 0.40
     Davidson diagonalization with overlap

---- Real-time Memory Report at c_bands before calling an iterative solver
          2150 MiB given to the printing process from OS
          1934 MiB allocation reported by mallinfo(arena+hblkhd)
         56937 MiB available memory on the node where the printing process lives
     GPU memory used/free/total (MiB): 2392 / 13888 / 16280
------------------
     ethr =  5.23E-08,  avg # of iterations =  2.0

     negative rho (up, down):  2.994E-02 3.534E-02

     total cpu time spent up to now is      593.7 secs

     total energy              =    -406.04616903 Ry
     estimated scf accuracy    <       0.00409006 Ry

     total magnetization       =     4.41 Bohr mag/cell
     absolute magnetization    =     5.32 Bohr mag/cell
[tb_dev] Currently allocated     2.53E+00 Mbytes, locked:    0 /   8
[tb_pin] Currently allocated     0.00E+00 Mbytes, locked:    0 /   0

     iteration # 37     ecut=    40.00 Ry     beta= 0.40
     Davidson diagonalization with overlap

---- Real-time Memory Report at c_bands before calling an iterative solver
          2150 MiB given to the printing process from OS
          1934 MiB allocation reported by mallinfo(arena+hblkhd)
         56936 MiB available memory on the node where the printing process lives
     GPU memory used/free/total (MiB): 2392 / 13888 / 16280
------------------
     ethr =  5.23E-08,  avg # of iterations =  2.0

     negative rho (up, down):  2.992E-02 3.535E-02

     total cpu time spent up to now is      608.1 secs

     total energy              =    -406.04626752 Ry
     estimated scf accuracy    <       0.00295485 Ry

     total magnetization       =     4.48 Bohr mag/cell
     absolute magnetization    =     5.22 Bohr mag/cell
[tb_dev] Currently allocated     2.53E+00 Mbytes, locked:    0 /   8
[tb_pin] Currently allocated     0.00E+00 Mbytes, locked:    0 /   0

     iteration # 38     ecut=    40.00 Ry     beta= 0.40
     Davidson diagonalization with overlap

---- Real-time Memory Report at c_bands before calling an iterative solver
          2150 MiB given to the printing process from OS
          1934 MiB allocation reported by mallinfo(arena+hblkhd)
         56937 MiB available memory on the node where the printing process lives
     GPU memory used/free/total (MiB): 2392 / 13888 / 16280
------------------
     ethr =  5.23E-08,  avg # of iterations =  1.0

     negative rho (up, down):  3.022E-02 3.505E-02

     total cpu time spent up to now is      620.4 secs

     total energy              =    -406.04316675 Ry
     estimated scf accuracy    <       0.00348662 Ry

     total magnetization       =     4.46 Bohr mag/cell
     absolute magnetization    =     5.26 Bohr mag/cell
[tb_dev] Currently allocated     2.53E+00 Mbytes, locked:    0 /   8
[tb_pin] Currently allocated     0.00E+00 Mbytes, locked:    0 /   0

     iteration # 39     ecut=    40.00 Ry     beta= 0.40
     Davidson diagonalization with overlap

---- Real-time Memory Report at c_bands before calling an iterative solver
          2150 MiB given to the printing process from OS
          1934 MiB allocation reported by mallinfo(arena+hblkhd)
         56937 MiB available memory on the node where the printing process lives
     GPU memory used/free/total (MiB): 2392 / 13888 / 16280
------------------
     ethr =  5.23E-08,  avg # of iterations =  4.2

     negative rho (up, down):  3.032E-02 3.495E-02

     total cpu time spent up to now is      642.2 secs

     total energy              =    -406.04526129 Ry
     estimated scf accuracy    <       0.00024375 Ry

     total magnetization       =     5.03 Bohr mag/cell
     absolute magnetization    =     5.21 Bohr mag/cell
[tb_dev] Currently allocated     2.53E+00 Mbytes, locked:    0 /   8
[tb_pin] Currently allocated     0.00E+00 Mbytes, locked:    0 /   0

     iteration # 40     ecut=    40.00 Ry     beta= 0.40
     Davidson diagonalization with overlap

---- Real-time Memory Report at c_bands before calling an iterative solver
          2150 MiB given to the printing process from OS
          1934 MiB allocation reported by mallinfo(arena+hblkhd)
         56937 MiB available memory on the node where the printing process lives
     GPU memory used/free/total (MiB): 2392 / 13888 / 16280
------------------
     ethr =  5.23E-08,  avg # of iterations =  3.1

     negative rho (up, down):  3.033E-02 3.494E-02

     total cpu time spent up to now is      660.2 secs

     total energy              =    -406.04546345 Ry
     estimated scf accuracy    <       0.00056660 Ry

     total magnetization       =     5.21 Bohr mag/cell
     absolute magnetization    =     5.37 Bohr mag/cell
[tb_dev] Currently allocated     2.53E+00 Mbytes, locked:    0 /   8
[tb_pin] Currently allocated     0.00E+00 Mbytes, locked:    0 /   0

     iteration # 41     ecut=    40.00 Ry     beta= 0.40
     Davidson diagonalization with overlap

---- Real-time Memory Report at c_bands before calling an iterative solver
          2150 MiB given to the printing process from OS
          1934 MiB allocation reported by mallinfo(arena+hblkhd)
         56936 MiB available memory on the node where the printing process lives
     GPU memory used/free/total (MiB): 2392 / 13888 / 16280
------------------
     ethr =  5.23E-08,  avg # of iterations =  1.0

     negative rho (up, down):  3.033E-02 3.494E-02

[...]
------------------
     ethr =  5.23E-08,  avg # of iterations =  2.2

     negative rho (up, down):  3.033E-02 3.494E-02

     total cpu time spent up to now is     1083.7 secs

     total energy              =    -406.04504690 Ry
     estimated scf accuracy    <       0.00520246 Ry

     total magnetization       =     5.50 Bohr mag/cell
     absolute magnetization    =     5.63 Bohr mag/cell
[tb_dev] Currently allocated     2.53E+00 Mbytes, locked:    0 /   8
[tb_pin] Currently allocated     0.00E+00 Mbytes, locked:    0 /   0

     iteration # 66     ecut=    40.00 Ry     beta= 0.40
     Davidson diagonalization with overlap

---- Real-time Memory Report at c_bands before calling an iterative solver
          2150 MiB given to the printing process from OS
          1934 MiB allocation reported by mallinfo(arena+hblkhd)
         56920 MiB available memory on the node where the printing process lives
     GPU memory used/free/total (MiB): 2392 / 13888 / 16280
------------------
     ethr =  5.23E-08,  avg # of iterations =  3.5

     negative rho (up, down):  3.023E-02 3.504E-02

     total cpu time spent up to now is     1103.0 secs

     total energy              =    -406.04539963 Ry
     estimated scf accuracy    <       0.00075725 Ry

     total magnetization       =     5.24 Bohr mag/cell
     absolute magnetization    =     5.39 Bohr mag/cell
[tb_dev] Currently allocated     2.53E+00 Mbytes, locked:    0 /   8
[tb_pin] Currently allocated     0.00E+00 Mbytes, locked:    0 /   0

     iteration # 67     ecut=    40.00 Ry     beta= 0.40
     Davidson diagonalization with overlap

---- Real-time Memory Report at c_bands before calling an iterative solver
          2150 MiB given to the printing process from OS
          1934 MiB allocation reported by mallinfo(arena+hblkhd)
         56928 MiB available memory on the node where the printing process lives
     GPU memory used/free/total (MiB): 2392 / 13888 / 16280
------------------
     ethr =  5.23E-08,  avg # of iterations =  3.0

     negative rho (up, down):  3.022E-02 3.505E-02

     total cpu time spent up to now is     1121.0 secs

     total energy              =    -406.04560651 Ry
     estimated scf accuracy    <       0.00016656 Ry

     total magnetization       =     5.05 Bohr mag/cell
     absolute magnetization    =     5.23 Bohr mag/cell
[tb_dev] Currently allocated     2.53E+00 Mbytes, locked:    0 /   8
[tb_pin] Currently allocated     0.00E+00 Mbytes, locked:    0 /   0

     iteration # 68     ecut=    40.00 Ry     beta= 0.40
     Davidson diagonalization with overlap

---- Real-time Memory Report at c_bands before calling an iterative solver
          2150 MiB given to the printing process from OS
          1934 MiB allocation reported by mallinfo(arena+hblkhd)
         56930 MiB available memory on the node where the printing process lives
     GPU memory used/free/total (MiB): 2392 / 13888 / 16280
------------------
     ethr =  5.23E-08,  avg # of iterations =  1.0

     negative rho (up, down):  3.020E-02 3.507E-02

     total cpu time spent up to now is     1133.6 secs

     total energy              =    -406.04562383 Ry
     estimated scf accuracy    <       0.00016975 Ry

     total magnetization       =     5.04 Bohr mag/cell
     absolute magnetization    =     5.22 Bohr mag/cell
[tb_dev] Currently allocated     2.53E+00 Mbytes, locked:    0 /   8
[tb_pin] Currently allocated     0.00E+00 Mbytes, locked:    0 /   0

     iteration # 69     ecut=    40.00 Ry     beta= 0.40
     Davidson diagonalization with overlap

---- Real-time Memory Report at c_bands before calling an iterative solver
          2150 MiB given to the printing process from OS
          1934 MiB allocation reported by mallinfo(arena+hblkhd)
         56930 MiB available memory on the node where the printing process lives
     GPU memory used/free/total (MiB): 2392 / 13888 / 16280
------------------
     ethr =  5.23E-08,  avg # of iterations =  1.0

     negative rho (up, down):  3.018E-02 3.509E-02

     total cpu time spent up to now is     1146.0 secs

     total energy              =    -406.04564574 Ry
     estimated scf accuracy    <       0.00019035 Ry

     total magnetization       =     5.01 Bohr mag/cell
     absolute magnetization    =     5.19 Bohr mag/cell
[tb_dev] Currently allocated     2.53E+00 Mbytes, locked:    0 /   8
[tb_pin] Currently allocated     0.00E+00 Mbytes, locked:    0 /   0

     iteration # 70     ecut=    40.00 Ry     beta= 0.40
     Davidson diagonalization with overlap

---- Real-time Memory Report at c_bands before calling an iterative solver
          2150 MiB given to the printing process from OS
          1934 MiB allocation reported by mallinfo(arena+hblkhd)
         56931 MiB available memory on the node where the printing process lives
     GPU memory used/free/total (MiB): 2392 / 13888 / 16280
------------------
     ethr =  5.23E-08,  avg # of iterations =  1.0

     negative rho (up, down):  3.018E-02 3.509E-02

     total cpu time spent up to now is     1158.7 secs

     total energy              =    -406.04565369 Ry
     estimated scf accuracy    <       0.00019167 Ry

     total magnetization       =     4.97 Bohr mag/cell
     absolute magnetization    =     5.16 Bohr mag/cell
[tb_dev] Currently allocated     2.53E+00 Mbytes, locked:    0 /   8
[tb_pin] Currently allocated     0.00E+00 Mbytes, locked:    0 /   0

     iteration # 71     ecut=    40.00 Ry     beta= 0.40
     Davidson diagonalization with overlap

---- Real-time Memory Report at c_bands before calling an iterative solver
          2150 MiB given to the printing process from OS
          1934 MiB allocation reported by mallinfo(arena+hblkhd)
         56932 MiB available memory on the node where the printing process lives
     GPU memory used/free/total (MiB): 2392 / 13888 / 16280
------------------
     ethr =  5.23E-08,  avg # of iterations =  1.0

     negative rho (up, down):  3.016E-02 3.512E-02

     total cpu time spent up to now is     1171.3 secs

     total energy              =    -406.04567175 Ry
     estimated scf accuracy    <       0.00018661 Ry

     total magnetization       =     4.97 Bohr mag/cell
     absolute magnetization    =     5.16 Bohr mag/cell
[tb_dev] Currently allocated     2.53E+00 Mbytes, locked:    0 /   8
[tb_pin] Currently allocated     0.00E+00 Mbytes, locked:    0 /   0

     iteration # 72     ecut=    40.00 Ry     beta= 0.40
     Davidson diagonalization with overlap

---- Real-time Memory Report at c_bands before calling an iterative solver
          2150 MiB given to the printing process from OS
          1934 MiB allocation reported by mallinfo(arena+hblkhd)
         56931 MiB available memory on the node where the printing process lives
     GPU memory used/free/total (MiB): 2392 / 13888 / 16280
------------------
     ethr =  5.23E-08,  avg # of iterations =  2.0

     negative rho (up, down):  3.011E-02 3.516E-02

     total cpu time spent up to now is     1185.5 secs

     total energy              =    -406.04570827 Ry
     estimated scf accuracy    <       0.00023856 Ry

     total magnetization       =     4.92 Bohr mag/cell
     absolute magnetization    =     5.12 Bohr mag/cell
[tb_dev] Currently allocated     2.53E+00 Mbytes, locked:    0 /   8
[tb_pin] Currently allocated     0.00E+00 Mbytes, locked:    0 /   0

     iteration # 73     ecut=    40.00 Ry     beta= 0.40
     Davidson diagonalization with overlap

---- Real-time Memory Report at c_bands before calling an iterative solver
          2150 MiB given to the printing process from OS
          1934 MiB allocation reported by mallinfo(arena+hblkhd)
         56933 MiB available memory on the node where the printing process lives
     GPU memory used/free/total (MiB): 2392 / 13888 / 16280
------------------
     ethr =  5.23E-08,  avg # of iterations =  2.0

     negative rho (up, down):  3.010E-02 3.517E-02

     total cpu time spent up to now is     1200.9 secs

     total energy              =    -406.04577293 Ry
     estimated scf accuracy    <       0.00038172 Ry

     total magnetization       =     4.83 Bohr mag/cell
     absolute magnetization    =     5.06 Bohr mag/cell
[tb_dev] Currently allocated     2.53E+00 Mbytes, locked:    0 /   8
[tb_pin] Currently allocated     0.00E+00 Mbytes, locked:    0 /   0

     iteration # 74     ecut=    40.00 Ry     beta= 0.40
     Davidson diagonalization with overlap

---- Real-time Memory Report at c_bands before calling an iterative solver
          2150 MiB given to the printing process from OS
          1934 MiB allocation reported by mallinfo(arena+hblkhd)
         56935 MiB available memory on the node where the printing process lives
     GPU memory used/free/total (MiB): 2392 / 13888 / 16280
------------------
     ethr =  5.23E-08,  avg # of iterations =  1.0

     negative rho (up, down):  3.034E-02 3.493E-02

     total cpu time spent up to now is     1213.8 secs

     total energy              =    -406.04404968 Ry
     estimated scf accuracy    <       0.00039866 Ry

     total magnetization       =     4.81 Bohr mag/cell
     absolute magnetization    =     5.05 Bohr mag/cell
[tb_dev] Currently allocated     2.53E+00 Mbytes, locked:    0 /   8
[tb_pin] Currently allocated     0.00E+00 Mbytes, locked:    0 /   0

     iteration # 75     ecut=    40.00 Ry     beta= 0.40
     Davidson diagonalization with overlap

---- Real-time Memory Report at c_bands before calling an iterative solver
          2150 MiB given to the printing process from OS
          1934 MiB allocation reported by mallinfo(arena+hblkhd)
         56933 MiB available memory on the node where the printing process lives
     GPU memory used/free/total (MiB): 2392 / 13888 / 16280
------------------
     ethr =  5.23E-08,  avg # of iterations =  3.9

     negative rho (up, down):  3.036E-02 3.491E-02

     total cpu time spent up to now is     1234.3 secs

     total energy              =    -406.04538588 Ry
     estimated scf accuracy    <       0.00078358 Ry

     total magnetization       =     5.25 Bohr mag/cell
     absolute magnetization    =     5.41 Bohr mag/cell
[tb_dev] Currently allocated     2.53E+00 Mbytes, locked:    0 /   8
[tb_pin] Currently allocated     0.00E+00 Mbytes, locked:    0 /   0

     iteration # 76     ecut=    40.00 Ry     beta= 0.40
     Davidson diagonalization with overlap

---- Real-time Memory Report at c_bands before calling an iterative solver
          2150 MiB given to the printing process from OS
          1934 MiB allocation reported by mallinfo(arena+hblkhd)
         56934 MiB available memory on the node where the printing process lives
     GPU memory used/free/total (MiB): 2392 / 13888 / 16280
------------------
     ethr =  5.23E-08,  avg # of iterations =  1.8

     negative rho (up, down):  3.020E-02 3.507E-02

     total cpu time spent up to now is     1247.8 secs

     total energy              =    -406.04515133 Ry
     estimated scf accuracy    <       0.00096267 Ry

     total magnetization       =     5.28 Bohr mag/cell
     absolute magnetization    =     5.43 Bohr mag/cell
[tb_dev] Currently allocated     2.53E+00 Mbytes, locked:    0 /   8
[tb_pin] Currently allocated     0.00E+00 Mbytes, locked:    0 /   0

     iteration # 77     ecut=    40.00 Ry     beta= 0.40
     Davidson diagonalization with overlap

---- Real-time Memory Report at c_bands before calling an iterative solver
          2150 MiB given to the printing process from OS
          1934 MiB allocation reported by mallinfo(arena+hblkhd)
         56935 MiB available memory on the node where the printing process lives
     GPU memory used/free/total (MiB): 2392 / 13888 / 16280
------------------
     ethr =  5.23E-08,  avg # of iterations =  3.1

     negative rho (up, down):  2.985E-02 3.543E-02

     total cpu time spent up to now is     1266.2 secs

     total energy              =    -406.04320529 Ry
     estimated scf accuracy    <       0.00030922 Ry

     total magnetization       =     5.00 Bohr mag/cell
     absolute magnetization    =     5.19 Bohr mag/cell
[tb_dev] Currently allocated     2.53E+00 Mbytes, locked:    0 /   8
[tb_pin] Currently allocated     0.00E+00 Mbytes, locked:    0 /   0

     iteration # 78     ecut=    40.00 Ry     beta= 0.40
     Davidson diagonalization with overlap

---- Real-time Memory Report at c_bands before calling an iterative solver
          2150 MiB given to the printing process from OS
          1934 MiB allocation reported by mallinfo(arena+hblkhd)
         56935 MiB available memory on the node where the printing process lives
     GPU memory used/free/total (MiB): 2392 / 13888 / 16280
------------------
     ethr =  5.23E-08,  avg # of iterations =  4.4

     negative rho (up, down):  3.004E-02 3.523E-02

     total cpu time spent up to now is     1289.0 secs

     total energy              =    -406.04485675 Ry
     estimated scf accuracy    <       0.00682042 Ry

     total magnetization       =     4.32 Bohr mag/cell
     absolute magnetization    =     5.46 Bohr mag/cell
[tb_dev] Currently allocated     2.53E+00 Mbytes, locked:    0 /   8
[tb_pin] Currently allocated     0.00E+00 Mbytes, locked:    0 /   0

     iteration # 79     ecut=    40.00 Ry     beta= 0.40
     Davidson diagonalization with overlap

---- Real-time Memory Report at c_bands before calling an iterative solver
          2150 MiB given to the printing process from OS
          1934 MiB allocation reported by mallinfo(arena+hblkhd)
         56924 MiB available memory on the node where the printing process lives
     GPU memory used/free/total (MiB): 2392 / 13888 / 16280
------------------
     ethr =  5.23E-08,  avg # of iterations =  3.3

     negative rho (up, down):  2.998E-02 3.530E-02

     total cpu time spent up to now is     1308.0 secs

     total energy              =    -406.04598566 Ry
     estimated scf accuracy    <       0.00123728 Ry

     total magnetization       =     4.68 Bohr mag/cell
     absolute magnetization    =     5.02 Bohr mag/cell
[tb_dev] Currently allocated     2.53E+00 Mbytes, locked:    0 /   8
[tb_pin] Currently allocated     0.00E+00 Mbytes, locked:    0 /   0

     iteration # 80     ecut=    40.00 Ry     beta= 0.40
     Davidson diagonalization with overlap

---- Real-time Memory Report at c_bands before calling an iterative solver
          2150 MiB given to the printing process from OS
          1934 MiB allocation reported by mallinfo(arena+hblkhd)
         56932 MiB available memory on the node where the printing process lives
     GPU memory used/free/total (MiB): 2392 / 13888 / 16280
------------------
     ethr =  5.23E-08,  avg # of iterations =  2.0

     negative rho (up, down):  2.996E-02 3.531E-02

     total cpu time spent up to now is     1323.6 secs

     total energy              =    -406.04614672 Ry
     estimated scf accuracy    <       0.00236802 Ry

     total magnetization       =     4.56 Bohr mag/cell
     absolute magnetization    =     5.13 Bohr mag/cell

     End of self-consistent calculation

     convergence NOT achieved after  80 iterations: stopping

     Writing config to output data dir ./out/aiida.save/
 
     init_run     :     16.41s CPU      9.14s WALL (       1 calls)
     electrons    :   1462.25s CPU   1313.75s WALL (       1 calls)

     Called by init_run:
     wfcinit      :      5.89s CPU      7.35s WALL (       1 calls)
                                        7.35s GPU  (       1 calls)
     wfcinit:atom :      0.09s CPU      0.21s WALL (     326 calls)
                                        0.21s GPU  (     326 calls)
     wfcinit:wfcr :      4.02s CPU      4.76s WALL (     326 calls)
                                        4.76s GPU  (     326 calls)
     potinit      :      1.73s CPU      0.15s WALL (       1 calls)
     hinit0       :      6.41s CPU      0.93s WALL (       1 calls)

     Called by electrons:
     c_bands      :   1145.59s CPU   1103.75s WALL (      80 calls)
     sum_band     :    180.34s CPU    197.19s WALL (      80 calls)
     v_of_rho     :     52.40s CPU      4.74s WALL (      81 calls)
     v_h          :      6.71s CPU      0.59s WALL (      81 calls)
     v_xc         :     45.68s CPU      4.15s WALL (      81 calls)
     newd         :     36.10s CPU      3.57s WALL (      81 calls)
                                        3.57s GPU  (      81 calls)
     mix_rho      :     29.01s CPU      2.79s WALL (      80 calls)

     Called by c_bands:
     init_us_2    :     75.97s CPU     81.55s WALL (   52486 calls)
     init_us_2:gp :     75.06s CPU     80.69s WALL (   52486 calls)
     cegterg      :   1028.57s CPU    986.97s WALL (   26080 calls)

     Called by sum_band:
     sum_band:wei :      0.98s CPU      0.98s WALL (      80 calls)
                                        0.98s GPU  (      80 calls)
     sum_band:loo :    173.90s CPU    190.57s WALL (      80 calls)
                                      190.58s GPU  (      80 calls)
     sum_band:buf :     25.44s CPU     26.72s WALL (   26080 calls)
                                       26.57s GPU  (   26080 calls)
     sum_band:ini :     33.70s CPU     39.52s WALL (   26080 calls)
                                       39.37s GPU  (   26080 calls)
     sum_band:cal :      0.74s CPU      6.38s WALL (   26080 calls)
                                        4.14s GPU  (   26080 calls)
     sum_band:bec :      4.26s CPU      4.70s WALL (   26080 calls)
                                        4.52s GPU  (   26080 calls)
     addusdens    :      3.58s CPU      3.74s WALL (      80 calls)
                                        3.74s GPU  (      80 calls)
     addusd:skk   :      0.02s CPU      0.02s WALL (     160 calls)
                                        0.02s GPU  (     160 calls)

     Called by *egterg:
     cdiaghg      :    250.48s CPU    261.98s WALL (   91985 calls)
                                      261.36s GPU  (   91985 calls)
     cegterg:over :     16.19s CPU     15.37s WALL (   65905 calls)
     cegterg:upda :     29.45s CPU     28.81s WALL (   65905 calls)
     cegterg:last :     10.74s CPU     10.59s WALL (   52748 calls)
     h_psi        :    671.19s CPU    624.71s WALL (   92311 calls)
                                      624.02s GPU  (   92311 calls)
     s_psi        :     10.66s CPU     21.66s WALL (   92311 calls)
                                       20.28s GPU  (   92311 calls)
     g_psi        :      0.50s CPU      2.12s WALL (   65905 calls)
                                        1.70s GPU  (   65905 calls)

     Called by h_psi:
     h_psi:calbec :      3.25s CPU     14.51s WALL (   92311 calls)
                                       13.92s GPU  (   92311 calls)
     vloc_psi     :    619.38s CPU    577.46s WALL (   92311 calls)
                                      576.88s GPU  (   92311 calls)
     add_vuspsi   :     17.50s CPU     26.19s WALL (   92311 calls)
                                       25.61s GPU  (   92311 calls)

     General routines
     calbec       :      2.86s CPU      2.72s WALL (  118391 calls)
     fft          :      2.82s CPU      0.71s WALL (    2023 calls)
                                        0.57s GPU  (    1861 calls)
     ffts         :      0.09s CPU      0.08s WALL (     322 calls)
                                        0.02s GPU  (     160 calls)
     fftw         :     10.63s CPU    485.97s WALL (  508102 calls)
                                      482.72s GPU  (  508102 calls)
     interpolate  :      7.28s CPU      0.64s WALL (     162 calls)
     davcio       :      1.02s CPU      0.72s WALL (     344 calls)
 
     Parallel routines
 
     PWSCF        :  24m42.59s CPU  22m 4.58s WALL

 
   This run was terminated on:  17:36:34  22Oct2023            

=------------------------------------------------------------------------------=
   JOB DONE.
=------------------------------------------------------------------------------=
