
     Program PWSCF v.7.2 starts on 23Oct2023 at 21:41:25 

     This program is part of the open-source Quantum ESPRESSO suite
     for quantum simulation of materials; please cite
         "P. Giannozzi et al., J. Phys.:Condens. Matter 21 395502 (2009);
         "P. Giannozzi et al., J. Phys.:Condens. Matter 29 465901 (2017);
         "P. Giannozzi et al., J. Chem. Phys. 152 154105 (2020);
          URL http://www.quantum-espresso.org", 
     in publications or presentations arising from this work. More details at
     http://www.quantum-espresso.org/quote

     Parallel version (MPI & OpenMP), running on      12 processor cores
     Number of MPI processes:                 1
     Threads/MPI process:                    12

     MPI processes distributed on     1 nodes
     60298 MiB available memory on the printing compute node when the environment starts
 
     Reading input from aiida.in

     Current dimensions of program PWSCF are:
     Max number of different atomic species (ntypx) = 10
     Max number of k-points (npk) =  40000
     Max angular momentum in pseudopotentials (lmaxx) =  4
     file Ga.pbesol-dn-kjpaw_psl.1.0.0.UPF: wavefunction(s)  4S renormalized
     Message from routine setup:
     using ibrav=0 with symmetry is DISCOURAGED, use correct ibrav instead
 
     Subspace diagonalization in iterative solution of the eigenvalue problem:
     a serial algorithm will be used

 
     G-vector sticks info
     --------------------
     sticks:   dense  smooth     PW     G-vecs:    dense   smooth      PW
     Sum        2393    1201    349                88183    31103    4945
 
     Using Slab Decomposition
 


     bravais-lattice index     =            0
     lattice parameter (alat)  =       7.3246  a.u.
     unit-cell volume          =     392.9596 (a.u.)^3
     number of atoms/cell      =            5
     number of atomic types    =            3
     number of electrons       =        60.00
     number of Kohn-Sham states=           36
     kinetic-energy cutoff     =      70.0000  Ry
     charge density cutoff     =     560.0000  Ry
     scf convergence threshold =      1.0E-09
     mixing beta               =       0.4000
     number of iterations used =            8  plain     mixing
     Exchange-correlation= PBESOL
                           (   1   4  10   8   0   0   0)

     GPU acceleration is ACTIVE.


     GPU used by master process:

        Device Number: 0
        Device name: Tesla P100-PCIE-16GB
        Compute capability : 60
        Ratio of single to double precision performance  : 2
        Memory Clock Rate (KHz): 715000
        Memory Bus Width (bits): 4096
        Peak Memory Bandwidth (GB/s): 732.16

     celldm(1)=   7.324578  celldm(2)=   0.000000  celldm(3)=   0.000000
     celldm(4)=   0.000000  celldm(5)=   0.000000  celldm(6)=   0.000000

     crystal axes: (cart. coord. in units of alat)
               a(1) = (   1.000000   0.000000   0.000000 )  
               a(2) = (   0.000000   1.000000   0.000000 )  
               a(3) = (   0.000000   0.000000   1.000000 )  

     reciprocal axes: (cart. coord. in units 2 pi/alat)
               b(1) = (  1.000000  0.000000  0.000000 )  
               b(2) = (  0.000000  1.000000  0.000000 )  
               b(3) = (  0.000000  0.000000  1.000000 )  


     PseudoPot. # 1 for Cr read from file:
     ./pseudo/cr_pbesol_v1.5.uspp.F.UPF
     MD5 check sum: a621641e0be27168676a837af8893d0f
     Pseudo is Ultrasoft + core correction, Zval = 14.0
     Generated by new atomic code, or converted to UPF format
     Using radial grid of  857 points,  6 beta functions with: 
                l(1) =   0
                l(2) =   0
                l(3) =   1
                l(4) =   1
                l(5) =   2
                l(6) =   2
     Q(r) pseudized with  8 coefficients,  rinner =    0.950   0.950   0.950
                                                       0.950   0.950

     PseudoPot. # 2 for Ga read from file:
     ./pseudo/Ga.pbesol-dn-kjpaw_psl.1.0.0.UPF
     MD5 check sum: 2a7819223b42fad6ccd7f29fc9cbee49
     Pseudo is Projector augmented-wave + core cor, Zval = 13.0
     Generated using "atomic" code by A. Dal Corso  v.6.0 svn rev. 13079
     Shape of augmentation charge: PSQ
     Using radial grid of 1205 points,  6 beta functions with: 
                l(1) =   0
                l(2) =   0
                l(3) =   1
                l(4) =   1
                l(5) =   2
                l(6) =   2
     Q(r) pseudized with 0 coefficients 


     PseudoPot. # 3 for N  read from file:
     ./pseudo/N.pbesol-theos.UPF
     MD5 check sum: 1b64827339d390a5a22afef3ff345c9d
     Pseudo is Ultrasoft + core correction, Zval =  5.0
     Generated using "atomic" code by A. Dal Corso  v.5.1
     Using radial grid of 1085 points,  4 beta functions with: 
                l(1) =   0
                l(2) =   0
                l(3) =   1
                l(4) =   1
     Q(r) pseudized with 0 coefficients 


     atomic species   valence    mass     pseudopotential
        Cr            14.00    51.99610     Cr( 1.00)
        Ga            13.00    69.72300     Ga( 1.00)
        N              5.00    14.00670     N ( 1.00)

     Starting magnetic structure 
     atomic species   magnetization
        Cr           0.357
        Ga           0.100
        N            0.100

     48 Sym. Ops., with inversion, found


                                    s                        frac. trans.

      isym =  1     identity                                     

 cryst.   s( 1) = (     1          0          0      )
                  (     0          1          0      )
                  (     0          0          1      )

 cart.    s( 1) = (  1.0000000  0.0000000  0.0000000 )
                  (  0.0000000  1.0000000  0.0000000 )
                  (  0.0000000  0.0000000  1.0000000 )


      isym =  2     180 deg rotation - cart. axis [0,0,1]        

 cryst.   s( 2) = (    -1          0          0      )
                  (     0         -1          0      )
                  (     0          0          1      )

 cart.    s( 2) = ( -1.0000000  0.0000000  0.0000000 )
                  (  0.0000000 -1.0000000  0.0000000 )
                  (  0.0000000  0.0000000  1.0000000 )


      isym =  3     180 deg rotation - cart. axis [0,1,0]        

 cryst.   s( 3) = (    -1          0          0      )
                  (     0          1          0      )
                  (     0          0         -1      )

 cart.    s( 3) = ( -1.0000000  0.0000000  0.0000000 )
                  (  0.0000000  1.0000000  0.0000000 )
                  (  0.0000000  0.0000000 -1.0000000 )


      isym =  4     180 deg rotation - cart. axis [1,0,0]        

 cryst.   s( 4) = (     1          0          0      )
                  (     0         -1          0      )
                  (     0          0         -1      )

 cart.    s( 4) = (  1.0000000  0.0000000  0.0000000 )
                  (  0.0000000 -1.0000000  0.0000000 )
                  (  0.0000000  0.0000000 -1.0000000 )


      isym =  5     180 deg rotation - cart. axis [1,1,0]        

 cryst.   s( 5) = (     0          1          0      )
                  (     1          0          0      )
                  (     0          0         -1      )

 cart.    s( 5) = (  0.0000000  1.0000000  0.0000000 )
                  (  1.0000000  0.0000000  0.0000000 )
                  (  0.0000000  0.0000000 -1.0000000 )


      isym =  6     180 deg rotation - cart. axis [1,-1,0]       

 cryst.   s( 6) = (     0         -1          0      )
                  (    -1          0          0      )
                  (     0          0         -1      )

 cart.    s( 6) = (  0.0000000 -1.0000000  0.0000000 )
                  ( -1.0000000  0.0000000  0.0000000 )
                  (  0.0000000  0.0000000 -1.0000000 )


      isym =  7      90 deg rotation - cart. axis [0,0,-1]       

 cryst.   s( 7) = (     0         -1          0      )
                  (     1          0          0      )
                  (     0          0          1      )

 cart.    s( 7) = (  0.0000000  1.0000000  0.0000000 )
                  ( -1.0000000  0.0000000  0.0000000 )
                  (  0.0000000  0.0000000  1.0000000 )


      isym =  8      90 deg rotation - cart. axis [0,0,1]        

 cryst.   s( 8) = (     0          1          0      )
                  (    -1          0          0      )
                  (     0          0          1      )

 cart.    s( 8) = (  0.0000000 -1.0000000  0.0000000 )
                  (  1.0000000  0.0000000  0.0000000 )
                  (  0.0000000  0.0000000  1.0000000 )


      isym =  9     180 deg rotation - cart. axis [1,0,1]        

 cryst.   s( 9) = (     0          0          1      )
                  (     0         -1          0      )
                  (     1          0          0      )

 cart.    s( 9) = (  0.0000000  0.0000000  1.0000000 )
                  (  0.0000000 -1.0000000  0.0000000 )
                  (  1.0000000  0.0000000  0.0000000 )


      isym = 10     180 deg rotation - cart. axis [-1,0,1]       

 cryst.   s(10) = (     0          0         -1      )
                  (     0         -1          0      )
                  (    -1          0          0      )

 cart.    s(10) = (  0.0000000  0.0000000 -1.0000000 )
                  (  0.0000000 -1.0000000  0.0000000 )
                  ( -1.0000000  0.0000000  0.0000000 )


      isym = 11      90 deg rotation - cart. axis [0,1,0]        

 cryst.   s(11) = (     0          0         -1      )
                  (     0          1          0      )
                  (     1          0          0      )

 cart.    s(11) = (  0.0000000  0.0000000  1.0000000 )
                  (  0.0000000  1.0000000  0.0000000 )
                  ( -1.0000000  0.0000000  0.0000000 )


      isym = 12      90 deg rotation - cart. axis [0,-1,0]       

 cryst.   s(12) = (     0          0          1      )
                  (     0          1          0      )
                  (    -1          0          0      )

 cart.    s(12) = (  0.0000000  0.0000000 -1.0000000 )
                  (  0.0000000  1.0000000  0.0000000 )
                  (  1.0000000  0.0000000  0.0000000 )


      isym = 13     180 deg rotation - cart. axis [0,1,1]        

 cryst.   s(13) = (    -1          0          0      )
                  (     0          0          1      )
                  (     0          1          0      )

 cart.    s(13) = ( -1.0000000  0.0000000  0.0000000 )
                  (  0.0000000  0.0000000  1.0000000 )
                  (  0.0000000  1.0000000  0.0000000 )


      isym = 14     180 deg rotation - cart. axis [0,1,-1]       

 cryst.   s(14) = (    -1          0          0      )
                  (     0          0         -1      )
                  (     0         -1          0      )

 cart.    s(14) = ( -1.0000000  0.0000000  0.0000000 )
                  (  0.0000000  0.0000000 -1.0000000 )
                  (  0.0000000 -1.0000000  0.0000000 )


      isym = 15      90 deg rotation - cart. axis [-1,0,0]       

 cryst.   s(15) = (     1          0          0      )
                  (     0          0         -1      )
                  (     0          1          0      )

 cart.    s(15) = (  1.0000000  0.0000000  0.0000000 )
                  (  0.0000000  0.0000000  1.0000000 )
                  (  0.0000000 -1.0000000  0.0000000 )


      isym = 16      90 deg rotation - cart. axis [1,0,0]        

 cryst.   s(16) = (     1          0          0      )
                  (     0          0          1      )
                  (     0         -1          0      )

 cart.    s(16) = (  1.0000000  0.0000000  0.0000000 )
                  (  0.0000000  0.0000000 -1.0000000 )
                  (  0.0000000  1.0000000  0.0000000 )


      isym = 17     120 deg rotation - cart. axis [-1,-1,-1]     

 cryst.   s(17) = (     0          0          1      )
                  (     1          0          0      )
                  (     0          1          0      )

 cart.    s(17) = (  0.0000000  1.0000000  0.0000000 )
                  (  0.0000000  0.0000000  1.0000000 )
                  (  1.0000000  0.0000000  0.0000000 )


      isym = 18     120 deg rotation - cart. axis [-1,1,1]       

 cryst.   s(18) = (     0          0         -1      )
                  (    -1          0          0      )
                  (     0          1          0      )

 cart.    s(18) = (  0.0000000 -1.0000000  0.0000000 )
                  (  0.0000000  0.0000000  1.0000000 )
                  ( -1.0000000  0.0000000  0.0000000 )


      isym = 19     120 deg rotation - cart. axis [1,1,-1]       

 cryst.   s(19) = (     0          0         -1      )
                  (     1          0          0      )
                  (     0         -1          0      )

 cart.    s(19) = (  0.0000000  1.0000000  0.0000000 )
                  (  0.0000000  0.0000000 -1.0000000 )
                  ( -1.0000000  0.0000000  0.0000000 )


      isym = 20     120 deg rotation - cart. axis [1,-1,1]       

 cryst.   s(20) = (     0          0          1      )
                  (    -1          0          0      )
                  (     0         -1          0      )

 cart.    s(20) = (  0.0000000 -1.0000000  0.0000000 )
                  (  0.0000000  0.0000000 -1.0000000 )
                  (  1.0000000  0.0000000  0.0000000 )


      isym = 21     120 deg rotation - cart. axis [1,1,1]        

 cryst.   s(21) = (     0          1          0      )
                  (     0          0          1      )
                  (     1          0          0      )

 cart.    s(21) = (  0.0000000  0.0000000  1.0000000 )
                  (  1.0000000  0.0000000  0.0000000 )
                  (  0.0000000  1.0000000  0.0000000 )


      isym = 22     120 deg rotation - cart. axis [-1,1,-1]      

 cryst.   s(22) = (     0         -1          0      )
                  (     0          0         -1      )
                  (     1          0          0      )

 cart.    s(22) = (  0.0000000  0.0000000  1.0000000 )
                  ( -1.0000000  0.0000000  0.0000000 )
                  (  0.0000000 -1.0000000  0.0000000 )


      isym = 23     120 deg rotation - cart. axis [1,-1,-1]      

 cryst.   s(23) = (     0         -1          0      )
                  (     0          0          1      )
                  (    -1          0          0      )

 cart.    s(23) = (  0.0000000  0.0000000 -1.0000000 )
                  ( -1.0000000  0.0000000  0.0000000 )
                  (  0.0000000  1.0000000  0.0000000 )


      isym = 24     120 deg rotation - cart. axis [-1,-1,1]      

 cryst.   s(24) = (     0          1          0      )
                  (     0          0         -1      )
                  (    -1          0          0      )

 cart.    s(24) = (  0.0000000  0.0000000 -1.0000000 )
                  (  1.0000000  0.0000000  0.0000000 )
                  (  0.0000000 -1.0000000  0.0000000 )


      isym = 25     inversion                                    

 cryst.   s(25) = (    -1          0          0      )
                  (     0         -1          0      )
                  (     0          0         -1      )

 cart.    s(25) = ( -1.0000000  0.0000000  0.0000000 )
                  (  0.0000000 -1.0000000  0.0000000 )
                  (  0.0000000  0.0000000 -1.0000000 )


      isym = 26     inv. 180 deg rotation - cart. axis [0,0,1]   

 cryst.   s(26) = (     1          0          0      )
                  (     0          1          0      )
                  (     0          0         -1      )

 cart.    s(26) = (  1.0000000  0.0000000  0.0000000 )
                  (  0.0000000  1.0000000  0.0000000 )
                  (  0.0000000  0.0000000 -1.0000000 )


      isym = 27     inv. 180 deg rotation - cart. axis [0,1,0]   

 cryst.   s(27) = (     1          0          0      )
                  (     0         -1          0      )
                  (     0          0          1      )

 cart.    s(27) = (  1.0000000  0.0000000  0.0000000 )
                  (  0.0000000 -1.0000000  0.0000000 )
                  (  0.0000000  0.0000000  1.0000000 )


      isym = 28     inv. 180 deg rotation - cart. axis [1,0,0]   

 cryst.   s(28) = (    -1          0          0      )
                  (     0          1          0      )
                  (     0          0          1      )

 cart.    s(28) = ( -1.0000000  0.0000000  0.0000000 )
                  (  0.0000000  1.0000000  0.0000000 )
                  (  0.0000000  0.0000000  1.0000000 )


      isym = 29     inv. 180 deg rotation - cart. axis [1,1,0]   

 cryst.   s(29) = (     0         -1          0      )
                  (    -1          0          0      )
                  (     0          0          1      )

 cart.    s(29) = (  0.0000000 -1.0000000  0.0000000 )
                  ( -1.0000000  0.0000000  0.0000000 )
                  (  0.0000000  0.0000000  1.0000000 )


      isym = 30     inv. 180 deg rotation - cart. axis [1,-1,0]  

 cryst.   s(30) = (     0          1          0      )
                  (     1          0          0      )
                  (     0          0          1      )

 cart.    s(30) = (  0.0000000  1.0000000  0.0000000 )
                  (  1.0000000  0.0000000  0.0000000 )
                  (  0.0000000  0.0000000  1.0000000 )


      isym = 31     inv.  90 deg rotation - cart. axis [0,0,-1]  

 cryst.   s(31) = (     0          1          0      )
                  (    -1          0          0      )
                  (     0          0         -1      )

 cart.    s(31) = (  0.0000000 -1.0000000  0.0000000 )
                  (  1.0000000  0.0000000  0.0000000 )
                  (  0.0000000  0.0000000 -1.0000000 )


      isym = 32     inv.  90 deg rotation - cart. axis [0,0,1]   

 cryst.   s(32) = (     0         -1          0      )
                  (     1          0          0      )
                  (     0          0         -1      )

 cart.    s(32) = (  0.0000000  1.0000000  0.0000000 )
                  ( -1.0000000  0.0000000  0.0000000 )
                  (  0.0000000  0.0000000 -1.0000000 )


      isym = 33     inv. 180 deg rotation - cart. axis [1,0,1]   

 cryst.   s(33) = (     0          0         -1      )
                  (     0          1          0      )
                  (    -1          0          0      )

 cart.    s(33) = (  0.0000000  0.0000000 -1.0000000 )
                  (  0.0000000  1.0000000  0.0000000 )
                  ( -1.0000000  0.0000000  0.0000000 )


      isym = 34     inv. 180 deg rotation - cart. axis [-1,0,1]  

 cryst.   s(34) = (     0          0          1      )
                  (     0          1          0      )
                  (     1          0          0      )

 cart.    s(34) = (  0.0000000  0.0000000  1.0000000 )
                  (  0.0000000  1.0000000  0.0000000 )
                  (  1.0000000  0.0000000  0.0000000 )


      isym = 35     inv.  90 deg rotation - cart. axis [0,1,0]   

 cryst.   s(35) = (     0          0          1      )
                  (     0         -1          0      )
                  (    -1          0          0      )

 cart.    s(35) = (  0.0000000  0.0000000 -1.0000000 )
                  (  0.0000000 -1.0000000  0.0000000 )
                  (  1.0000000  0.0000000  0.0000000 )


      isym = 36     inv.  90 deg rotation - cart. axis [0,-1,0]  

 cryst.   s(36) = (     0          0         -1      )
                  (     0         -1          0      )
                  (     1          0          0      )

 cart.    s(36) = (  0.0000000  0.0000000  1.0000000 )
                  (  0.0000000 -1.0000000  0.0000000 )
                  ( -1.0000000  0.0000000  0.0000000 )


      isym = 37     inv. 180 deg rotation - cart. axis [0,1,1]   

 cryst.   s(37) = (     1          0          0      )
                  (     0          0         -1      )
                  (     0         -1          0      )

 cart.    s(37) = (  1.0000000  0.0000000  0.0000000 )
                  (  0.0000000  0.0000000 -1.0000000 )
                  (  0.0000000 -1.0000000  0.0000000 )


      isym = 38     inv. 180 deg rotation - cart. axis [0,1,-1]  

 cryst.   s(38) = (     1          0          0      )
                  (     0          0          1      )
                  (     0          1          0      )

 cart.    s(38) = (  1.0000000  0.0000000  0.0000000 )
                  (  0.0000000  0.0000000  1.0000000 )
                  (  0.0000000  1.0000000  0.0000000 )


      isym = 39     inv.  90 deg rotation - cart. axis [-1,0,0]  

 cryst.   s(39) = (    -1          0          0      )
                  (     0          0          1      )
                  (     0         -1          0      )

 cart.    s(39) = ( -1.0000000  0.0000000  0.0000000 )
                  (  0.0000000  0.0000000 -1.0000000 )
                  (  0.0000000  1.0000000  0.0000000 )


      isym = 40     inv.  90 deg rotation - cart. axis [1,0,0]   

 cryst.   s(40) = (    -1          0          0      )
                  (     0          0         -1      )
                  (     0          1          0      )

 cart.    s(40) = ( -1.0000000  0.0000000  0.0000000 )
                  (  0.0000000  0.0000000  1.0000000 )
                  (  0.0000000 -1.0000000  0.0000000 )


      isym = 41     inv. 120 deg rotation - cart. axis [-1,-1,-1]

 cryst.   s(41) = (     0          0         -1      )
                  (    -1          0          0      )
                  (     0         -1          0      )

 cart.    s(41) = (  0.0000000 -1.0000000  0.0000000 )
                  (  0.0000000  0.0000000 -1.0000000 )
                  ( -1.0000000  0.0000000  0.0000000 )


      isym = 42     inv. 120 deg rotation - cart. axis [-1,1,1]  

 cryst.   s(42) = (     0          0          1      )
                  (     1          0          0      )
                  (     0         -1          0      )

 cart.    s(42) = (  0.0000000  1.0000000  0.0000000 )
                  (  0.0000000  0.0000000 -1.0000000 )
                  (  1.0000000  0.0000000  0.0000000 )


      isym = 43     inv. 120 deg rotation - cart. axis [1,1,-1]  

 cryst.   s(43) = (     0          0          1      )
                  (    -1          0          0      )
                  (     0          1          0      )

 cart.    s(43) = (  0.0000000 -1.0000000  0.0000000 )
                  (  0.0000000  0.0000000  1.0000000 )
                  (  1.0000000  0.0000000  0.0000000 )


      isym = 44     inv. 120 deg rotation - cart. axis [1,-1,1]  

 cryst.   s(44) = (     0          0         -1      )
                  (     1          0          0      )
                  (     0          1          0      )

 cart.    s(44) = (  0.0000000  1.0000000  0.0000000 )
                  (  0.0000000  0.0000000  1.0000000 )
                  ( -1.0000000  0.0000000  0.0000000 )


      isym = 45     inv. 120 deg rotation - cart. axis [1,1,1]   

 cryst.   s(45) = (     0         -1          0      )
                  (     0          0         -1      )
                  (    -1          0          0      )

 cart.    s(45) = (  0.0000000  0.0000000 -1.0000000 )
                  ( -1.0000000  0.0000000  0.0000000 )
                  (  0.0000000 -1.0000000  0.0000000 )


      isym = 46     inv. 120 deg rotation - cart. axis [-1,1,-1] 

 cryst.   s(46) = (     0          1          0      )
                  (     0          0          1      )
                  (    -1          0          0      )

 cart.    s(46) = (  0.0000000  0.0000000 -1.0000000 )
                  (  1.0000000  0.0000000  0.0000000 )
                  (  0.0000000  1.0000000  0.0000000 )


      isym = 47     inv. 120 deg rotation - cart. axis [1,-1,-1] 

 cryst.   s(47) = (     0          1          0      )
                  (     0          0         -1      )
                  (     1          0          0      )

 cart.    s(47) = (  0.0000000  0.0000000  1.0000000 )
                  (  1.0000000  0.0000000  0.0000000 )
                  (  0.0000000 -1.0000000  0.0000000 )


      isym = 48     inv. 120 deg rotation - cart. axis [-1,-1,1] 

 cryst.   s(48) = (     0         -1          0      )
                  (     0          0          1      )
                  (     1          0          0      )

 cart.    s(48) = (  0.0000000  0.0000000  1.0000000 )
                  ( -1.0000000  0.0000000  0.0000000 )
                  (  0.0000000  1.0000000  0.0000000 )


   Cartesian axes

     site n.     atom                  positions (alat units)
         1           Cr  tau(   1) = (   0.5000000   0.0000000   0.0000000  )
         2           Cr  tau(   2) = (   0.0000000   0.5000000   0.0000000  )
         3           Cr  tau(   3) = (   0.0000000   0.0000000   0.5000000  )
         4           Ga  tau(   4) = (   0.5000000   0.5000000   0.5000000  )
         5           N   tau(   5) = (   0.0000000   0.0000000   0.0000000  )

   Crystallographic axes

     site n.     atom                  positions (cryst. coord.)
         1           Cr  tau(   1) = (  0.5000000  0.0000000  0.0000000  )
         2           Cr  tau(   2) = (  0.0000000  0.5000000  0.0000000  )
         3           Cr  tau(   3) = (  0.0000000  0.0000000  0.5000000  )
         4           Ga  tau(   4) = (  0.5000000  0.5000000  0.5000000  )
         5           N   tau(   5) = (  0.0000000  0.0000000  0.0000000  )

     number of k points=    56  Marzari-Vanderbilt smearing, width (Ry)=  0.0100
                       cart. coord. in units 2pi/alat
        k(    1) = (   0.0000000   0.0000000   0.0000000), wk =   0.0007513
        k(    2) = (   0.0000000   0.0000000   0.0909091), wk =   0.0045079
        k(    3) = (   0.0000000   0.0000000   0.1818182), wk =   0.0045079
        k(    4) = (   0.0000000   0.0000000   0.2727273), wk =   0.0045079
        k(    5) = (   0.0000000   0.0000000   0.3636364), wk =   0.0045079
        k(    6) = (   0.0000000   0.0000000   0.4545455), wk =   0.0045079
        k(    7) = (   0.0000000   0.0909091   0.0909091), wk =   0.0090158
        k(    8) = (   0.0000000   0.0909091   0.1818182), wk =   0.0180316
        k(    9) = (   0.0000000   0.0909091   0.2727273), wk =   0.0180316
        k(   10) = (   0.0000000   0.0909091   0.3636364), wk =   0.0180316
        k(   11) = (   0.0000000   0.0909091   0.4545455), wk =   0.0180316
        k(   12) = (   0.0000000   0.1818182   0.1818182), wk =   0.0090158
        k(   13) = (   0.0000000   0.1818182   0.2727273), wk =   0.0180316
        k(   14) = (   0.0000000   0.1818182   0.3636364), wk =   0.0180316
        k(   15) = (   0.0000000   0.1818182   0.4545455), wk =   0.0180316
        k(   16) = (   0.0000000   0.2727273   0.2727273), wk =   0.0090158
        k(   17) = (   0.0000000   0.2727273   0.3636364), wk =   0.0180316
        k(   18) = (   0.0000000   0.2727273   0.4545455), wk =   0.0180316
        k(   19) = (   0.0000000   0.3636364   0.3636364), wk =   0.0090158
        k(   20) = (   0.0000000   0.3636364   0.4545455), wk =   0.0180316
        k(   21) = (   0.0000000   0.4545455   0.4545455), wk =   0.0090158
        k(   22) = (   0.0909091   0.0909091   0.0909091), wk =   0.0060105
        k(   23) = (   0.0909091   0.0909091   0.1818182), wk =   0.0180316
        k(   24) = (   0.0909091   0.0909091   0.2727273), wk =   0.0180316
        k(   25) = (   0.0909091   0.0909091   0.3636364), wk =   0.0180316
        k(   26) = (   0.0909091   0.0909091   0.4545455), wk =   0.0180316
        k(   27) = (   0.0909091   0.1818182   0.1818182), wk =   0.0180316
        k(   28) = (   0.0909091   0.1818182   0.2727273), wk =   0.0360631
        k(   29) = (   0.0909091   0.1818182   0.3636364), wk =   0.0360631
        k(   30) = (   0.0909091   0.1818182   0.4545455), wk =   0.0360631
        k(   31) = (   0.0909091   0.2727273   0.2727273), wk =   0.0180316
        k(   32) = (   0.0909091   0.2727273   0.3636364), wk =   0.0360631
        k(   33) = (   0.0909091   0.2727273   0.4545455), wk =   0.0360631
        k(   34) = (   0.0909091   0.3636364   0.3636364), wk =   0.0180316
        k(   35) = (   0.0909091   0.3636364   0.4545455), wk =   0.0360631
        k(   36) = (   0.0909091   0.4545455   0.4545455), wk =   0.0180316
        k(   37) = (   0.1818182   0.1818182   0.1818182), wk =   0.0060105
        k(   38) = (   0.1818182   0.1818182   0.2727273), wk =   0.0180316
        k(   39) = (   0.1818182   0.1818182   0.3636364), wk =   0.0180316
        k(   40) = (   0.1818182   0.1818182   0.4545455), wk =   0.0180316
        k(   41) = (   0.1818182   0.2727273   0.2727273), wk =   0.0180316
        k(   42) = (   0.1818182   0.2727273   0.3636364), wk =   0.0360631
        k(   43) = (   0.1818182   0.2727273   0.4545455), wk =   0.0360631
        k(   44) = (   0.1818182   0.3636364   0.3636364), wk =   0.0180316
        k(   45) = (   0.1818182   0.3636364   0.4545455), wk =   0.0360631
        k(   46) = (   0.1818182   0.4545455   0.4545455), wk =   0.0180316
        k(   47) = (   0.2727273   0.2727273   0.2727273), wk =   0.0060105
        k(   48) = (   0.2727273   0.2727273   0.3636364), wk =   0.0180316
        k(   49) = (   0.2727273   0.2727273   0.4545455), wk =   0.0180316
        k(   50) = (   0.2727273   0.3636364   0.3636364), wk =   0.0180316
        k(   51) = (   0.2727273   0.3636364   0.4545455), wk =   0.0360631
        k(   52) = (   0.2727273   0.4545455   0.4545455), wk =   0.0180316
        k(   53) = (   0.3636364   0.3636364   0.3636364), wk =   0.0060105
        k(   54) = (   0.3636364   0.3636364   0.4545455), wk =   0.0180316
        k(   55) = (   0.3636364   0.4545455   0.4545455), wk =   0.0180316
        k(   56) = (   0.4545455   0.4545455   0.4545455), wk =   0.0060105

                       cryst. coord.
        k(    1) = (   0.0000000   0.0000000   0.0000000), wk =   0.0007513
        k(    2) = (   0.0000000   0.0000000   0.0909091), wk =   0.0045079
        k(    3) = (   0.0000000   0.0000000   0.1818182), wk =   0.0045079
        k(    4) = (   0.0000000   0.0000000   0.2727273), wk =   0.0045079
        k(    5) = (   0.0000000   0.0000000   0.3636364), wk =   0.0045079
        k(    6) = (   0.0000000   0.0000000   0.4545455), wk =   0.0045079
        k(    7) = (   0.0000000   0.0909091   0.0909091), wk =   0.0090158
        k(    8) = (   0.0000000   0.0909091   0.1818182), wk =   0.0180316
        k(    9) = (   0.0000000   0.0909091   0.2727273), wk =   0.0180316
        k(   10) = (   0.0000000   0.0909091   0.3636364), wk =   0.0180316
        k(   11) = (   0.0000000   0.0909091   0.4545455), wk =   0.0180316
        k(   12) = (   0.0000000   0.1818182   0.1818182), wk =   0.0090158
        k(   13) = (   0.0000000   0.1818182   0.2727273), wk =   0.0180316
        k(   14) = (   0.0000000   0.1818182   0.3636364), wk =   0.0180316
        k(   15) = (   0.0000000   0.1818182   0.4545455), wk =   0.0180316
        k(   16) = (   0.0000000   0.2727273   0.2727273), wk =   0.0090158
        k(   17) = (   0.0000000   0.2727273   0.3636364), wk =   0.0180316
        k(   18) = (   0.0000000   0.2727273   0.4545455), wk =   0.0180316
        k(   19) = (   0.0000000   0.3636364   0.3636364), wk =   0.0090158
        k(   20) = (   0.0000000   0.3636364   0.4545455), wk =   0.0180316
        k(   21) = (   0.0000000   0.4545455   0.4545455), wk =   0.0090158
        k(   22) = (   0.0909091   0.0909091   0.0909091), wk =   0.0060105
        k(   23) = (   0.0909091   0.0909091   0.1818182), wk =   0.0180316
        k(   24) = (   0.0909091   0.0909091   0.2727273), wk =   0.0180316
        k(   25) = (   0.0909091   0.0909091   0.3636364), wk =   0.0180316
        k(   26) = (   0.0909091   0.0909091   0.4545455), wk =   0.0180316
        k(   27) = (   0.0909091   0.1818182   0.1818182), wk =   0.0180316
        k(   28) = (   0.0909091   0.1818182   0.2727273), wk =   0.0360631
        k(   29) = (   0.0909091   0.1818182   0.3636364), wk =   0.0360631
        k(   30) = (   0.0909091   0.1818182   0.4545455), wk =   0.0360631
        k(   31) = (   0.0909091   0.2727273   0.2727273), wk =   0.0180316
        k(   32) = (   0.0909091   0.2727273   0.3636364), wk =   0.0360631
        k(   33) = (   0.0909091   0.2727273   0.4545455), wk =   0.0360631
        k(   34) = (   0.0909091   0.3636364   0.3636364), wk =   0.0180316
        k(   35) = (   0.0909091   0.3636364   0.4545455), wk =   0.0360631
        k(   36) = (   0.0909091   0.4545455   0.4545455), wk =   0.0180316
        k(   37) = (   0.1818182   0.1818182   0.1818182), wk =   0.0060105
        k(   38) = (   0.1818182   0.1818182   0.2727273), wk =   0.0180316
        k(   39) = (   0.1818182   0.1818182   0.3636364), wk =   0.0180316
        k(   40) = (   0.1818182   0.1818182   0.4545455), wk =   0.0180316
        k(   41) = (   0.1818182   0.2727273   0.2727273), wk =   0.0180316
        k(   42) = (   0.1818182   0.2727273   0.3636364), wk =   0.0360631
        k(   43) = (   0.1818182   0.2727273   0.4545455), wk =   0.0360631
        k(   44) = (   0.1818182   0.3636364   0.3636364), wk =   0.0180316
        k(   45) = (   0.1818182   0.3636364   0.4545455), wk =   0.0360631
        k(   46) = (   0.1818182   0.4545455   0.4545455), wk =   0.0180316
        k(   47) = (   0.2727273   0.2727273   0.2727273), wk =   0.0060105
        k(   48) = (   0.2727273   0.2727273   0.3636364), wk =   0.0180316
        k(   49) = (   0.2727273   0.2727273   0.4545455), wk =   0.0180316
        k(   50) = (   0.2727273   0.3636364   0.3636364), wk =   0.0180316
        k(   51) = (   0.2727273   0.3636364   0.4545455), wk =   0.0360631
        k(   52) = (   0.2727273   0.4545455   0.4545455), wk =   0.0180316
        k(   53) = (   0.3636364   0.3636364   0.3636364), wk =   0.0060105
        k(   54) = (   0.3636364   0.3636364   0.4545455), wk =   0.0180316
        k(   55) = (   0.3636364   0.4545455   0.4545455), wk =   0.0180316
        k(   56) = (   0.4545455   0.4545455   0.4545455), wk =   0.0060105

     Dense  grid:    88183 G-vectors     FFT dimensions: (  60,  60,  60)

     Smooth grid:    31103 G-vectors     FFT dimensions: (  40,  40,  40)

     Dynamical RAM for                 wfc:       2.13 MB

     Dynamical RAM for     wfc (w. buffer):     241.21 MB

     Dynamical RAM for           str. fact:       4.04 MB

     Dynamical RAM for           local pot:       0.00 MB

     Dynamical RAM for          nlocal pot:       4.74 MB

     Dynamical RAM for                qrad:       5.70 MB

     Dynamical RAM for          rho,v,vnew:      17.96 MB

     Dynamical RAM for               rhoin:       5.99 MB

     Dynamical RAM for            rho*nmix:      43.06 MB

     Dynamical RAM for           G-vectors:       5.28 MB

     Dynamical RAM for          h,s,v(r/c):       0.24 MB

     Dynamical RAM for          <psi|beta>:       0.04 MB

     Dynamical RAM for                 psi:       4.27 MB

     Dynamical RAM for                hpsi:       4.27 MB

     Dynamical RAM for                spsi:       4.27 MB

     Dynamical RAM for      wfcinit/wfcrot:       5.14 MB

     Dynamical RAM for           addusdens:     255.66 MB

     Dynamical RAM for          addusforce:     261.06 MB

     Dynamical RAM for         addusstress:     272.48 MB

     Estimated static dynamical RAM per process >     300.19 MB

     Estimated max dynamical RAM per process >     615.73 MB

     Check: negative core charge=   -0.000009
     Generating pointlists ...
     new r_m :   0.2063 (alat units)  1.5107 (a.u.) for type    1
     new r_m :   0.2917 (alat units)  2.1364 (a.u.) for type    2
     new r_m :   0.2063 (alat units)  1.5107 (a.u.) for type    3

     Initial potential from superposition of free atoms

     starting charge      56.9972, renormalised to      60.0000

     negative rho (up, down):  1.115E-03 5.249E-04
     Starting wfcs are   43 randomized atomic wfcs
     Checking if some PAW data can be deallocated... 

     total cpu time spent up to now is        5.4 secs

     per-process dynamical memory:   992.3 Mb

     Self-consistent Calculation
[tb_dev] Currently allocated     1.75E+00 Mbytes, locked:    0 /  10
[tb_pin] Currently allocated     0.00E+00 Mbytes, locked:    0 /   0

     iteration #  1     ecut=    70.00 Ry     beta= 0.40
     Davidson diagonalization with overlap

---- Real-time Memory Report at c_bands before calling an iterative solver
          1206 MiB given to the printing process from OS
           969 MiB allocation reported by mallinfo(arena+hblkhd)
         57969 MiB available memory on the node where the printing process lives
     GPU memory used/free/total (MiB): 854 / 15426 / 16280
------------------
     ethr =  1.00E-02,  avg # of iterations =  2.9

     negative rho (up, down):  7.313E-04 3.203E-03

     total cpu time spent up to now is        8.9 secs

     total energy              =    -820.46201658 Ry
     estimated scf accuracy    <       3.96797885 Ry

     total magnetization       =     7.51 Bohr mag/cell
     absolute magnetization    =     7.74 Bohr mag/cell
[tb_dev] Currently allocated     2.71E+00 Mbytes, locked:    0 /  10
[tb_pin] Currently allocated     0.00E+00 Mbytes, locked:    0 /   0

     iteration #  2     ecut=    70.00 Ry     beta= 0.40
     Davidson diagonalization with overlap

---- Real-time Memory Report at c_bands before calling an iterative solver
          1309 MiB given to the printing process from OS
          1009 MiB allocation reported by mallinfo(arena+hblkhd)
         57934 MiB available memory on the node where the printing process lives
     GPU memory used/free/total (MiB): 1282 / 14998 / 16280
------------------
     ethr =  6.61E-03,  avg # of iterations =  2.9

     negative rho (up, down):  3.103E-04 4.647E-03

     total cpu time spent up to now is       12.4 secs

     total energy              =    -821.15937232 Ry
     estimated scf accuracy    <       0.62004213 Ry

     total magnetization       =     8.13 Bohr mag/cell
     absolute magnetization    =     8.77 Bohr mag/cell
[tb_dev] Currently allocated     2.71E+00 Mbytes, locked:    0 /  10
[tb_pin] Currently allocated     0.00E+00 Mbytes, locked:    0 /   0

     iteration #  3     ecut=    70.00 Ry     beta= 0.40
     Davidson diagonalization with overlap

---- Real-time Memory Report at c_bands before calling an iterative solver
          1382 MiB given to the printing process from OS
          1012 MiB allocation reported by mallinfo(arena+hblkhd)
         57928 MiB available memory on the node where the printing process lives
     GPU memory used/free/total (MiB): 1282 / 14998 / 16280
------------------
     ethr =  1.03E-03,  avg # of iterations =  3.0

     negative rho (up, down):  0.000E+00 6.386E-03

     total cpu time spent up to now is       15.7 secs

     total energy              =    -821.31254483 Ry
     estimated scf accuracy    <       0.12662238 Ry

     total magnetization       =     7.48 Bohr mag/cell
     absolute magnetization    =     8.08 Bohr mag/cell
[tb_dev] Currently allocated     2.71E+00 Mbytes, locked:    0 /  10
[tb_pin] Currently allocated     0.00E+00 Mbytes, locked:    0 /   0

     iteration #  4     ecut=    70.00 Ry     beta= 0.40
     Davidson diagonalization with overlap

---- Real-time Memory Report at c_bands before calling an iterative solver
          1452 MiB given to the printing process from OS
          1016 MiB allocation reported by mallinfo(arena+hblkhd)
         57924 MiB available memory on the node where the printing process lives
     GPU memory used/free/total (MiB): 1282 / 14998 / 16280
------------------
     ethr =  2.11E-04,  avg # of iterations =  6.9

     negative rho (up, down):  0.000E+00 6.303E-03

     total cpu time spent up to now is       21.4 secs

     total energy              =    -821.38076510 Ry
     estimated scf accuracy    <       0.08961454 Ry

     total magnetization       =     6.69 Bohr mag/cell
     absolute magnetization    =     7.29 Bohr mag/cell
[tb_dev] Currently allocated     2.71E+00 Mbytes, locked:    0 /  10
[tb_pin] Currently allocated     0.00E+00 Mbytes, locked:    0 /   0

     iteration #  5     ecut=    70.00 Ry     beta= 0.40
     Davidson diagonalization with overlap

---- Real-time Memory Report at c_bands before calling an iterative solver
          1524 MiB given to the printing process from OS
          1019 MiB allocation reported by mallinfo(arena+hblkhd)
         57918 MiB available memory on the node where the printing process lives
     GPU memory used/free/total (MiB): 1282 / 14998 / 16280
------------------
     ethr =  1.49E-04,  avg # of iterations =  1.4

     negative rho (up, down):  0.000E+00 6.177E-03

     total cpu time spent up to now is       24.1 secs

     total energy              =    -821.39498447 Ry
     estimated scf accuracy    <       0.07135589 Ry

     total magnetization       =     6.63 Bohr mag/cell
     absolute magnetization    =     7.22 Bohr mag/cell
[tb_dev] Currently allocated     2.71E+00 Mbytes, locked:    0 /  10
[tb_pin] Currently allocated     0.00E+00 Mbytes, locked:    0 /   0

     iteration #  6     ecut=    70.00 Ry     beta= 0.40
     Davidson diagonalization with overlap

---- Real-time Memory Report at c_bands before calling an iterative solver
          1595 MiB given to the printing process from OS
          1024 MiB allocation reported by mallinfo(arena+hblkhd)
         57912 MiB available memory on the node where the printing process lives
     GPU memory used/free/total (MiB): 1282 / 14998 / 16280
------------------
     ethr =  1.19E-04,  avg # of iterations =  4.9

     negative rho (up, down):  0.000E+00 6.208E-03

     total cpu time spent up to now is       28.3 secs

     total energy              =    -821.41559330 Ry
     estimated scf accuracy    <       0.01555383 Ry

     total magnetization       =     5.80 Bohr mag/cell
     absolute magnetization    =     6.33 Bohr mag/cell
[tb_dev] Currently allocated     2.71E+00 Mbytes, locked:    0 /  10
[tb_pin] Currently allocated     0.00E+00 Mbytes, locked:    0 /   0

     iteration #  7     ecut=    70.00 Ry     beta= 0.40
     Davidson diagonalization with overlap

---- Real-time Memory Report at c_bands before calling an iterative solver
          1680 MiB given to the printing process from OS
          1031 MiB allocation reported by mallinfo(arena+hblkhd)
         57891 MiB available memory on the node where the printing process lives
     GPU memory used/free/total (MiB): 1282 / 14998 / 16280
------------------
     ethr =  2.59E-05,  avg # of iterations =  6.4

     negative rho (up, down):  0.000E+00 5.490E-03

     total cpu time spent up to now is       33.6 secs

     total energy              =    -821.41912028 Ry
     estimated scf accuracy    <       0.00505717 Ry

     total magnetization       =     5.56 Bohr mag/cell
     absolute magnetization    =     6.05 Bohr mag/cell
[tb_dev] Currently allocated     2.71E+00 Mbytes, locked:    0 /  10
[tb_pin] Currently allocated     0.00E+00 Mbytes, locked:    0 /   0

     iteration #  8     ecut=    70.00 Ry     beta= 0.40
     Davidson diagonalization with overlap

---- Real-time Memory Report at c_bands before calling an iterative solver
          1747 MiB given to the printing process from OS
          1033 MiB allocation reported by mallinfo(arena+hblkhd)
         57887 MiB available memory on the node where the printing process lives
     GPU memory used/free/total (MiB): 1282 / 14998 / 16280
------------------
     c_bands:  1 eigenvalues not converged
     c_bands:  1 eigenvalues not converged
     c_bands:  1 eigenvalues not converged
     ethr =  8.43E-06,  avg # of iterations =  7.7

     negative rho (up, down):  0.000E+00 5.217E-03

     total cpu time spent up to now is       39.7 secs

     total energy              =    -821.42007274 Ry
     estimated scf accuracy    <       0.01715278 Ry

     total magnetization       =     5.19 Bohr mag/cell
     absolute magnetization    =     5.61 Bohr mag/cell
[tb_dev] Currently allocated     2.71E+00 Mbytes, locked:    0 /  10
[tb_pin] Currently allocated     0.00E+00 Mbytes, locked:    0 /   0

     iteration #  9     ecut=    70.00 Ry     beta= 0.40
     Davidson diagonalization with overlap

---- Real-time Memory Report at c_bands before calling an iterative solver
          1769 MiB given to the printing process from OS
          1038 MiB allocation reported by mallinfo(arena+hblkhd)
         57885 MiB available memory on the node where the printing process lives
     GPU memory used/free/total (MiB): 1282 / 14998 / 16280
------------------
     ethr =  8.43E-06,  avg # of iterations =  5.8

     negative rho (up, down):  3.800E-05 4.996E-03

     total cpu time spent up to now is       44.7 secs

     total energy              =    -821.42330493 Ry
     estimated scf accuracy    <       0.00064089 Ry

     total magnetization       =     5.11 Bohr mag/cell
     absolute magnetization    =     5.51 Bohr mag/cell
[tb_dev] Currently allocated     2.71E+00 Mbytes, locked:    0 /  10
[tb_pin] Currently allocated     0.00E+00 Mbytes, locked:    0 /   0

     iteration # 10     ecut=    70.00 Ry     beta= 0.40
     Davidson diagonalization with overlap

---- Real-time Memory Report at c_bands before calling an iterative solver
          1795 MiB given to the printing process from OS
          1043 MiB allocation reported by mallinfo(arena+hblkhd)
         57884 MiB available memory on the node where the printing process lives
     GPU memory used/free/total (MiB): 1282 / 14998 / 16280
------------------
     ethr =  1.07E-06,  avg # of iterations =  4.5

     negative rho (up, down):  5.286E-05 4.902E-03

     total cpu time spent up to now is       48.9 secs

     total energy              =    -821.42357304 Ry
     estimated scf accuracy    <       0.00057992 Ry

     total magnetization       =     4.95 Bohr mag/cell
     absolute magnetization    =     5.33 Bohr mag/cell
[tb_dev] Currently allocated     2.71E+00 Mbytes, locked:    0 /  10
[tb_pin] Currently allocated     0.00E+00 Mbytes, locked:    0 /   0

     iteration # 11     ecut=    70.00 Ry     beta= 0.40
     Davidson diagonalization with overlap

---- Real-time Memory Report at c_bands before calling an iterative solver
          1818 MiB given to the printing process from OS
          1047 MiB allocation reported by mallinfo(arena+hblkhd)
         57879 MiB available memory on the node where the printing process lives
     GPU memory used/free/total (MiB): 1282 / 14998 / 16280
------------------
     ethr =  9.67E-07,  avg # of iterations =  1.4

     negative rho (up, down):  4.082E-05 4.982E-03

     total cpu time spent up to now is       51.6 secs

     total energy              =    -821.42342013 Ry
     estimated scf accuracy    <       0.00036459 Ry

     total magnetization       =     4.87 Bohr mag/cell
     absolute magnetization    =     5.24 Bohr mag/cell
[tb_dev] Currently allocated     2.71E+00 Mbytes, locked:    0 /  10
[tb_pin] Currently allocated     0.00E+00 Mbytes, locked:    0 /   0

     iteration # 12     ecut=    70.00 Ry     beta= 0.40
     Davidson diagonalization with overlap

---- Real-time Memory Report at c_bands before calling an iterative solver
          1840 MiB given to the printing process from OS
          1049 MiB allocation reported by mallinfo(arena+hblkhd)
         57878 MiB available memory on the node where the printing process lives
     GPU memory used/free/total (MiB): 1282 / 14998 / 16280
------------------
     ethr =  6.08E-07,  avg # of iterations =  1.6

     negative rho (up, down):  1.228E-04 4.457E-03

     total cpu time spent up to now is       54.3 secs

     total energy              =    -821.42255502 Ry
     estimated scf accuracy    <       0.00041814 Ry

     total magnetization       =     4.96 Bohr mag/cell
     absolute magnetization    =     5.33 Bohr mag/cell
[tb_dev] Currently allocated     2.71E+00 Mbytes, locked:    0 /  10
[tb_pin] Currently allocated     0.00E+00 Mbytes, locked:    0 /   0

     iteration # 13     ecut=    70.00 Ry     beta= 0.40
     Davidson diagonalization with overlap

---- Real-time Memory Report at c_bands before calling an iterative solver
          1862 MiB given to the printing process from OS
          1051 MiB allocation reported by mallinfo(arena+hblkhd)
         57875 MiB available memory on the node where the printing process lives
     GPU memory used/free/total (MiB): 1282 / 14998 / 16280
------------------
     ethr =  6.08E-07,  avg # of iterations =  7.2

     negative rho (up, down):  1.440E-04 4.313E-03

     total cpu time spent up to now is       60.3 secs

     total energy              =    -821.42455795 Ry
     estimated scf accuracy    <       0.00116719 Ry

     total magnetization       =     4.36 Bohr mag/cell
     absolute magnetization    =     4.71 Bohr mag/cell
[tb_dev] Currently allocated     2.71E+00 Mbytes, locked:    0 /  10
[tb_pin] Currently allocated     0.00E+00 Mbytes, locked:    0 /   0

     iteration # 14     ecut=    70.00 Ry     beta= 0.40
     Davidson diagonalization with overlap

---- Real-time Memory Report at c_bands before calling an iterative solver
          1883 MiB given to the printing process from OS
          1053 MiB allocation reported by mallinfo(arena+hblkhd)
         57872 MiB available memory on the node where the printing process lives
     GPU memory used/free/total (MiB): 1282 / 14998 / 16280
------------------
     ethr =  6.08E-07,  avg # of iterations =  4.0

     negative rho (up, down):  1.060E-04 4.568E-03

     total cpu time spent up to now is       64.2 secs

     total energy              =    -821.42339619 Ry
     estimated scf accuracy    <       0.00056457 Ry

     total magnetization       =     4.13 Bohr mag/cell
     absolute magnetization    =     4.48 Bohr mag/cell
[tb_dev] Currently allocated     2.71E+00 Mbytes, locked:    0 /  10
[tb_pin] Currently allocated     0.00E+00 Mbytes, locked:    0 /   0

     iteration # 15     ecut=    70.00 Ry     beta= 0.40
     Davidson diagonalization with overlap

---- Real-time Memory Report at c_bands before calling an iterative solver
          1905 MiB given to the printing process from OS
          1054 MiB allocation reported by mallinfo(arena+hblkhd)
         57874 MiB available memory on the node where the printing process lives
     GPU memory used/free/total (MiB): 1282 / 14998 / 16280
------------------
     ethr =  6.08E-07,  avg # of iterations =  4.6

     negative rho (up, down):  0.000E+00 5.360E-03

     total cpu time spent up to now is       68.4 secs

     total energy              =    -821.41820412 Ry
     estimated scf accuracy    <       0.00160840 Ry

     total magnetization       =     4.59 Bohr mag/cell
     absolute magnetization    =     4.94 Bohr mag/cell
[tb_dev] Currently allocated     2.71E+00 Mbytes, locked:    0 /  10
[tb_pin] Currently allocated     0.00E+00 Mbytes, locked:    0 /   0

     iteration # 16     ecut=    70.00 Ry     beta= 0.40
     Davidson diagonalization with overlap

---- Real-time Memory Report at c_bands before calling an iterative solver
          1928 MiB given to the printing process from OS
          1056 MiB allocation reported by mallinfo(arena+hblkhd)
         57868 MiB available memory on the node where the printing process lives
     GPU memory used/free/total (MiB): 1282 / 14998 / 16280
------------------
     ethr =  6.08E-07,  avg # of iterations =  5.5

     negative rho (up, down):  3.116E-05 5.053E-03

     total cpu time spent up to now is       73.5 secs

     total energy              =    -821.42277992 Ry
     estimated scf accuracy    <       0.00189405 Ry

     total magnetization       =     5.34 Bohr mag/cell
     absolute magnetization    =     5.73 Bohr mag/cell
[tb_dev] Currently allocated     2.71E+00 Mbytes, locked:    0 /  10
[tb_pin] Currently allocated     0.00E+00 Mbytes, locked:    0 /   0

     iteration # 17     ecut=    70.00 Ry     beta= 0.40
     Davidson diagonalization with overlap

---- Real-time Memory Report at c_bands before calling an iterative solver
          1950 MiB given to the printing process from OS
          1058 MiB allocation reported by mallinfo(arena+hblkhd)
         57869 MiB available memory on the node where the printing process lives
     GPU memory used/free/total (MiB): 1282 / 14998 / 16280
------------------
     ethr =  6.08E-07,  avg # of iterations =  3.2

     negative rho (up, down):  2.639E-05 5.083E-03

     total cpu time spent up to now is       77.0 secs

     total energy              =    -821.42311290 Ry
     estimated scf accuracy    <       0.00087010 Ry

     total magnetization       =     5.11 Bohr mag/cell
     absolute magnetization    =     5.49 Bohr mag/cell
[tb_dev] Currently allocated     2.71E+00 Mbytes, locked:    0 /  10
[tb_pin] Currently allocated     0.00E+00 Mbytes, locked:    0 /   0

     iteration # 18     ecut=    70.00 Ry     beta= 0.40
     Davidson diagonalization with overlap

---- Real-time Memory Report at c_bands before calling an iterative solver
          1961 MiB given to the printing process from OS
          1060 MiB allocation reported by mallinfo(arena+hblkhd)
         57868 MiB available memory on the node where the printing process lives
     GPU memory used/free/total (MiB): 1282 / 14998 / 16280
------------------
     ethr =  6.08E-07,  avg # of iterations =  2.3

     negative rho (up, down):  1.649E-04 4.209E-03

     total cpu time spent up to now is       80.0 secs

     total energy              =    -821.41965895 Ry
     estimated scf accuracy    <       0.00070419 Ry

     total magnetization       =     5.14 Bohr mag/cell
     absolute magnetization    =     5.51 Bohr mag/cell
[tb_dev] Currently allocated     2.71E+00 Mbytes, locked:    0 /  10
[tb_pin] Currently allocated     0.00E+00 Mbytes, locked:    0 /   0

     iteration # 19     ecut=    70.00 Ry     beta= 0.40
     Davidson diagonalization with overlap

---- Real-time Memory Report at c_bands before calling an iterative solver
          1963 MiB given to the printing process from OS
          1062 MiB allocation reported by mallinfo(arena+hblkhd)
         57867 MiB available memory on the node where the printing process lives
     GPU memory used/free/total (MiB): 1282 / 14998 / 16280
------------------
     ethr =  6.08E-07,  avg # of iterations =  9.4

     negative rho (up, down):  1.839E-04 4.085E-03

     total cpu time spent up to now is       87.3 secs

     total energy              =    -821.42498933 Ry
     estimated scf accuracy    <       0.00135172 Ry

     total magnetization       =     4.13 Bohr mag/cell
     absolute magnetization    =     4.46 Bohr mag/cell
[tb_dev] Currently allocated     2.71E+00 Mbytes, locked:    0 /  10
[tb_pin] Currently allocated     0.00E+00 Mbytes, locked:    0 /   0

     iteration # 20     ecut=    70.00 Ry     beta= 0.40
     Davidson diagonalization with overlap

---- Real-time Memory Report at c_bands before calling an iterative solver
          1965 MiB given to the printing process from OS
          1064 MiB allocation reported by mallinfo(arena+hblkhd)
         57840 MiB available memory on the node where the printing process lives
     GPU memory used/free/total (MiB): 1282 / 14998 / 16280
------------------
     ethr =  6.08E-07,  avg # of iterations =  4.9

     negative rho (up, down):  2.256E-04 3.820E-03

     total cpu time spent up to now is       91.5 secs

     total energy              =    -821.42541985 Ry
     estimated scf accuracy    <       0.00067391 Ry

     total magnetization       =     3.96 Bohr mag/cell
     absolute magnetization    =     4.29 Bohr mag/cell
[tb_dev] Currently allocated     2.71E+00 Mbytes, locked:    0 /  10
[tb_pin] Currently allocated     0.00E+00 Mbytes, locked:    0 /   0

     iteration # 21     ecut=    70.00 Ry     beta= 0.40
     Davidson diagonalization with overlap

---- Real-time Memory Report at c_bands before calling an iterative solver
          1970 MiB given to the printing process from OS
          1065 MiB allocation reported by mallinfo(arena+hblkhd)
         57840 MiB available memory on the node where the printing process lives
     GPU memory used/free/total (MiB): 1282 / 14998 / 16280
------------------
     c_bands:  1 eigenvalues not converged
     ethr =  6.08E-07,  avg # of iterations =  4.0

     negative rho (up, down):  2.210E-04 3.850E-03

     total cpu time spent up to now is       95.5 secs

     total energy              =    -821.42597254 Ry
     estimated scf accuracy    <       0.00105579 Ry

     total magnetization       =     3.58 Bohr mag/cell
     absolute magnetization    =     3.89 Bohr mag/cell
[tb_dev] Currently allocated     2.71E+00 Mbytes, locked:    0 /  10
[tb_pin] Currently allocated     0.00E+00 Mbytes, locked:    0 /   0

     iteration # 22     ecut=    70.00 Ry     beta= 0.40
     Davidson diagonalization with overlap

---- Real-time Memory Report at c_bands before calling an iterative solver
          1970 MiB given to the printing process from OS
          1067 MiB allocation reported by mallinfo(arena+hblkhd)
         57842 MiB available memory on the node where the printing process lives
     GPU memory used/free/total (MiB): 1282 / 14998 / 16280
------------------
     ethr =  6.08E-07,  avg # of iterations =  5.3

     negative rho (up, down):  1.721E-04 4.161E-03

     total cpu time spent up to now is       99.7 secs

     total energy              =    -821.42423524 Ry
     estimated scf accuracy    <       0.00085280 Ry

     total magnetization       =     3.60 Bohr mag/cell
     absolute magnetization    =     3.92 Bohr mag/cell
[tb_dev] Currently allocated     2.71E+00 Mbytes, locked:    0 /  10
[tb_pin] Currently allocated     0.00E+00 Mbytes, locked:    0 /   0

     iteration # 23     ecut=    70.00 Ry     beta= 0.40
     Davidson diagonalization with overlap

---- Real-time Memory Report at c_bands before calling an iterative solver
          1974 MiB given to the printing process from OS
          1069 MiB allocation reported by mallinfo(arena+hblkhd)
         57843 MiB available memory on the node where the printing process lives
     GPU memory used/free/total (MiB): 1282 / 14998 / 16280
------------------
     ethr =  6.08E-07,  avg # of iterations =  3.1

     negative rho (up, down):  1.494E-04 4.304E-03

     total cpu time spent up to now is      103.1 secs

     total energy              =    -821.42448041 Ry
     estimated scf accuracy    <       0.00044020 Ry

     total magnetization       =     4.03 Bohr mag/cell
     absolute magnetization    =     4.35 Bohr mag/cell
[tb_dev] Currently allocated     2.71E+00 Mbytes, locked:    0 /  10
[tb_pin] Currently allocated     0.00E+00 Mbytes, locked:    0 /   0

     iteration # 24     ecut=    70.00 Ry     beta= 0.40
     Davidson diagonalization with overlap

---- Real-time Memory Report at c_bands before calling an iterative solver
          1976 MiB given to the printing process from OS
          1071 MiB allocation reported by mallinfo(arena+hblkhd)
         57844 MiB available memory on the node where the printing process lives
     GPU memory used/free/total (MiB): 1282 / 14998 / 16280
------------------
     ethr =  6.08E-07,  avg # of iterations =  2.2

     negative rho (up, down):  1.271E-04 4.443E-03

     total cpu time spent up to now is      106.1 secs

     total energy              =    -821.42419313 Ry
     estimated scf accuracy    <       0.00032043 Ry

     total magnetization       =     4.24 Bohr mag/cell
     absolute magnetization    =     4.56 Bohr mag/cell
[tb_dev] Currently allocated     2.71E+00 Mbytes, locked:    0 /  10
[tb_pin] Currently allocated     0.00E+00 Mbytes, locked:    0 /   0

     iteration # 25     ecut=    70.00 Ry     beta= 0.40
     Davidson diagonalization with overlap

---- Real-time Memory Report at c_bands before calling an iterative solver
          1978 MiB given to the printing process from OS
          1073 MiB allocation reported by mallinfo(arena+hblkhd)
         57843 MiB available memory on the node where the printing process lives
     GPU memory used/free/total (MiB): 1282 / 14998 / 16280
------------------
     ethr =  5.34E-07,  avg # of iterations =  2.8

     negative rho (up, down):  6.939E-05 4.807E-03

     total cpu time spent up to now is      109.4 secs

     total energy              =    -821.42269115 Ry
     estimated scf accuracy    <       0.00028757 Ry

     total magnetization       =     4.43 Bohr mag/cell
     absolute magnetization    =     4.76 Bohr mag/cell
[tb_dev] Currently allocated     2.71E+00 Mbytes, locked:    0 /  10
[tb_pin] Currently allocated     0.00E+00 Mbytes, locked:    0 /   0

     iteration # 26     ecut=    70.00 Ry     beta= 0.40
     Davidson diagonalization with overlap

---- Real-time Memory Report at c_bands before calling an iterative solver
          1981 MiB given to the printing process from OS
          1076 MiB allocation reported by mallinfo(arena+hblkhd)
         57839 MiB available memory on the node where the printing process lives
     GPU memory used/free/total (MiB): 1282 / 14998 / 16280
------------------
     ethr =  4.79E-07,  avg # of iterations =  5.0

     negative rho (up, down):  4.942E-05 4.934E-03

     total cpu time spent up to now is      113.9 secs

     total energy              =    -821.42337369 Ry
     estimated scf accuracy    <       0.00022402 Ry

     total magnetization       =     4.87 Bohr mag/cell
     absolute magnetization    =     5.21 Bohr mag/cell
[tb_dev] Currently allocated     2.71E+00 Mbytes, locked:    0 /  10
[tb_pin] Currently allocated     0.00E+00 Mbytes, locked:    0 /   0

     iteration # 27     ecut=    70.00 Ry     beta= 0.40
     Davidson diagonalization with overlap

---- Real-time Memory Report at c_bands before calling an iterative solver
          1983 MiB given to the printing process from OS
          1078 MiB allocation reported by mallinfo(arena+hblkhd)
         57839 MiB available memory on the node where the printing process lives
     GPU memory used/free/total (MiB): 1282 / 14998 / 16280
------------------
     ethr =  3.73E-07,  avg # of iterations =  3.4

     negative rho (up, down):  1.549E-05 5.148E-03

     total cpu time spent up to now is      117.4 secs

     total energy              =    -821.42271818 Ry
     estimated scf accuracy    <       0.00027292 Ry

     total magnetization       =     4.99 Bohr mag/cell
     absolute magnetization    =     5.34 Bohr mag/cell
[tb_dev] Currently allocated     2.71E+00 Mbytes, locked:    0 /  10
[tb_pin] Currently allocated     0.00E+00 Mbytes, locked:    0 /   0

     iteration # 28     ecut=    70.00 Ry     beta= 0.40
     Davidson diagonalization with overlap

---- Real-time Memory Report at c_bands before calling an iterative solver
          1986 MiB given to the printing process from OS
          1080 MiB allocation reported by mallinfo(arena+hblkhd)
         57836 MiB available memory on the node where the printing process lives
     GPU memory used/free/total (MiB): 1282 / 14998 / 16280
------------------
     ethr =  3.73E-07,  avg # of iterations =  4.0

     negative rho (up, down):  7.034E-05 4.801E-03

     total cpu time spent up to now is      121.5 secs

     total energy              =    -821.42307360 Ry
     estimated scf accuracy    <       0.00044443 Ry

     total magnetization       =     5.18 Bohr mag/cell
     absolute magnetization    =     5.54 Bohr mag/cell
[tb_dev] Currently allocated     2.71E+00 Mbytes, locked:    0 /  10
[tb_pin] Currently allocated     0.00E+00 Mbytes, locked:    0 /   0

     iteration # 29     ecut=    70.00 Ry     beta= 0.40
     Davidson diagonalization with overlap

---- Real-time Memory Report at c_bands before calling an iterative solver
          1987 MiB given to the printing process from OS
          1082 MiB allocation reported by mallinfo(arena+hblkhd)
         57834 MiB available memory on the node where the printing process lives
     GPU memory used/free/total (MiB): 1282 / 14998 / 16280
------------------
     ethr =  3.73E-07,  avg # of iterations =  3.3

     negative rho (up, down):  2.085E-04 3.922E-03

     total cpu time spent up to now is      125.2 secs

     total energy              =    -821.41978031 Ry
     estimated scf accuracy    <       0.00021545 Ry

     total magnetization       =     4.86 Bohr mag/cell
     absolute magnetization    =     5.21 Bohr mag/cell
[tb_dev] Currently allocated     2.71E+00 Mbytes, locked:    0 /  10
[tb_pin] Currently allocated     0.00E+00 Mbytes, locked:    0 /   0

     iteration # 30     ecut=    70.00 Ry     beta= 0.40
     Davidson diagonalization with overlap

---- Real-time Memory Report at c_bands before calling an iterative solver
          1989 MiB given to the printing process from OS
          1084 MiB allocation reported by mallinfo(arena+hblkhd)
         57834 MiB available memory on the node where the printing process lives
     GPU memory used/free/total (MiB): 1282 / 14998 / 16280
------------------
     ethr =  3.59E-07,  avg # of iterations =  7.3

     negative rho (up, down):  4.135E-04 2.626E-03

     total cpu time spent up to now is      131.1 secs

     total energy              =    -821.41801090 Ry
     estimated scf accuracy    <       0.00086404 Ry

     total magnetization       =     3.71 Bohr mag/cell
     absolute magnetization    =     4.03 Bohr mag/cell
[tb_dev] Currently allocated     2.71E+00 Mbytes, locked:    0 /  10
[tb_pin] Currently allocated     0.00E+00 Mbytes, locked:    0 /   0

     iteration # 31     ecut=    70.00 Ry     beta= 0.40
     Davidson diagonalization with overlap

---- Real-time Memory Report at c_bands before calling an iterative solver
          1991 MiB given to the printing process from OS
          1085 MiB allocation reported by mallinfo(arena+hblkhd)
         57830 MiB available memory on the node where the printing process lives
     GPU memory used/free/total (MiB): 1282 / 14998 / 16280
------------------
     c_bands:  1 eigenvalues not converged
     c_bands:  2 eigenvalues not converged
     c_bands:  1 eigenvalues not converged
     c_bands:  1 eigenvalues not converged
     ethr =  3.59E-07,  avg # of iterations =  9.2

     negative rho (up, down):  2.883E-04 3.418E-03

     total cpu time spent up to now is      138.1 secs

     total energy              =    -821.42342722 Ry
     estimated scf accuracy    <       0.00233332 Ry

     total magnetization       =     2.08 Bohr mag/cell
     absolute magnetization    =     2.33 Bohr mag/cell
[tb_dev] Currently allocated     2.71E+00 Mbytes, locked:    0 /  10
[tb_pin] Currently allocated     0.00E+00 Mbytes, locked:    0 /   0

     iteration # 32     ecut=    70.00 Ry     beta= 0.40
     Davidson diagonalization with overlap

---- Real-time Memory Report at c_bands before calling an iterative solver
          1993 MiB given to the printing process from OS
          1087 MiB allocation reported by mallinfo(arena+hblkhd)
         57833 MiB available memory on the node where the printing process lives
     GPU memory used/free/total (MiB): 1282 / 14998 / 16280
------------------
     ethr =  3.59E-07,  avg # of iterations =  6.5

     negative rho (up, down):  2.806E-04 3.466E-03

     total cpu time spent up to now is      143.6 secs

     total energy              =    -821.42769983 Ry
     estimated scf accuracy    <       0.00179909 Ry

     total magnetization       =     2.99 Bohr mag/cell
     absolute magnetization    =     3.28 Bohr mag/cell
[tb_dev] Currently allocated     2.71E+00 Mbytes, locked:    0 /  10
[tb_pin] Currently allocated     0.00E+00 Mbytes, locked:    0 /   0

     iteration # 33     ecut=    70.00 Ry     beta= 0.40
     Davidson diagonalization with overlap

---- Real-time Memory Report at c_bands before calling an iterative solver
          1994 MiB given to the printing process from OS
          1089 MiB allocation reported by mallinfo(arena+hblkhd)
         57832 MiB available memory on the node where the printing process lives
     GPU memory used/free/total (MiB): 1282 / 14998 / 16280
------------------
     ethr =  3.59E-07,  avg # of iterations =  1.2

     negative rho (up, down):  2.751E-04 3.500E-03

     total cpu time spent up to now is      146.2 secs

     total energy              =    -821.42752141 Ry
     estimated scf accuracy    <       0.00174589 Ry

     total magnetization       =     3.05 Bohr mag/cell
     absolute magnetization    =     3.35 Bohr mag/cell
[tb_dev] Currently allocated     2.71E+00 Mbytes, locked:    0 /  10
[tb_pin] Currently allocated     0.00E+00 Mbytes, locked:    0 /   0

     iteration # 34     ecut=    70.00 Ry     beta= 0.40
     Davidson diagonalization with overlap

---- Real-time Memory Report at c_bands before calling an iterative solver
          1999 MiB given to the printing process from OS
          1093 MiB allocation reported by mallinfo(arena+hblkhd)
         57826 MiB available memory on the node where the printing process lives
     GPU memory used/free/total (MiB): 1282 / 14998 / 16280
------------------
     ethr =  3.59E-07,  avg # of iterations =  1.5

     negative rho (up, down):  2.193E-04 3.851E-03

     total cpu time spent up to now is      148.9 secs

     total energy              =    -821.42486519 Ry
     estimated scf accuracy    <       0.00168313 Ry

     total magnetization       =     3.10 Bohr mag/cell
     absolute magnetization    =     3.40 Bohr mag/cell
[tb_dev] Currently allocated     2.71E+00 Mbytes, locked:    0 /  10
[tb_pin] Currently allocated     0.00E+00 Mbytes, locked:    0 /   0

     iteration # 35     ecut=    70.00 Ry     beta= 0.40
     Davidson diagonalization with overlap

---- Real-time Memory Report at c_bands before calling an iterative solver
          2002 MiB given to the printing process from OS
          1094 MiB allocation reported by mallinfo(arena+hblkhd)
         57826 MiB available memory on the node where the printing process lives
     GPU memory used/free/total (MiB): 1282 / 14998 / 16280
------------------
     ethr =  3.59E-07,  avg # of iterations =  4.7

     negative rho (up, down):  0.000E+00 9.702E-03

     total cpu time spent up to now is      153.2 secs

     total energy              =    -821.31127354 Ry
     estimated scf accuracy    <       0.00110663 Ry

     total magnetization       =     3.60 Bohr mag/cell
     absolute magnetization    =     3.91 Bohr mag/cell
[tb_dev] Currently allocated     2.71E+00 Mbytes, locked:    0 /  10
[tb_pin] Currently allocated     0.00E+00 Mbytes, locked:    0 /   0

     iteration # 36     ecut=    70.00 Ry     beta= 0.40
     Davidson diagonalization with overlap

---- Real-time Memory Report at c_bands before calling an iterative solver
          2003 MiB given to the printing process from OS
          1096 MiB allocation reported by mallinfo(arena+hblkhd)
         57823 MiB available memory on the node where the printing process lives
     GPU memory used/free/total (MiB): 1282 / 14998 / 16280
------------------
     c_bands:  1 eigenvalues not converged
     c_bands:  3 eigenvalues not converged
     c_bands:  2 eigenvalues not converged
     c_bands:  1 eigenvalues not converged
     c_bands:  1 eigenvalues not converged
     c_bands:  1 eigenvalues not converged
     c_bands:  1 eigenvalues not converged
     c_bands:  1 eigenvalues not converged
     c_bands:  1 eigenvalues not converged
     c_bands:  1 eigenvalues not converged
     ethr =  3.59E-07,  avg # of iterations = 13.7

     negative rho (up, down):  0.000E+00 1.092E-02

     total cpu time spent up to now is      163.3 secs

     total energy              =    -821.38428898 Ry
     estimated scf accuracy    <       0.03571393 Ry

     total magnetization       =     6.24 Bohr mag/cell
     absolute magnetization    =     6.86 Bohr mag/cell
[tb_dev] Currently allocated     2.71E+00 Mbytes, locked:    0 /  10
[tb_pin] Currently allocated     0.00E+00 Mbytes, locked:    0 /   0

     iteration # 37     ecut=    70.00 Ry     beta= 0.40
     Davidson diagonalization with overlap

---- Real-time Memory Report at c_bands before calling an iterative solver
          2005 MiB given to the printing process from OS
          1098 MiB allocation reported by mallinfo(arena+hblkhd)
         57821 MiB available memory on the node where the printing process lives
     GPU memory used/free/total (MiB): 1282 / 14998 / 16280
------------------
     c_bands:  1 eigenvalues not converged
     ethr =  3.59E-07,  avg # of iterations =  5.4

     negative rho (up, down):  0.000E+00 5.301E-03

     total cpu time spent up to now is      168.0 secs

     total energy              =    -821.39967962 Ry
     estimated scf accuracy    <       0.04779192 Ry

     total magnetization       =     6.43 Bohr mag/cell
     absolute magnetization    =     7.09 Bohr mag/cell
[tb_dev] Currently allocated     2.71E+00 Mbytes, locked:    0 /  10
[tb_pin] Currently allocated     0.00E+00 Mbytes, locked:    0 /   0

     iteration # 38     ecut=    70.00 Ry     beta= 0.40
     Davidson diagonalization with overlap

---- Real-time Memory Report at c_bands before calling an iterative solver
          2007 MiB given to the printing process from OS
          1100 MiB allocation reported by mallinfo(arena+hblkhd)
         57822 MiB available memory on the node where the printing process lives
     GPU memory used/free/total (MiB): 1282 / 14998 / 16280
------------------
     c_bands:  1 eigenvalues not converged
     c_bands:  2 eigenvalues not converged
     c_bands:  1 eigenvalues not converged
     c_bands:  1 eigenvalues not converged
     c_bands:  1 eigenvalues not converged
     c_bands:  1 eigenvalues not converged
     c_bands:  1 eigenvalues not converged
     c_bands:  1 eigenvalues not converged
     ethr =  3.59E-07,  avg # of iterations = 10.6

     negative rho (up, down):  2.226E-05 5.101E-03

     total cpu time spent up to now is      176.1 secs

     total energy              =    -821.42291539 Ry
     estimated scf accuracy    <       0.00068739 Ry

     total magnetization       =     5.28 Bohr mag/cell
     absolute magnetization    =     5.67 Bohr mag/cell
[tb_dev] Currently allocated     2.71E+00 Mbytes, locked:    0 /  10
[tb_pin] Currently allocated     0.00E+00 Mbytes, locked:    0 /   0

     iteration # 39     ecut=    70.00 Ry     beta= 0.40
     Davidson diagonalization with overlap

---- Real-time Memory Report at c_bands before calling an iterative solver
          2010 MiB given to the printing process from OS
          1102 MiB allocation reported by mallinfo(arena+hblkhd)
         57820 MiB available memory on the node where the printing process lives
     GPU memory used/free/total (MiB): 1282 / 14998 / 16280
------------------
     ethr =  3.59E-07,  avg # of iterations =  3.9

     negative rho (up, down):  7.193E-05 4.785E-03

     total cpu time spent up to now is      180.0 secs

     total energy              =    -821.42316017 Ry
     estimated scf accuracy    <       0.00032960 Ry

     total magnetization       =     5.13 Bohr mag/cell
     absolute magnetization    =     5.51 Bohr mag/cell
[tb_dev] Currently allocated     2.71E+00 Mbytes, locked:    0 /  10
[tb_pin] Currently allocated     0.00E+00 Mbytes, locked:    0 /   0

     iteration # 40     ecut=    70.00 Ry     beta= 0.40
     Davidson diagonalization with overlap

---- Real-time Memory Report at c_bands before calling an iterative solver
          2013 MiB given to the printing process from OS
          1105 MiB allocation reported by mallinfo(arena+hblkhd)
         57816 MiB available memory on the node where the printing process lives
     GPU memory used/free/total (MiB): 1282 / 14998 / 16280
------------------
     c_bands:  1 eigenvalues not converged
     ethr =  3.59E-07,  avg # of iterations =  4.9

     negative rho (up, down):  9.886E-05 4.613E-03

     total cpu time spent up to now is      184.5 secs

     total energy              =    -821.42383322 Ry
     estimated scf accuracy    <       0.00019372 Ry

     total magnetization       =     4.83 Bohr mag/cell
     absolute magnetization    =     5.18 Bohr mag/cell
[tb_dev] Currently allocated     2.71E+00 Mbytes, locked:    0 /  10
[tb_pin] Currently allocated     0.00E+00 Mbytes, locked:    0 /   0

     iteration # 41     ecut=    70.00 Ry     beta= 0.40
     Davidson diagonalization with overlap

---- Real-time Memory Report at c_bands before calling an iterative solver
          2015 MiB given to the printing process from OS
          1107 MiB allocation reported by mallinfo(arena+hblkhd)
         57813 MiB available memory on the node where the printing process lives
     GPU memory used/free/total (MiB): 1282 / 14998 / 16280
------------------
     ethr =  3.23E-07,  avg # of iterations =  3.9

     negative rho (up, down):  1.054E-04 4.572E-03

     total cpu time spent up to now is      188.4 secs

     total energy              =    -821.42410879 Ry
     estimated scf accuracy    <       0.00020183 Ry

     total magnetization       =     4.63 Bohr mag/cell
     absolute magnetization    =     4.97 Bohr mag/cell
[tb_dev] Currently allocated     2.71E+00 Mbytes, locked:    0 /  10
[tb_pin] Currently allocated     0.00E+00 Mbytes, locked:    0 /   0

     iteration # 42     ecut=    70.00 Ry     beta= 0.40
     Davidson diagonalization with overlap

---- Real-time Memory Report at c_bands before calling an iterative solver
          2018 MiB given to the printing process from OS
          1109 MiB allocation reported by mallinfo(arena+hblkhd)
         57810 MiB available memory on the node where the printing process lives
     GPU memory used/free/total (MiB): 1282 / 14998 / 16280
------------------
     ethr =  3.23E-07,  avg # of iterations =  1.2

     negative rho (up, down):  1.138E-04 4.519E-03

     total cpu time spent up to now is      191.0 secs

     total energy              =    -821.42419699 Ry
     estimated scf accuracy    <       0.00021683 Ry

     total magnetization       =     4.58 Bohr mag/cell
     absolute magnetization    =     4.92 Bohr mag/cell
[tb_dev] Currently allocated     2.71E+00 Mbytes, locked:    0 /  10
[tb_pin] Currently allocated     0.00E+00 Mbytes, locked:    0 /   0

     iteration # 43     ecut=    70.00 Ry     beta= 0.40
     Davidson diagonalization with overlap

---- Real-time Memory Report at c_bands before calling an iterative solver
          2019 MiB given to the printing process from OS
          1111 MiB allocation reported by mallinfo(arena+hblkhd)
         57808 MiB available memory on the node where the printing process lives
     GPU memory used/free/total (MiB): 1282 / 14998 / 16280
------------------
     ethr =  3.23E-07,  avg # of iterations =  1.5

     negative rho (up, down):  1.649E-04 4.196E-03

     total cpu time spent up to now is      193.7 secs

     total energy              =    -821.42406569 Ry
     estimated scf accuracy    <       0.00024662 Ry

     total magnetization       =     4.52 Bohr mag/cell
     absolute magnetization    =     4.85 Bohr mag/cell
[tb_dev] Currently allocated     2.71E+00 Mbytes, locked:    0 /  10
[tb_pin] Currently allocated     0.00E+00 Mbytes, locked:    0 /   0

     iteration # 44     ecut=    70.00 Ry     beta= 0.40
     Davidson diagonalization with overlap

---- Real-time Memory Report at c_bands before calling an iterative solver
          2021 MiB given to the printing process from OS
          1113 MiB allocation reported by mallinfo(arena+hblkhd)
[...]
     estimated scf accuracy    <       0.00069819 Ry

     total magnetization       =     5.28 Bohr mag/cell
     absolute magnetization    =     5.66 Bohr mag/cell
[tb_dev] Currently allocated     2.71E+00 Mbytes, locked:    0 /  10
[tb_pin] Currently allocated     0.00E+00 Mbytes, locked:    0 /   0

     iteration # 66     ecut=    70.00 Ry     beta= 0.40
     Davidson diagonalization with overlap

---- Real-time Memory Report at c_bands before calling an iterative solver
          2041 MiB given to the printing process from OS
          1117 MiB allocation reported by mallinfo(arena+hblkhd)
         57804 MiB available memory on the node where the printing process lives
     GPU memory used/free/total (MiB): 1282 / 14998 / 16280
------------------
     ethr =  3.23E-07,  avg # of iterations =  5.2

     negative rho (up, down):  1.823E-04 4.084E-03

     total cpu time spent up to now is      290.5 secs

     total energy              =    -821.42155426 Ry
     estimated scf accuracy    <       0.00019054 Ry

     total magnetization       =     4.83 Bohr mag/cell
     absolute magnetization    =     5.17 Bohr mag/cell
[tb_dev] Currently allocated     2.71E+00 Mbytes, locked:    0 /  10
[tb_pin] Currently allocated     0.00E+00 Mbytes, locked:    0 /   0

     iteration # 67     ecut=    70.00 Ry     beta= 0.40
     Davidson diagonalization with overlap

---- Real-time Memory Report at c_bands before calling an iterative solver
          2041 MiB given to the printing process from OS
          1121 MiB allocation reported by mallinfo(arena+hblkhd)
         57799 MiB available memory on the node where the printing process lives
     GPU memory used/free/total (MiB): 1282 / 14998 / 16280
------------------
     ethr =  3.18E-07,  avg # of iterations =  6.6

     negative rho (up, down):  1.734E-04 4.140E-03

     total cpu time spent up to now is      296.1 secs

     total energy              =    -821.42505096 Ry
     estimated scf accuracy    <       0.00060380 Ry

     total magnetization       =     3.93 Bohr mag/cell
     absolute magnetization    =     4.24 Bohr mag/cell
[tb_dev] Currently allocated     2.71E+00 Mbytes, locked:    0 /  10
[tb_pin] Currently allocated     0.00E+00 Mbytes, locked:    0 /   0

     iteration # 68     ecut=    70.00 Ry     beta= 0.40
     Davidson diagonalization with overlap

---- Real-time Memory Report at c_bands before calling an iterative solver
          2042 MiB given to the printing process from OS
          1126 MiB allocation reported by mallinfo(arena+hblkhd)
         57796 MiB available memory on the node where the printing process lives
     GPU memory used/free/total (MiB): 1282 / 14998 / 16280
------------------
     ethr =  3.18E-07,  avg # of iterations =  1.3

     negative rho (up, down):  2.330E-04 3.764E-03

     total cpu time spent up to now is      298.7 secs

     total energy              =    -821.42512722 Ry
     estimated scf accuracy    <       0.00054179 Ry

     total magnetization       =     4.01 Bohr mag/cell
     absolute magnetization    =     4.32 Bohr mag/cell
[tb_dev] Currently allocated     2.71E+00 Mbytes, locked:    0 /  10
[tb_pin] Currently allocated     0.00E+00 Mbytes, locked:    0 /   0

     iteration # 69     ecut=    70.00 Ry     beta= 0.40
     Davidson diagonalization with overlap

---- Real-time Memory Report at c_bands before calling an iterative solver
          2046 MiB given to the printing process from OS
          1128 MiB allocation reported by mallinfo(arena+hblkhd)
         57794 MiB available memory on the node where the printing process lives
     GPU memory used/free/total (MiB): 1282 / 14998 / 16280
------------------
     ethr =  3.18E-07,  avg # of iterations =  4.4

     negative rho (up, down):  1.281E-04 4.429E-03

     total cpu time spent up to now is      302.9 secs

     total energy              =    -821.42061641 Ry
     estimated scf accuracy    <       0.00106629 Ry

     total magnetization       =     3.47 Bohr mag/cell
     absolute magnetization    =     3.78 Bohr mag/cell
[tb_dev] Currently allocated     2.71E+00 Mbytes, locked:    0 /  10
[tb_pin] Currently allocated     0.00E+00 Mbytes, locked:    0 /   0

     iteration # 70     ecut=    70.00 Ry     beta= 0.40
     Davidson diagonalization with overlap

---- Real-time Memory Report at c_bands before calling an iterative solver
          2048 MiB given to the printing process from OS
          1132 MiB allocation reported by mallinfo(arena+hblkhd)
         57789 MiB available memory on the node where the printing process lives
     GPU memory used/free/total (MiB): 1282 / 14998 / 16280
------------------
     ethr =  3.18E-07,  avg # of iterations =  5.4

     negative rho (up, down):  1.237E-04 4.458E-03

     total cpu time spent up to now is      307.9 secs

     total energy              =    -821.42433203 Ry
     estimated scf accuracy    <       0.00027647 Ry

     total magnetization       =     4.40 Bohr mag/cell
     absolute magnetization    =     4.73 Bohr mag/cell
[tb_dev] Currently allocated     2.71E+00 Mbytes, locked:    0 /  10
[tb_pin] Currently allocated     0.00E+00 Mbytes, locked:    0 /   0

     iteration # 71     ecut=    70.00 Ry     beta= 0.40
     Davidson diagonalization with overlap

---- Real-time Memory Report at c_bands before calling an iterative solver
          2052 MiB given to the printing process from OS
          1134 MiB allocation reported by mallinfo(arena+hblkhd)
         57788 MiB available memory on the node where the printing process lives
     GPU memory used/free/total (MiB): 1282 / 14998 / 16280
------------------
     ethr =  3.18E-07,  avg # of iterations =  1.0

     negative rho (up, down):  2.763E-04 3.491E-03

     total cpu time spent up to now is      310.4 secs

     total energy              =    -821.41971944 Ry
     estimated scf accuracy    <       0.00024460 Ry

     total magnetization       =     4.44 Bohr mag/cell
     absolute magnetization    =     4.77 Bohr mag/cell
[tb_dev] Currently allocated     2.71E+00 Mbytes, locked:    0 /  10
[tb_pin] Currently allocated     0.00E+00 Mbytes, locked:    0 /   0

     iteration # 72     ecut=    70.00 Ry     beta= 0.40
     Davidson diagonalization with overlap

---- Real-time Memory Report at c_bands before calling an iterative solver
          2054 MiB given to the printing process from OS
          1136 MiB allocation reported by mallinfo(arena+hblkhd)
         57782 MiB available memory on the node where the printing process lives
     GPU memory used/free/total (MiB): 1282 / 14998 / 16280
------------------
     ethr =  3.18E-07,  avg # of iterations =  6.9

     negative rho (up, down):  1.467E-04 4.313E-03

     total cpu time spent up to now is      316.2 secs

     total energy              =    -821.41874179 Ry
     estimated scf accuracy    <       0.00151603 Ry

     total magnetization       =     3.09 Bohr mag/cell
     absolute magnetization    =     3.39 Bohr mag/cell
[tb_dev] Currently allocated     2.71E+00 Mbytes, locked:    0 /  10
[tb_pin] Currently allocated     0.00E+00 Mbytes, locked:    0 /   0

     iteration # 73     ecut=    70.00 Ry     beta= 0.40
     Davidson diagonalization with overlap

---- Real-time Memory Report at c_bands before calling an iterative solver
          2056 MiB given to the printing process from OS
          1138 MiB allocation reported by mallinfo(arena+hblkhd)
         57782 MiB available memory on the node where the printing process lives
     GPU memory used/free/total (MiB): 1282 / 14998 / 16280
------------------
     ethr =  3.18E-07,  avg # of iterations =  6.4

     negative rho (up, down):  1.296E-04 4.421E-03

     total cpu time spent up to now is      321.7 secs

     total energy              =    -821.42431841 Ry
     estimated scf accuracy    <       0.00032960 Ry

     total magnetization       =     4.25 Bohr mag/cell
     absolute magnetization    =     4.57 Bohr mag/cell
[tb_dev] Currently allocated     2.71E+00 Mbytes, locked:    0 /  10
[tb_pin] Currently allocated     0.00E+00 Mbytes, locked:    0 /   0

     iteration # 74     ecut=    70.00 Ry     beta= 0.40
     Davidson diagonalization with overlap

---- Real-time Memory Report at c_bands before calling an iterative solver
          2058 MiB given to the printing process from OS
          1140 MiB allocation reported by mallinfo(arena+hblkhd)
         57782 MiB available memory on the node where the printing process lives
     GPU memory used/free/total (MiB): 1282 / 14998 / 16280
------------------
     ethr =  3.18E-07,  avg # of iterations =  2.4

     negative rho (up, down):  3.918E-05 4.993E-03

     total cpu time spent up to now is      324.7 secs

     total energy              =    -821.42093944 Ry
     estimated scf accuracy    <       0.00025642 Ry

     total magnetization       =     4.39 Bohr mag/cell
     absolute magnetization    =     4.72 Bohr mag/cell
[tb_dev] Currently allocated     2.71E+00 Mbytes, locked:    0 /  10
[tb_pin] Currently allocated     0.00E+00 Mbytes, locked:    0 /   0

     iteration # 75     ecut=    70.00 Ry     beta= 0.40
     Davidson diagonalization with overlap

---- Real-time Memory Report at c_bands before calling an iterative solver
          2061 MiB given to the printing process from OS
          1140 MiB allocation reported by mallinfo(arena+hblkhd)
         57777 MiB available memory on the node where the printing process lives
     GPU memory used/free/total (MiB): 1282 / 14998 / 16280
------------------
     ethr =  3.18E-07,  avg # of iterations =  6.2

     negative rho (up, down):  5.426E-05 4.897E-03

     total cpu time spent up to now is      330.1 secs

     total energy              =    -821.42350555 Ry
     estimated scf accuracy    <       0.00024264 Ry

     total magnetization       =     5.04 Bohr mag/cell
     absolute magnetization    =     5.39 Bohr mag/cell
[tb_dev] Currently allocated     2.71E+00 Mbytes, locked:    0 /  10
[tb_pin] Currently allocated     0.00E+00 Mbytes, locked:    0 /   0

     iteration # 76     ecut=    70.00 Ry     beta= 0.40
     Davidson diagonalization with overlap

---- Real-time Memory Report at c_bands before calling an iterative solver
          2061 MiB given to the printing process from OS
          1142 MiB allocation reported by mallinfo(arena+hblkhd)
         57779 MiB available memory on the node where the printing process lives
     GPU memory used/free/total (MiB): 1282 / 14998 / 16280
------------------
     ethr =  3.18E-07,  avg # of iterations =  1.7

     negative rho (up, down):  3.326E-05 5.027E-03

     total cpu time spent up to now is      332.9 secs

     total energy              =    -821.42320643 Ry
     estimated scf accuracy    <       0.00018977 Ry

     total magnetization       =     4.95 Bohr mag/cell
     absolute magnetization    =     5.30 Bohr mag/cell
[tb_dev] Currently allocated     2.71E+00 Mbytes, locked:    0 /  10
[tb_pin] Currently allocated     0.00E+00 Mbytes, locked:    0 /   0

     iteration # 77     ecut=    70.00 Ry     beta= 0.40
     Davidson diagonalization with overlap

---- Real-time Memory Report at c_bands before calling an iterative solver
          2062 MiB given to the printing process from OS
          1144 MiB allocation reported by mallinfo(arena+hblkhd)
         57777 MiB available memory on the node where the printing process lives
     GPU memory used/free/total (MiB): 1282 / 14998 / 16280
------------------
     ethr =  3.16E-07,  avg # of iterations =  2.0

     negative rho (up, down):  0.000E+00 5.374E-03

     total cpu time spent up to now is      335.9 secs

     total energy              =    -821.42167711 Ry
     estimated scf accuracy    <       0.00029382 Ry

     total magnetization       =     5.07 Bohr mag/cell
     absolute magnetization    =     5.43 Bohr mag/cell
[tb_dev] Currently allocated     2.71E+00 Mbytes, locked:    0 /  10
[tb_pin] Currently allocated     0.00E+00 Mbytes, locked:    0 /   0

     iteration # 78     ecut=    70.00 Ry     beta= 0.40
     Davidson diagonalization with overlap

---- Real-time Memory Report at c_bands before calling an iterative solver
          2064 MiB given to the printing process from OS
          1144 MiB allocation reported by mallinfo(arena+hblkhd)
         57777 MiB available memory on the node where the printing process lives
     GPU memory used/free/total (MiB): 1282 / 14998 / 16280
------------------
     ethr =  3.16E-07,  avg # of iterations =  4.9

     negative rho (up, down):  3.966E-05 4.982E-03

     total cpu time spent up to now is      340.3 secs

     total energy              =    -821.42268582 Ry
     estimated scf accuracy    <       0.00092388 Ry

     total magnetization       =     5.33 Bohr mag/cell
     absolute magnetization    =     5.72 Bohr mag/cell
[tb_dev] Currently allocated     2.71E+00 Mbytes, locked:    0 /  10
[tb_pin] Currently allocated     0.00E+00 Mbytes, locked:    0 /   0

     iteration # 79     ecut=    70.00 Ry     beta= 0.40
     Davidson diagonalization with overlap

---- Real-time Memory Report at c_bands before calling an iterative solver
          2064 MiB given to the printing process from OS
          1148 MiB allocation reported by mallinfo(arena+hblkhd)
         57771 MiB available memory on the node where the printing process lives
     GPU memory used/free/total (MiB): 1282 / 14998 / 16280
------------------
     ethr =  3.16E-07,  avg # of iterations =  4.2

     negative rho (up, down):  8.000E-05 4.728E-03

     total cpu time spent up to now is      344.4 secs

     total energy              =    -821.42343317 Ry
     estimated scf accuracy    <       0.00037167 Ry

     total magnetization       =     5.02 Bohr mag/cell
     absolute magnetization    =     5.39 Bohr mag/cell
[tb_dev] Currently allocated     2.71E+00 Mbytes, locked:    0 /  10
[tb_pin] Currently allocated     0.00E+00 Mbytes, locked:    0 /   0

     iteration # 80     ecut=    70.00 Ry     beta= 0.40
     Davidson diagonalization with overlap

---- Real-time Memory Report at c_bands before calling an iterative solver
          2068 MiB given to the printing process from OS
          1150 MiB allocation reported by mallinfo(arena+hblkhd)
         57770 MiB available memory on the node where the printing process lives
     GPU memory used/free/total (MiB): 1282 / 14998 / 16280
------------------
     ethr =  3.16E-07,  avg # of iterations =  4.4

     negative rho (up, down):  1.146E-04 4.511E-03

     total cpu time spent up to now is      348.6 secs

     total energy              =    -821.42390315 Ry
     estimated scf accuracy    <       0.00027024 Ry

     total magnetization       =     4.76 Bohr mag/cell
     absolute magnetization    =     5.11 Bohr mag/cell

     End of self-consistent calculation

     convergence NOT achieved after  80 iterations: stopping

     Writing config to output data dir ./out/aiida.save/
 
     init_run     :     20.75s CPU      4.61s WALL (       1 calls)
     electrons    :    769.55s CPU    343.29s WALL (       1 calls)

     Called by init_run:
     wfcinit      :      1.31s CPU      2.11s WALL (       1 calls)
                                        2.11s GPU  (       1 calls)
     wfcinit:atom :      0.04s CPU      0.07s WALL (     112 calls)
                                        0.07s GPU  (     112 calls)
     wfcinit:wfcr :      0.84s CPU      1.42s WALL (     112 calls)
                                        1.42s GPU  (     112 calls)
     potinit      :      7.96s CPU      0.76s WALL (       1 calls)
     hinit0       :      7.35s CPU      1.09s WALL (       1 calls)

     Called by electrons:
     c_bands      :    376.24s CPU    276.92s WALL (      80 calls)
     sum_band     :     28.33s CPU     33.02s WALL (      80 calls)
     v_of_rho     :     13.83s CPU      1.25s WALL (      81 calls)
     v_h          :      2.17s CPU      0.19s WALL (      81 calls)
     v_xc         :     11.65s CPU      1.05s WALL (      81 calls)
     newd         :     29.22s CPU      2.99s WALL (      81 calls)
                                        2.99s GPU  (      81 calls)
     PAW_pot      :    308.42s CPU     28.01s WALL (      81 calls)
     mix_rho      :     16.79s CPU      1.64s WALL (      80 calls)

     Called by c_bands:
     init_us_2    :     22.53s CPU     19.08s WALL (   18032 calls)
     init_us_2:gp :     22.12s CPU     18.77s WALL (   18032 calls)
     cegterg      :    336.48s CPU    251.39s WALL (    8960 calls)

     Called by sum_band:
     sum_band:wei :      0.30s CPU      0.32s WALL (      80 calls)
                                        0.32s GPU  (      80 calls)
     sum_band:loo :     24.27s CPU     28.77s WALL (      80 calls)
                                       28.77s GPU  (      80 calls)
     sum_band:buf :      5.19s CPU      6.08s WALL (    8960 calls)
                                        6.03s GPU  (    8960 calls)
     sum_band:ini :      7.62s CPU      9.41s WALL (    8960 calls)
                                        9.36s GPU  (    8960 calls)
     sum_band:cal :      0.28s CPU      0.83s WALL (    8960 calls)
                                        0.78s GPU  (    8960 calls)
     sum_band:bec :      1.59s CPU      1.98s WALL (    8960 calls)
                                        1.92s GPU  (    8960 calls)
     addusdens    :      2.77s CPU      2.92s WALL (      80 calls)
                                        2.92s GPU  (      80 calls)
     addusd:skk   :      0.01s CPU      0.02s WALL (     240 calls)
                                        0.02s GPU  (     240 calls)

     Called by *egterg:
     cdiaghg      :    174.36s CPU    137.44s WALL (   48624 calls)
                                      137.12s GPU  (   48624 calls)
     cegterg:over :      7.68s CPU      5.75s WALL (   39664 calls)
     cegterg:upda :     15.66s CPU     11.70s WALL (   39664 calls)
     cegterg:last :      4.27s CPU      3.28s WALL (   21074 calls)
     h_psi        :    105.39s CPU     74.19s WALL (   48736 calls)
                                       73.91s GPU  (   48736 calls)
     s_psi        :      6.27s CPU      7.34s WALL (   48736 calls)
                                        6.87s GPU  (   48736 calls)
     g_psi        :      0.39s CPU      0.93s WALL (   39664 calls)
                                        0.68s GPU  (   39664 calls)

     Called by h_psi:
     h_psi:calbec :      2.26s CPU      4.66s WALL (   48736 calls)
                                        4.36s GPU  (   48736 calls)
     vloc_psi     :     82.53s CPU     58.08s WALL (   48736 calls)
                                       57.80s GPU  (   48736 calls)
     add_vuspsi   :      8.97s CPU      8.37s WALL (   48736 calls)
                                        8.09s GPU  (   48736 calls)

     General routines
     calbec       :      1.91s CPU      1.46s WALL (   57696 calls)
     fft          :      2.41s CPU      0.32s WALL (    2023 calls)
                                        0.26s GPU  (    1861 calls)
     ffts         :      0.05s CPU      0.02s WALL (     322 calls)
                                        0.01s GPU  (     160 calls)
     fftw         :      5.63s CPU     35.93s WALL (  205354 calls)
                                       34.80s GPU  (  205354 calls)
     interpolate  :      1.92s CPU      0.17s WALL (     162 calls)
     davcio       :      1.06s CPU      0.17s WALL (     130 calls)
 
     Parallel routines

     PAW routines
     PAW_pot      :    308.42s CPU     28.01s WALL (      81 calls)
     PAW_symme    :      0.72s CPU      0.12s WALL (     161 calls)
 
     PWSCF        :  13m14.46s CPU   5m48.89s WALL

 
   This run was terminated on:  21:47:14  23Oct2023            

=------------------------------------------------------------------------------=
   JOB DONE.
=------------------------------------------------------------------------------=
