
     Program PWSCF v.7.2 starts on 30Nov2023 at  4:20:21 
        Git branch: develop
        Last git commit: 9055681be6fc8200e6fffe76ed5fda34c2696339
        Last git commit date: Wed Nov 8 16:29:39 2023 +0000
        Last git commit subject: Merge branch 'calbec_fix' into 'develop'

     This program is part of the open-source Quantum ESPRESSO suite
     for quantum simulation of materials; please cite
         "P. Giannozzi et al., J. Phys.:Condens. Matter 21 395502 (2009);
         "P. Giannozzi et al., J. Phys.:Condens. Matter 29 465901 (2017);
         "P. Giannozzi et al., J. Chem. Phys. 152 154105 (2020);
          URL http://www.quantum-espresso.org", 
     in publications or presentations arising from this work. More details at
     http://www.quantum-espresso.org/quote

     Parallel version (MPI), running on    56 processors

     MPI processes distributed on     1 nodes
     491560 MiB available memory on the printing compute node when the environment starts

     Reading input from aiida.in

     Current dimensions of program PWSCF are:
     Max number of different atomic species (ntypx) = 10
     Max number of k-points (npk) =  40000
     Max angular momentum in pseudopotentials (lmaxx) =  4
     Message from routine setup:
     using ibrav=0 with symmetry is DISCOURAGED, use correct ibrav instead

     K-points division:     npool     =       7
     R & G space division:  proc/nbgrp/npool/nimage =       8
     Subspace diagonalization in iterative solution of the eigenvalue problem:
     a serial algorithm will be used


     Parallelization info
     --------------------
     sticks:   dense  smooth     PW     G-vecs:    dense   smooth      PW
     Min         191      96     30                 4961     1769     302
     Max         192      97     31                 4964     1771     304
     Sum        1531     769    241                39693    14163    2421

     Using Slab Decomposition



     bravais-lattice index     =            0
     lattice parameter (alat)  =       8.3515  a.u.
     unit-cell volume          =     411.8857 (a.u.)^3
     number of atoms/cell      =            4
     number of atomic types    =            4
     number of electrons       =        42.00
     number of Kohn-Sham states=           29
     kinetic-energy cutoff     =      40.0000  Ry
     charge density cutoff     =     320.0000  Ry
     scf convergence threshold =      8.0E-10
     mixing beta               =       0.4000
     number of iterations used =            8  plain     mixing
     Exchange-correlation= SLA  PW   PSX  PSC
                           (   1   4  10   8   0   0   0)

     celldm(1)=   8.351488  celldm(2)=   0.000000  celldm(3)=   0.000000
     celldm(4)=   0.000000  celldm(5)=   0.000000  celldm(6)=   0.000000

     crystal axes: (cart. coord. in units of alat)
               a(1) = (   0.000000   0.707107   0.707107 )  
               a(2) = (   0.707107   0.000000   0.707107 )  
               a(3) = (   0.707107   0.707107   0.000000 )  

     reciprocal axes: (cart. coord. in units 2 pi/alat)
               b(1) = ( -0.707107  0.707107  0.707107 )  
               b(2) = (  0.707107 -0.707107  0.707107 )  
               b(3) = (  0.707107  0.707107 -0.707107 )  


     PseudoPot. # 1 for Cr read from file:
     ./pseudo/cr_pbesol_v1.5.uspp.F.UPF
     MD5 check sum: a621641e0be27168676a837af8893d0f
     Pseudo is Ultrasoft + core correction, Zval = 14.0
     Generated by new atomic code, or converted to UPF format
     Using radial grid of  857 points,  6 beta functions with: 
                l(1) =   0
                l(2) =   0
                l(3) =   1
                l(4) =   1
                l(5) =   2
                l(6) =   2
     Q(r) pseudized with  8 coefficients,  rinner =    0.950   0.950   0.950
                                                       0.950   0.950

     PseudoPot. # 2 for Si read from file:
     ./pseudo/Si.pbesol-n-rrkjus_psl.1.0.0.UPF
     MD5 check sum: c4212819de858c94c3a1644338846ac9
     Pseudo is Ultrasoft + core correction, Zval =  4.0
     Generated using "atomic" code by A. Dal Corso  v.6.0 svn rev. 13079
     Using radial grid of 1141 points,  6 beta functions with: 
                l(1) =   0
                l(2) =   0
                l(3) =   1
                l(4) =   1
                l(5) =   2
                l(6) =   2
     Q(r) pseudized with 0 coefficients 


     PseudoPot. # 3 for V  read from file:
     ./pseudo/v_pbesol_v1.4.uspp.F.UPF
     MD5 check sum: 72fa7d0034c41d8adc50bbc8c632b9f9
     Pseudo is Ultrasoft + core correction, Zval = 13.0
     Generated by new atomic code, or converted to UPF format
     Using radial grid of  853 points,  6 beta functions with: 
                l(1) =   0
                l(2) =   0
                l(3) =   1
                l(4) =   1
                l(5) =   2
                l(6) =   2
     Q(r) pseudized with  8 coefficients,  rinner =    1.100   1.100   1.100
                                                       1.100   1.100

     PseudoPot. # 4 for Y  read from file:
     ./pseudo/y_pbesol_v1.4.uspp.F.UPF
     MD5 check sum: dac24993bfd4491f22c7b9129ad9e93d
     Pseudo is Ultrasoft + core correction, Zval = 11.0
     Generated by new atomic code, or converted to UPF format
     Using radial grid of  885 points,  6 beta functions with: 
                l(1) =   0
                l(2) =   0
                l(3) =   1
                l(4) =   1
                l(5) =   2
                l(6) =   2
     Q(r) pseudized with  8 coefficients,  rinner =    1.200   1.200   1.200
                                                       1.200   1.200

     atomic species   valence    mass     pseudopotential
     Cr               14.00    51.99610     Cr( 1.00)
     Si                4.00    28.08550     Si( 1.00)
     V                13.00    50.94150     V ( 1.00)
     Y                11.00    88.90585     Y ( 1.00)

     Starting magnetic structure 
     atomic species   magnetization
     Cr              0.357
     Si              0.100
     V               0.385
     Y               0.455

     24 Sym. Ops. (no inversion) found


                                    s                        frac. trans.

      isym =  1     identity                                     

 cryst.   s( 1) = (     1          0          0      )
                  (     0          1          0      )
                  (     0          0          1      )

 cart.    s( 1) = (  1.0000000 -0.0000000  0.0000000 )
                  ( -0.0000000  1.0000000  0.0000000 )
                  ( -0.0000000  0.0000000  1.0000000 )


      isym =  2     180 deg rotation - cart. axis [0,0,1]        

 cryst.   s( 2) = (     0          1         -1      )
                  (     1          0         -1      )
                  (     0          0         -1      )

 cart.    s( 2) = ( -1.0000000  0.0000000  0.0000000 )
                  (  0.0000000 -1.0000000  0.0000000 )
                  (  0.0000000 -0.0000000  1.0000000 )


      isym =  3     180 deg rotation - cart. axis [0,1,0]        

 cryst.   s( 3) = (     0         -1          1      )
                  (     0         -1          0      )
                  (     1         -1          0      )

 cart.    s( 3) = ( -1.0000000 -0.0000000 -0.0000000 )
                  (  0.0000000  1.0000000 -0.0000000 )
                  (  0.0000000  0.0000000 -1.0000000 )


      isym =  4     180 deg rotation - cart. axis [1,0,0]        

 cryst.   s( 4) = (    -1          0          0      )
                  (    -1          0          1      )
                  (    -1          1          0      )

 cart.    s( 4) = (  1.0000000  0.0000000 -0.0000000 )
                  ( -0.0000000 -1.0000000 -0.0000000 )
                  ( -0.0000000 -0.0000000 -1.0000000 )


      isym =  5     120 deg rotation - cart. axis [-1,-1,-1]     

 cryst.   s( 5) = (     0          0          1      )
                  (     1          0          0      )
                  (     0          1          0      )

 cart.    s( 5) = (  0.0000000  1.0000000 -0.0000000 )
                  (  0.0000000 -0.0000000  1.0000000 )
                  (  1.0000000 -0.0000000  0.0000000 )


      isym =  6     120 deg rotation - cart. axis [-1,1,1]       

 cryst.   s( 6) = (     1         -1          0      )
                  (     0         -1          1      )
                  (     0         -1          0      )

 cart.    s( 6) = ( -0.0000000 -1.0000000 -0.0000000 )
                  ( -0.0000000  0.0000000  1.0000000 )
                  ( -1.0000000  0.0000000  0.0000000 )


      isym =  7     120 deg rotation - cart. axis [1,1,-1]       

 cryst.   s( 7) = (    -1          1          0      )
                  (    -1          0          0      )
                  (    -1          0          1      )

 cart.    s( 7) = ( -0.0000000  1.0000000  0.0000000 )
                  ( -0.0000000 -0.0000000 -1.0000000 )
                  ( -1.0000000 -0.0000000 -0.0000000 )


      isym =  8     120 deg rotation - cart. axis [1,-1,1]       

 cryst.   s( 8) = (     0          0         -1      )
                  (     0          1         -1      )
                  (     1          0         -1      )

 cart.    s( 8) = (  0.0000000 -1.0000000  0.0000000 )
                  (  0.0000000  0.0000000 -1.0000000 )
                  (  1.0000000  0.0000000 -0.0000000 )


      isym =  9     120 deg rotation - cart. axis [1,1,1]        

 cryst.   s( 9) = (     0          1          0      )
                  (     0          0          1      )
                  (     1          0          0      )

 cart.    s( 9) = ( -0.0000000  0.0000000  1.0000000 )
                  (  1.0000000  0.0000000 -0.0000000 )
                  (  0.0000000  1.0000000 -0.0000000 )


      isym = 10     120 deg rotation - cart. axis [-1,1,-1]      

 cryst.   s(10) = (    -1          0          1      )
                  (    -1          1          0      )
                  (    -1          0          0      )

 cart.    s(10) = (  0.0000000 -0.0000000  1.0000000 )
                  ( -1.0000000 -0.0000000 -0.0000000 )
                  ( -0.0000000 -1.0000000 -0.0000000 )


      isym = 11     120 deg rotation - cart. axis [1,-1,-1]      

 cryst.   s(11) = (     1          0         -1      )
                  (     0          0         -1      )
                  (     0          1         -1      )

 cart.    s(11) = (  0.0000000  0.0000000 -1.0000000 )
                  ( -1.0000000  0.0000000  0.0000000 )
                  ( -0.0000000  1.0000000  0.0000000 )


      isym = 12     120 deg rotation - cart. axis [-1,-1,1]      

 cryst.   s(12) = (     0         -1          0      )
                  (     1         -1          0      )
                  (     0         -1          1      )

 cart.    s(12) = ( -0.0000000 -0.0000000 -1.0000000 )
                  (  1.0000000 -0.0000000  0.0000000 )
                  (  0.0000000 -1.0000000  0.0000000 )


      isym = 13     inv. 180 deg rotation - cart. axis [1,1,0]   

 cryst.   s(13) = (     1          0         -1      )
                  (     0          1         -1      )
                  (     0          0         -1      )

 cart.    s(13) = (  0.0000000 -1.0000000  0.0000000 )
                  ( -1.0000000  0.0000000  0.0000000 )
                  ( -0.0000000  0.0000000  1.0000000 )


      isym = 14     inv. 180 deg rotation - cart. axis [1,-1,0]  

 cryst.   s(14) = (     0          1          0      )
                  (     1          0          0      )
                  (     0          0          1      )

 cart.    s(14) = ( -0.0000000  1.0000000  0.0000000 )
                  (  1.0000000 -0.0000000  0.0000000 )
                  (  0.0000000 -0.0000000  1.0000000 )


      isym = 15     inv.  90 deg rotation - cart. axis [0,0,-1]  

 cryst.   s(15) = (     0         -1          0      )
                  (     0         -1          1      )
                  (     1         -1          0      )

 cart.    s(15) = ( -0.0000000 -1.0000000 -0.0000000 )
                  (  1.0000000  0.0000000 -0.0000000 )
                  (  0.0000000  0.0000000 -1.0000000 )


      isym = 16     inv.  90 deg rotation - cart. axis [0,0,1]   

 cryst.   s(16) = (    -1          0          1      )
                  (    -1          0          0      )
                  (    -1          1          0      )

 cart.    s(16) = (  0.0000000  1.0000000 -0.0000000 )
                  ( -1.0000000 -0.0000000 -0.0000000 )
                  ( -0.0000000 -0.0000000 -1.0000000 )


      isym = 17     inv. 180 deg rotation - cart. axis [1,0,1]   

 cryst.   s(17) = (     1         -1          0      )
                  (     0         -1          0      )
                  (     0         -1          1      )

 cart.    s(17) = ( -0.0000000 -0.0000000 -1.0000000 )
                  ( -0.0000000  1.0000000  0.0000000 )
                  ( -1.0000000  0.0000000  0.0000000 )


      isym = 18     inv. 180 deg rotation - cart. axis [-1,0,1]  

 cryst.   s(18) = (     0          0          1      )
                  (     0          1          0      )
                  (     1          0          0      )

 cart.    s(18) = (  0.0000000 -0.0000000  1.0000000 )
                  (  0.0000000  1.0000000 -0.0000000 )
                  (  1.0000000  0.0000000 -0.0000000 )


      isym = 19     inv.  90 deg rotation - cart. axis [0,1,0]   

 cryst.   s(19) = (     0          0         -1      )
                  (     1          0         -1      )
                  (     0          1         -1      )

 cart.    s(19) = (  0.0000000  0.0000000 -1.0000000 )
                  (  0.0000000 -1.0000000  0.0000000 )
                  (  1.0000000 -0.0000000  0.0000000 )


      isym = 20     inv.  90 deg rotation - cart. axis [0,-1,0]  

 cryst.   s(20) = (    -1          1          0      )
                  (    -1          0          1      )
                  (    -1          0          0      )

 cart.    s(20) = ( -0.0000000  0.0000000  1.0000000 )
                  ( -0.0000000 -1.0000000 -0.0000000 )
                  ( -1.0000000 -0.0000000 -0.0000000 )


      isym = 21     inv. 180 deg rotation - cart. axis [0,1,1]   

 cryst.   s(21) = (    -1          0          0      )
                  (    -1          1          0      )
                  (    -1          0          1      )

 cart.    s(21) = (  1.0000000 -0.0000000  0.0000000 )
                  ( -0.0000000 -0.0000000 -1.0000000 )
                  ( -0.0000000 -1.0000000 -0.0000000 )


      isym = 22     inv. 180 deg rotation - cart. axis [0,1,-1]  

 cryst.   s(22) = (     1          0          0      )
                  (     0          0          1      )
                  (     0          1          0      )

 cart.    s(22) = (  1.0000000  0.0000000 -0.0000000 )
                  ( -0.0000000  0.0000000  1.0000000 )
                  ( -0.0000000  1.0000000  0.0000000 )


      isym = 23     inv.  90 deg rotation - cart. axis [-1,0,0]  

 cryst.   s(23) = (     0          1         -1      )
                  (     0          0         -1      )
                  (     1          0         -1      )

 cart.    s(23) = ( -1.0000000  0.0000000  0.0000000 )
                  (  0.0000000  0.0000000 -1.0000000 )
                  (  0.0000000  1.0000000 -0.0000000 )


      isym = 24     inv.  90 deg rotation - cart. axis [1,0,0]   

 cryst.   s(24) = (     0         -1          1      )
                  (     1         -1          0      )
                  (     0         -1          0      )

 cart.    s(24) = ( -1.0000000 -0.0000000 -0.0000000 )
                  (  0.0000000 -0.0000000  1.0000000 )
                  (  0.0000000 -1.0000000  0.0000000 )


   Cartesian axes

     site n.     atom                  positions (alat units)
         1        Y      tau(   1) = (   0.3535534   0.3535534   0.3535534  )
         2        V      tau(   2) = (   0.7071068   0.0000000   0.0000000  )
         3        Cr     tau(   3) = (   0.0000000   0.0000000   0.0000000  )
         4        Si     tau(   4) = (   0.3535534   0.3535534   1.0606602  )

   Crystallographic axes

     site n.     atom                  positions (cryst. coord.)
         1        Y      tau(   1) = (  0.2500000  0.2500000  0.2500000  )
         2        V      tau(   2) = ( -0.5000000  0.5000000  0.5000000  )
         3        Cr     tau(   3) = (  0.0000000  0.0000000  0.0000000  )
         4        Si     tau(   4) = (  0.7500000  0.7500000 -0.2500000  )

     number of k points=    72  Marzari-Vanderbilt smearing, width (Ry)=  0.0200
                       cart. coord. in units 2pi/alat
        k(    1) = (   0.0000000   0.0000000   0.0000000), wk =   0.0005787
        k(    2) = (   0.0589256   0.0589256  -0.0589256), wk =   0.0046296
        k(    3) = (   0.1178511   0.1178511  -0.1178511), wk =   0.0046296
        k(    4) = (   0.1767767   0.1767767  -0.1767767), wk =   0.0046296
        k(    5) = (   0.2357023   0.2357023  -0.2357023), wk =   0.0046296
        k(    6) = (   0.2946278   0.2946278  -0.2946278), wk =   0.0046296
        k(    7) = (  -0.3535534  -0.3535534   0.3535534), wk =   0.0023148
        k(    8) = (   0.1178511   0.0000000  -0.0000000), wk =   0.0034722
        k(    9) = (   0.1767767   0.0589256  -0.0589256), wk =   0.0138889
        k(   10) = (   0.2357023   0.1178511  -0.1178511), wk =   0.0138889
        k(   11) = (   0.2946278   0.1767767  -0.1767767), wk =   0.0138889
        k(   12) = (   0.3535534   0.2357023  -0.2357023), wk =   0.0138889
        k(   13) = (  -0.2946278  -0.4124790   0.4124790), wk =   0.0138889
        k(   14) = (  -0.2357023  -0.3535534   0.3535534), wk =   0.0138889
        k(   15) = (  -0.1767767  -0.2946278   0.2946278), wk =   0.0138889
        k(   16) = (  -0.1178511  -0.2357023   0.2357023), wk =   0.0138889
        k(   17) = (  -0.0589256  -0.1767767   0.1767767), wk =   0.0138889
        k(   18) = (  -0.0000000  -0.1178511   0.1178511), wk =   0.0069444
        k(   19) = (   0.2357023   0.0000000  -0.0000000), wk =   0.0034722
        k(   20) = (   0.2946278   0.0589256  -0.0589256), wk =   0.0138889
        k(   21) = (   0.3535534   0.1178511  -0.1178511), wk =   0.0138889
        k(   22) = (   0.4124790   0.1767767  -0.1767767), wk =   0.0138889
        k(   23) = (  -0.2357023  -0.4714045   0.4714045), wk =   0.0138889
        k(   24) = (  -0.1767767  -0.4124790   0.4124790), wk =   0.0138889
        k(   25) = (  -0.1178511  -0.3535534   0.3535534), wk =   0.0138889
        k(   26) = (  -0.0589256  -0.2946278   0.2946278), wk =   0.0138889
        k(   27) = (   0.0000000  -0.2357023   0.2357023), wk =   0.0069444
        k(   28) = (   0.3535534   0.0000000   0.0000000), wk =   0.0034722
        k(   29) = (   0.4124790   0.0589256  -0.0589256), wk =   0.0138889
        k(   30) = (   0.4714045   0.1178511  -0.1178511), wk =   0.0138889
        k(   31) = (  -0.1767767  -0.5303301   0.5303301), wk =   0.0138889
        k(   32) = (  -0.1178511  -0.4714045   0.4714045), wk =   0.0138889
        k(   33) = (  -0.0589256  -0.4124790   0.4124790), wk =   0.0138889
        k(   34) = (   0.0000000  -0.3535534   0.3535534), wk =   0.0069444
        k(   35) = (   0.4714045   0.0000000  -0.0000000), wk =   0.0034722
        k(   36) = (   0.5303301   0.0589256  -0.0589256), wk =   0.0138889
        k(   37) = (  -0.1178511  -0.5892557   0.5892557), wk =   0.0138889
        k(   38) = (  -0.0589256  -0.5303301   0.5303301), wk =   0.0138889
        k(   39) = (  -0.0000000  -0.4714045   0.4714045), wk =   0.0069444
        k(   40) = (   0.5892557   0.0000000  -0.0000000), wk =   0.0034722
        k(   41) = (  -0.0589256  -0.6481812   0.6481812), wk =   0.0138889
        k(   42) = (   0.0000000  -0.5892557   0.5892557), wk =   0.0069444
        k(   43) = (  -0.7071068   0.0000000   0.0000000), wk =   0.0017361
        k(   44) = (   0.2357023   0.1178511   0.0000000), wk =   0.0138889
        k(   45) = (   0.2946278   0.1767767  -0.0589256), wk =   0.0277778
        k(   46) = (   0.3535534   0.2357023  -0.1178511), wk =   0.0277778
        k(   47) = (  -0.2946278  -0.4124790   0.5303301), wk =   0.0277778
        k(   48) = (  -0.2357023  -0.3535534   0.4714045), wk =   0.0138889
        k(   49) = (   0.3535534   0.1178511   0.0000000), wk =   0.0138889
        k(   50) = (   0.4124790   0.1767767  -0.0589256), wk =   0.0277778
        k(   51) = (  -0.2357023  -0.4714045   0.5892557), wk =   0.0277778
        k(   52) = (  -0.1767767  -0.4124790   0.5303301), wk =   0.0277778
        k(   53) = (  -0.1178511  -0.3535534   0.4714045), wk =   0.0277778
        k(   54) = (  -0.0589256  -0.2946278   0.4124790), wk =   0.0277778
        k(   55) = (   0.0000000  -0.2357023   0.3535534), wk =   0.0138889
        k(   56) = (   0.4714045   0.1178511  -0.0000000), wk =   0.0138889
        k(   57) = (  -0.1767767  -0.5303301   0.6481812), wk =   0.0277778
        k(   58) = (  -0.1178511  -0.4714045   0.5892557), wk =   0.0277778
        k(   59) = (  -0.0589256  -0.4124790   0.5303301), wk =   0.0277778
        k(   60) = (  -0.0000000  -0.3535534   0.4714045), wk =   0.0138889
        k(   61) = (  -0.1178511  -0.5892557   0.7071068), wk =   0.0138889
        k(   62) = (  -0.0589256  -0.5303301   0.6481812), wk =   0.0277778
        k(   63) = (  -0.0000000  -0.4714045   0.5892557), wk =   0.0138889
        k(   64) = (  -0.7071068   0.1178511  -0.0000000), wk =   0.0069444
        k(   65) = (  -0.2357023  -0.4714045   0.7071068), wk =   0.0138889
        k(   66) = (  -0.1767767  -0.4124790   0.6481812), wk =   0.0277778
        k(   67) = (  -0.1178511  -0.3535534   0.5892557), wk =   0.0138889
        k(   68) = (  -0.1178511  -0.4714045   0.7071068), wk =   0.0138889
        k(   69) = (  -0.0589256  -0.4124790   0.6481812), wk =   0.0277778
        k(   70) = (   0.0000000  -0.3535534   0.5892557), wk =   0.0138889
        k(   71) = (  -0.7071068   0.2357023   0.0000000), wk =   0.0069444
        k(   72) = (  -0.7071068   0.3535534   0.0000000), wk =   0.0034722

                       cryst. coord.
        k(    1) = (   0.0000000   0.0000000   0.0000000), wk =   0.0005787
        k(    2) = (   0.0000000   0.0000000   0.0833333), wk =   0.0046296
        k(    3) = (   0.0000000   0.0000000   0.1666667), wk =   0.0046296
        k(    4) = (   0.0000000   0.0000000   0.2500000), wk =   0.0046296
        k(    5) = (   0.0000000   0.0000000   0.3333333), wk =   0.0046296
        k(    6) = (  -0.0000000  -0.0000000   0.4166667), wk =   0.0046296
        k(    7) = (  -0.0000000  -0.0000000  -0.5000000), wk =   0.0023148
        k(    8) = (  -0.0000000   0.0833333   0.0833333), wk =   0.0034722
        k(    9) = (   0.0000000   0.0833333   0.1666667), wk =   0.0138889
        k(   10) = (  -0.0000000   0.0833333   0.2500000), wk =   0.0138889
        k(   11) = (   0.0000000   0.0833333   0.3333333), wk =   0.0138889
        k(   12) = (  -0.0000000   0.0833333   0.4166667), wk =   0.0138889
        k(   13) = (  -0.0000000   0.0833333  -0.5000000), wk =   0.0138889
        k(   14) = (   0.0000000   0.0833333  -0.4166667), wk =   0.0138889
        k(   15) = (  -0.0000000   0.0833333  -0.3333333), wk =   0.0138889
        k(   16) = (  -0.0000000   0.0833333  -0.2500000), wk =   0.0138889
        k(   17) = (   0.0000000   0.0833333  -0.1666667), wk =   0.0138889
        k(   18) = (   0.0000000   0.0833333  -0.0833333), wk =   0.0069444
        k(   19) = (  -0.0000000   0.1666667   0.1666667), wk =   0.0034722
        k(   20) = (  -0.0000000   0.1666667   0.2500000), wk =   0.0138889
        k(   21) = (   0.0000000   0.1666667   0.3333333), wk =   0.0138889
        k(   22) = (   0.0000000   0.1666667   0.4166667), wk =   0.0138889
        k(   23) = (  -0.0000000   0.1666667  -0.5000000), wk =   0.0138889
        k(   24) = (  -0.0000000   0.1666667  -0.4166667), wk =   0.0138889
        k(   25) = (  -0.0000000   0.1666667  -0.3333333), wk =   0.0138889
        k(   26) = (   0.0000000   0.1666667  -0.2500000), wk =   0.0138889
        k(   27) = (   0.0000000   0.1666667  -0.1666667), wk =   0.0069444
        k(   28) = (   0.0000000   0.2500000   0.2500000), wk =   0.0034722
        k(   29) = (  -0.0000000   0.2500000   0.3333333), wk =   0.0138889
        k(   30) = (  -0.0000000   0.2500000   0.4166667), wk =   0.0138889
        k(   31) = (   0.0000000   0.2500000  -0.5000000), wk =   0.0138889
        k(   32) = (  -0.0000000   0.2500000  -0.4166667), wk =   0.0138889
        k(   33) = (  -0.0000000   0.2500000  -0.3333333), wk =   0.0138889
        k(   34) = (  -0.0000000   0.2500000  -0.2500000), wk =   0.0069444
        k(   35) = (  -0.0000000   0.3333333   0.3333333), wk =   0.0034722
        k(   36) = (  -0.0000000   0.3333333   0.4166667), wk =   0.0138889
        k(   37) = (   0.0000000   0.3333333  -0.5000000), wk =   0.0138889
        k(   38) = (  -0.0000000   0.3333333  -0.4166667), wk =   0.0138889
        k(   39) = (   0.0000000   0.3333333  -0.3333333), wk =   0.0069444
        k(   40) = (   0.0000000   0.4166667   0.4166667), wk =   0.0034722
        k(   41) = (   0.0000000   0.4166667  -0.5000000), wk =   0.0138889
        k(   42) = (   0.0000000   0.4166667  -0.4166667), wk =   0.0069444
        k(   43) = (   0.0000000  -0.5000000  -0.5000000), wk =   0.0017361
        k(   44) = (   0.0833333   0.1666667   0.2500000), wk =   0.0138889
        k(   45) = (   0.0833333   0.1666667   0.3333333), wk =   0.0277778
        k(   46) = (   0.0833333   0.1666667   0.4166667), wk =   0.0277778
        k(   47) = (   0.0833333   0.1666667  -0.5000000), wk =   0.0277778
        k(   48) = (   0.0833333   0.1666667  -0.4166667), wk =   0.0138889
        k(   49) = (   0.0833333   0.2500000   0.3333333), wk =   0.0138889
        k(   50) = (   0.0833333   0.2500000   0.4166667), wk =   0.0277778
        k(   51) = (   0.0833333   0.2500000  -0.5000000), wk =   0.0277778
        k(   52) = (   0.0833333   0.2500000  -0.4166667), wk =   0.0277778
        k(   53) = (   0.0833333   0.2500000  -0.3333333), wk =   0.0277778
        k(   54) = (   0.0833333   0.2500000  -0.2500000), wk =   0.0277778
        k(   55) = (   0.0833333   0.2500000  -0.1666667), wk =   0.0138889
        k(   56) = (   0.0833333   0.3333333   0.4166667), wk =   0.0138889
        k(   57) = (   0.0833333   0.3333333  -0.5000000), wk =   0.0277778
        k(   58) = (   0.0833333   0.3333333  -0.4166667), wk =   0.0277778
        k(   59) = (   0.0833333   0.3333333  -0.3333333), wk =   0.0277778
        k(   60) = (   0.0833333   0.3333333  -0.2500000), wk =   0.0138889
        k(   61) = (   0.0833333   0.4166667  -0.5000000), wk =   0.0138889
        k(   62) = (   0.0833333   0.4166667  -0.4166667), wk =   0.0277778
        k(   63) = (   0.0833333   0.4166667  -0.3333333), wk =   0.0138889
        k(   64) = (   0.0833333  -0.5000000  -0.4166667), wk =   0.0069444
        k(   65) = (   0.1666667   0.3333333  -0.5000000), wk =   0.0138889
        k(   66) = (   0.1666667   0.3333333  -0.4166667), wk =   0.0277778
        k(   67) = (   0.1666667   0.3333333  -0.3333333), wk =   0.0138889
        k(   68) = (   0.1666667   0.4166667  -0.4166667), wk =   0.0138889
        k(   69) = (   0.1666667   0.4166667  -0.3333333), wk =   0.0277778
        k(   70) = (   0.1666667   0.4166667  -0.2500000), wk =   0.0138889
        k(   71) = (   0.1666667  -0.5000000  -0.3333333), wk =   0.0069444
        k(   72) = (   0.2500000  -0.5000000  -0.2500000), wk =   0.0034722

     Dense  grid:    39693 G-vectors     FFT dimensions: (  48,  48,  48)

     Smooth grid:    14163 G-vectors     FFT dimensions: (  36,  36,  36)

     Dynamical RAM for                 wfc:       0.10 MB

     Dynamical RAM for     wfc (w. buffer):       2.14 MB

     Dynamical RAM for           str. fact:       0.30 MB

     Dynamical RAM for           local pot:       0.00 MB

     Dynamical RAM for          nlocal pot:       0.24 MB

     Dynamical RAM for                qrad:       5.74 MB

     Dynamical RAM for          rho,v,vnew:       1.09 MB

     Dynamical RAM for               rhoin:       0.36 MB

     Dynamical RAM for            rho*nmix:       2.42 MB

     Dynamical RAM for           G-vectors:       0.30 MB

     Dynamical RAM for          h,s,v(r/c):       0.04 MB

     Dynamical RAM for          <psi|beta>:       0.03 MB

     Dynamical RAM for      wfcinit/wfcrot:       0.28 MB

     Dynamical RAM for           addusdens:       2.16 MB

     Dynamical RAM for          addusforce:       2.11 MB

     Dynamical RAM for         addusstress:       2.26 MB

     Estimated static dynamical RAM per process >      11.19 MB

     Estimated max dynamical RAM per process >      15.87 MB

     Estimated total dynamical RAM >     772.20 MB

     Check: negative core charge=   -0.000004
     Generating pointlists ...
     new r_m :   0.2526 (alat units)  2.1096 (a.u.) for type    1
     new r_m :   0.2526 (alat units)  2.1096 (a.u.) for type    2
     new r_m :   0.2526 (alat units)  2.1096 (a.u.) for type    3
     new r_m :   0.2526 (alat units)  2.1096 (a.u.) for type    4

     The initial density is read from file :
     ./out/aiida.save/charge-density


     negative rho (up, down):  3.466E-03 1.088E-03
     Starting wfcs are   37 randomized atomic wfcs

     total cpu time spent up to now is        1.7 secs

     per-process dynamical memory:    23.1 Mb

     Self-consistent Calculation

     iteration #  1     ecut=    40.00 Ry     beta= 0.40
     ParO style diagonalization

---- Real-time Memory Report at c_bands before calling an iterative solver
            60 MiB given to the printing process from OS
            22 MiB allocation reported by mallinfo(arena+hblkhd)
        490189 MiB available memory on the node where the printing process lives
------------------
     ethr =  1.00E-05,  avg # of iterations = 13.1

     negative rho (up, down):  2.234E-03 1.152E-03

     total cpu time spent up to now is        3.6 secs

     total energy              =    -424.20660390 Ry
     estimated scf accuracy    <       0.31224295 Ry

     total magnetization       =    -0.05 Bohr mag/cell
     absolute magnetization    =     6.50 Bohr mag/cell

     iteration #  2     ecut=    40.00 Ry     beta= 0.40
     ParO style diagonalization

---- Real-time Memory Report at c_bands before calling an iterative solver
            65 MiB given to the printing process from OS
            25 MiB allocation reported by mallinfo(arena+hblkhd)
        490011 MiB available memory on the node where the printing process lives
------------------
     ethr =  7.43E-04,  avg # of iterations =  7.4

     negative rho (up, down):  2.252E-03 1.104E-03

     total cpu time spent up to now is        4.8 secs

     total energy              =    -424.05198794 Ry
     estimated scf accuracy    <       4.26370249 Ry

     total magnetization       =     0.00 Bohr mag/cell
     absolute magnetization    =     3.32 Bohr mag/cell

     iteration #  3     ecut=    40.00 Ry     beta= 0.40
     ParO style diagonalization

---- Real-time Memory Report at c_bands before calling an iterative solver
            65 MiB given to the printing process from OS
            26 MiB allocation reported by mallinfo(arena+hblkhd)
        490009 MiB available memory on the node where the printing process lives
------------------
     ethr =  7.43E-04,  avg # of iterations =  6.6
     Minimization algorithm failed to find Fermi energy: reverting to bisection
     Possible cause: smearing is larger than the electronic band-gap.

     negative rho (up, down):  2.093E-03 1.120E-03

     total cpu time spent up to now is        5.9 secs

     total energy              =    -424.31684141 Ry
     estimated scf accuracy    <       0.43940859 Ry

     total magnetization       =    -0.17 Bohr mag/cell
     absolute magnetization    =     5.57 Bohr mag/cell

     iteration #  4     ecut=    40.00 Ry     beta= 0.40
     ParO style diagonalization

---- Real-time Memory Report at c_bands before calling an iterative solver
            66 MiB given to the printing process from OS
            26 MiB allocation reported by mallinfo(arena+hblkhd)
        490038 MiB available memory on the node where the printing process lives
------------------
     ethr =  7.43E-04,  avg # of iterations =  5.1
     Minimization algorithm failed to find Fermi energy: reverting to bisection
     Possible cause: smearing is larger than the electronic band-gap.

     negative rho (up, down):  1.616E-03 1.299E-03

     total cpu time spent up to now is        6.7 secs

     total energy              =    -424.35499643 Ry
     estimated scf accuracy    <       0.00772077 Ry

     total magnetization       =     0.06 Bohr mag/cell
     absolute magnetization    =     5.90 Bohr mag/cell

     iteration #  5     ecut=    40.00 Ry     beta= 0.40
     ParO style diagonalization

---- Real-time Memory Report at c_bands before calling an iterative solver
            66 MiB given to the printing process from OS
            26 MiB allocation reported by mallinfo(arena+hblkhd)
        490038 MiB available memory on the node where the printing process lives
------------------
     ethr =  1.84E-05,  avg # of iterations =  5.3
     Minimization algorithm failed to find Fermi energy: reverting to bisection
     Possible cause: smearing is larger than the electronic band-gap.

     negative rho (up, down):  1.073E-03 1.855E-03

     total cpu time spent up to now is        7.7 secs

     total energy              =    -424.35743846 Ry
     estimated scf accuracy    <       0.00217537 Ry

     total magnetization       =     0.06 Bohr mag/cell
     absolute magnetization    =     5.96 Bohr mag/cell

     iteration #  6     ecut=    40.00 Ry     beta= 0.40
     ParO style diagonalization

---- Real-time Memory Report at c_bands before calling an iterative solver
            66 MiB given to the printing process from OS
            26 MiB allocation reported by mallinfo(arena+hblkhd)
        490035 MiB available memory on the node where the printing process lives
------------------
     ethr =  5.18E-06,  avg # of iterations =  5.7
     Minimization algorithm failed to find Fermi energy: reverting to bisection
     Possible cause: smearing is larger than the electronic band-gap.

     negative rho (up, down):  1.019E-03 1.924E-03

     total cpu time spent up to now is        8.7 secs

     total energy              =    -424.35772715 Ry
     estimated scf accuracy    <       0.00011692 Ry

     total magnetization       =     0.05 Bohr mag/cell
     absolute magnetization    =     5.93 Bohr mag/cell

     iteration #  7     ecut=    40.00 Ry     beta= 0.40
     ParO style diagonalization

---- Real-time Memory Report at c_bands before calling an iterative solver
            66 MiB given to the printing process from OS
            26 MiB allocation reported by mallinfo(arena+hblkhd)
        490034 MiB available memory on the node where the printing process lives
------------------
     ethr =  2.78E-07,  avg # of iterations =  5.6
     Minimization algorithm failed to find Fermi energy: reverting to bisection
     Possible cause: smearing is larger than the electronic band-gap.

     negative rho (up, down):  9.975E-04 1.945E-03

     total cpu time spent up to now is        9.7 secs

     total energy              =    -424.35775432 Ry
     estimated scf accuracy    <       0.00000866 Ry

     total magnetization       =     0.05 Bohr mag/cell
     absolute magnetization    =     5.94 Bohr mag/cell

     iteration #  8     ecut=    40.00 Ry     beta= 0.40
     ParO style diagonalization

---- Real-time Memory Report at c_bands before calling an iterative solver
            66 MiB given to the printing process from OS
            26 MiB allocation reported by mallinfo(arena+hblkhd)
        490033 MiB available memory on the node where the printing process lives
------------------
     ethr =  2.06E-08,  avg # of iterations =  7.3
     Minimization algorithm failed to find Fermi energy: reverting to bisection
     Possible cause: smearing is larger than the electronic band-gap.

     negative rho (up, down):  9.952E-04 1.947E-03

     total cpu time spent up to now is       10.9 secs

     total energy              =    -424.35775867 Ry
     estimated scf accuracy    <       0.00000067 Ry

     total magnetization       =     0.05 Bohr mag/cell
     absolute magnetization    =     5.94 Bohr mag/cell

     iteration #  9     ecut=    40.00 Ry     beta= 0.40
     ParO style diagonalization

---- Real-time Memory Report at c_bands before calling an iterative solver
            67 MiB given to the printing process from OS
            26 MiB allocation reported by mallinfo(arena+hblkhd)
        490032 MiB available memory on the node where the printing process lives
------------------
     ethr =  1.60E-09,  avg # of iterations =  6.8
     Minimization algorithm failed to find Fermi energy: reverting to bisection
     Possible cause: smearing is larger than the electronic band-gap.

     negative rho (up, down):  9.948E-04 1.947E-03

     total cpu time spent up to now is       12.1 secs

     total energy              =    -424.35775892 Ry
     estimated scf accuracy    <       0.00000009 Ry

     total magnetization       =     0.05 Bohr mag/cell
     absolute magnetization    =     5.94 Bohr mag/cell

     iteration # 10     ecut=    40.00 Ry     beta= 0.40
     ParO style diagonalization

---- Real-time Memory Report at c_bands before calling an iterative solver
            67 MiB given to the printing process from OS
            26 MiB allocation reported by mallinfo(arena+hblkhd)
        490030 MiB available memory on the node where the printing process lives
------------------
     ethr =  2.10E-10,  avg # of iterations =  6.5
     Minimization algorithm failed to find Fermi energy: reverting to bisection
     Possible cause: smearing is larger than the electronic band-gap.

     negative rho (up, down):  9.946E-04 1.947E-03

     total cpu time spent up to now is       13.1 secs

     total energy              =    -424.35775895 Ry
     estimated scf accuracy    <          4.2E-09 Ry

     total magnetization       =     0.05 Bohr mag/cell
     absolute magnetization    =     5.94 Bohr mag/cell

     iteration # 11     ecut=    40.00 Ry     beta= 0.40
     ParO style diagonalization

---- Real-time Memory Report at c_bands before calling an iterative solver
            67 MiB given to the printing process from OS
            26 MiB allocation reported by mallinfo(arena+hblkhd)
        490028 MiB available memory on the node where the printing process lives
------------------
     ethr =  1.00E-11,  avg # of iterations =  6.6
     Minimization algorithm failed to find Fermi energy: reverting to bisection
     Possible cause: smearing is larger than the electronic band-gap.

     negative rho (up, down):  9.945E-04 1.946E-03

     total cpu time spent up to now is       14.2 secs

     total energy              =    -424.35775896 Ry
     estimated scf accuracy    <          2.2E-09 Ry

     total magnetization       =     0.05 Bohr mag/cell
     absolute magnetization    =     5.94 Bohr mag/cell

     iteration # 12     ecut=    40.00 Ry     beta= 0.40
     ParO style diagonalization

---- Real-time Memory Report at c_bands before calling an iterative solver
            67 MiB given to the printing process from OS
            26 MiB allocation reported by mallinfo(arena+hblkhd)
        490027 MiB available memory on the node where the printing process lives
------------------
     ethr =  5.15E-12,  avg # of iterations =  6.6
     Minimization algorithm failed to find Fermi energy: reverting to bisection
     Possible cause: smearing is larger than the electronic band-gap.

     negative rho (up, down):  9.943E-04 1.946E-03

     Magnetic moment per site  (integrated on atomic sphere of radius R)
     atom   1 (R=0.253)  charge=  8.6355  magn= -0.1180
     atom   2 (R=0.253)  charge= 11.5150  magn= -2.1979
     atom   3 (R=0.253)  charge= 12.6330  magn=  2.6553
     atom   4 (R=0.253)  charge=  2.5568  magn= -0.0274

     total cpu time spent up to now is       15.3 secs

     End of self-consistent calculation

 ------ SPIN UP ------------


          k = 0.0000 0.0000 0.0000 (  1807 PWs)   bands (ev):

   -57.2202 -47.1617 -28.7064 -28.7064 -28.7064 -25.9291 -21.1987 -21.1987
   -21.1987  -6.2176  -6.2176  -6.2176   5.5759  12.2627  12.2627  12.2627
    12.3437  12.3437  14.7831  14.7831  14.7831  16.0680  16.0680  16.0680
    16.7312  16.7312  17.9993  19.2512  19.2512

     occupation numbers 
     1.0000   1.0000   1.0000   1.0000   1.0000   1.0000   1.0000   1.0000
     1.0000   1.0000   1.0000   1.0000   1.0000   1.0000   1.0000   1.0000
     1.0000   1.0000   0.5571   0.5571   0.5571   0.0000   0.0000   0.0000
     0.0000   0.0000   0.0000   0.0000   0.0000

          k = 0.0589 0.0589-0.0589 (  1789 PWs)   bands (ev):

   -57.2202 -47.1617 -28.7071 -28.7064 -28.7064 -25.9287 -21.1988 -21.1988
   -21.1980  -6.2242  -6.2172  -6.2172   5.6615  12.0338  12.0338  12.1479
    12.6180  12.6180  14.5967  14.7086  14.7086  15.9603  16.0331  16.0331
    16.8395  16.8395  18.1624  19.2542  19.2542

     occupation numbers 
     1.0000   1.0000   1.0000   1.0000   1.0000   1.0000   1.0000   1.0000
     1.0000   1.0000   1.0000   1.0000   1.0000   1.0000   1.0000   1.0000
     1.0000   1.0000   0.9922   0.7598   0.7598   0.0000   0.0000   0.0000
     0.0000   0.0000   0.0000   0.0000   0.0000

          k = 0.1179 0.1179-0.1179 (  1769 PWs)   bands (ev):

   -57.2202 -47.1616 -28.7091 -28.7065 -28.7065 -25.9275 -21.1992 -21.1992
   -21.1962  -6.2419  -6.2163  -6.2163   5.9055  11.8336  11.8336  11.8337
    12.9349  12.9349  14.1160  14.5391  14.5391  15.8701  15.9707  15.9707
    17.0656  17.0656  18.5201  19.2853  19.2853

     occupation numbers 
     1.0000   1.0000   1.0000   1.0000   1.0000   1.0000   1.0000   1.0000
     1.0000   1.0000   1.0000   1.0000   1.0000   1.0000   1.0000   1.0000
     1.0000   1.0000   1.0058   1.0553   1.0553   0.0000   0.0000   0.0000
     0.0000   0.0000   0.0000   0.0000   0.0000

          k = 0.1768 0.1768-0.1768 (  1778 PWs)   bands (ev):

   -57.2202 -47.1615 -28.7119 -28.7066 -28.7066 -25.9260 -21.1997 -21.1997
   -21.1937  -6.2653  -6.2150  -6.2150   6.2700  11.3598  11.7010  11.7010
    13.1974  13.1974  13.6626  14.3800  14.3800  15.8836  15.9008  15.9008
    17.3012  17.3012  18.7799  19.3820  19.3820

     occupation numbers 
     1.0000   1.0000   1.0000   1.0000   1.0000   1.0000   1.0000   1.0000
     1.0000   1.0000   1.0000   1.0000   1.0000   1.0000   1.0000   1.0000
     1.0000   1.0000   1.0000   1.0690   1.0690   0.0000   0.0000   0.0000
     0.0000   0.0000   0.0000   0.0000   0.0000

          k = 0.2357 0.2357-0.2357 (  1760 PWs)   bands (ev):

   -57.2201 -47.1615 -28.7146 -28.7067 -28.7067 -25.9244 -21.2002 -21.2002
   -21.1913  -6.2878  -6.2137  -6.2137   6.6913  10.7896  11.6276  11.6276
    13.3408  13.3408  13.4631  14.3131  14.3131  15.8213  15.8213  15.9248
    17.5127  17.5127  18.7447  19.5736  19.5736

     occupation numbers 
     1.0000   1.0000   1.0000   1.0000   1.0000   1.0000   1.0000   1.0000
     1.0000   1.0000   1.0000   1.0000   1.0000   1.0000   1.0000   1.0000
     1.0000   1.0000   1.0000   1.0464   1.0464   0.0000   0.0000   0.0000
     0.0000   0.0000   0.0000   0.0000   0.0000

          k = 0.2946 0.2946-0.2946 (  1760 PWs)   bands (ev):

   -57.2201 -47.1614 -28.7167 -28.7068 -28.7068 -25.9233 -21.2006 -21.2006
   -21.1896  -6.3037  -6.2127  -6.2127   7.0655  10.2859  11.5958  11.5958
    13.3723  13.3723  13.4745  14.3293  14.3293  15.7515  15.7515  15.9417
    17.6714  17.6714  18.4566  19.8675  19.8675

     occupation numbers 
     1.0000   1.0000   1.0000   1.0000   1.0000   1.0000   1.0000   1.0000
     1.0000   1.0000   1.0000   1.0000   1.0000   1.0000   1.0000   1.0000
     1.0000   1.0000   1.0000   1.0519   1.0519   0.0000   0.0000   0.0000
     0.0000   0.0000   0.0000   0.0000   0.0000

          k =-0.3536-0.3536 0.3536 (  1772 PWs)   bands (ev):

   -57.2201 -47.1614 -28.7174 -28.7068 -28.7068 -25.9229 -21.2008 -21.2008
   -21.1890  -6.3094  -6.2124  -6.2124   7.2277  10.0739  11.5877  11.5877
    13.3700  13.3700  13.5151  14.3478  14.3478  15.7231  15.7231  15.9379
    17.7318  17.7318  18.2843  19.9449  20.0857

     occupation numbers 
     1.0000   1.0000   1.0000   1.0000   1.0000   1.0000   1.0000   1.0000
     1.0000   1.0000   1.0000   1.0000   1.0000   1.0000   1.0000   1.0000
     1.0000   1.0000   1.0000   1.0583   1.0583   0.0000   0.0000   0.0000
     0.0000   0.0000   0.0000   0.0000   0.0000

          k = 0.1179 0.0000-0.0000 (  1772 PWs)   bands (ev):

   -57.2202 -47.1617 -28.7073 -28.7065 -28.7065 -25.9285 -21.1989 -21.1989
   -21.1976  -6.2255  -6.2175  -6.2175   5.6891  11.7386  12.2945  12.2945
    12.4021  12.7229  14.4808  14.7268  14.7268  15.9060  16.0418  16.0418
    16.7348  16.9492  18.1805  19.2409  19.5092

     occupation numbers 
     1.0000   1.0000   1.0000   1.0000   1.0000   1.0000   1.0000   1.0000
     1.0000   1.0000   1.0000   1.0000   1.0000   1.0000   1.0000   1.0000
     1.0000   1.0000   1.0813   0.7118   0.7118   0.0000   0.0000   0.0000
     0.0000   0.0000   0.0000   0.0000   0.0000

          k = 0.1768 0.0589-0.0589 (  1771 PWs)   bands (ev):

   -57.2202 -47.1616 -28.7088 -28.7066 -28.7065 -25.9276 -21.1993 -21.1993
   -21.1960  -6.2387  -6.2171  -6.2170   5.8772  11.4426  12.1207  12.1916
    12.6971  12.9678  14.1294  14.5484  14.6145  15.8319  16.0048  16.0104
    16.8269  17.1499  18.4163  19.1806  19.5888

     occupation numbers 
     1.0000   1.0000   1.0000   1.0000   1.0000   1.0000   1.0000   1.0000
     1.0000   1.0000   1.0000   1.0000   1.0000   1.0000   1.0000   1.0000
     1.0000   1.0000   1.0069   1.0477   0.9644   0.0000   0.0000   0.0000
     0.0000   0.0000   0.0000   0.0000   0.0000

          k = 0.2357 0.1179-0.1179 (  1772 PWs)   bands (ev):

   -57.2202 -47.1616 -28.7113 -28.7067 -28.7066 -25.9262 -21.1999 -21.1998
   -21.1936  -6.2591  -6.2165  -6.2162   6.1952  11.1671  11.9403  11.9549
    13.0059  13.2262  13.6998  14.3167  14.4617  15.8187  15.9481  16.0132
    17.0273  17.3740  18.7348  19.1725  19.5168

     occupation numbers 
     1.0000   1.0000   1.0000   1.0000   1.0000   1.0000   1.0000   1.0000
     1.0000   1.0000   1.0000   1.0000   1.0000   1.0000   1.0000   1.0000
     1.0000   1.0000   1.0000   1.0476   1.0832   0.0000   0.0000   0.0000
     0.0000   0.0000   0.0000   0.0000   0.0000

          k = 0.2946 0.1768-0.1768 (  1768 PWs)   bands (ev):

   -57.2201 -47.1615 -28.7141 -28.7068 -28.7068 -25.9247 -21.2006 -21.2003
   -21.1910  -6.2805  -6.2164  -6.2149   6.5872  10.8393  11.6799  11.8315
    13.2180  13.3467  13.4925  14.1947  14.3623  15.7848  15.8786  16.0547
    17.2756  17.5311  18.8731  19.2961  19.5425

     occupation numbers 
     1.0000   1.0000   1.0000   1.0000   1.0000   1.0000   1.0000   1.0000
     1.0000   1.0000   1.0000   1.0000   1.0000   1.0000   1.0000   1.0000
     1.0000   1.0000   1.0000   1.0154   1.0632   0.0000   0.0000   0.0000
     0.0000   0.0000   0.0000   0.0000   0.0000

          k = 0.3536 0.2357-0.2357 (  1770 PWs)   bands (ev):

   -57.2201 -47.1614 -28.7163 -28.7069 -28.7069 -25.9234 -21.2012 -21.2007
   -21.1889  -6.2973  -6.2166  -6.2136   6.9663  10.4395  11.5512  11.7355
    13.3167  13.3581  13.4936  14.2047  14.3338  15.7555  15.8148  16.0544
    17.5186  17.6197  18.6607  19.5243  19.7200

     occupation numbers 
     1.0000   1.0000   1.0000   1.0000   1.0000   1.0000   1.0000   1.0000
     1.0000   1.0000   1.0000   1.0000   1.0000   1.0000   1.0000   1.0000
     1.0000   1.0000   1.0000   1.0172   1.0534   0.0000   0.0000   0.0000
     0.0000   0.0000   0.0000   0.0000   0.0000

          k =-0.2946-0.4125 0.4125 (  1754 PWs)   bands (ev):

   -57.2201 -47.1614 -28.7175 -28.7070 -28.7069 -25.9227 -21.2016 -21.2009
   -21.1878  -6.3056  -6.2171  -6.2127   7.1982  10.1688  11.5491  11.6529
    13.3647  13.3751  13.4983  14.2661  14.3151  15.7538  15.7871  16.0015
    17.6436  17.6789  18.4225  19.6127  19.9608

     occupation numbers 
     1.0000   1.0000   1.0000   1.0000   1.0000   1.0000   1.0000   1.0000
     1.0000   1.0000   1.0000   1.0000   1.0000   1.0000   1.0000   1.0000
     1.0000   1.0000   1.0000   1.0317   1.0470   0.0000   0.0000   0.0000
     0.0000   0.0000   0.0000   0.0000   0.0000

          k =-0.2357-0.3536 0.3536 (  1759 PWs)   bands (ev):

   -57.2201 -47.1614 -28.7172 -28.7070 -28.7068 -25.9228 -21.2016 -21.2008
   -21.1880  -6.3037  -6.2177  -6.2124   7.1488  10.2313  11.5827  11.6214
    13.3468  13.4155  13.4673  14.2639  14.3006  15.7250  15.8065  16.0338
    17.5792  17.7211  18.4716  19.6574  19.8276

     occupation numbers 
     1.0000   1.0000   1.0000   1.0000   1.0000   1.0000   1.0000   1.0000
     1.0000   1.0000   1.0000   1.0000   1.0000   1.0000   1.0000   1.0000
     1.0000   1.0000   1.0000   1.0311   1.0422   0.0000   0.0000   0.0000
     0.0000   0.0000   0.0000   0.0000   0.0000

          k =-0.1768-0.2946 0.2946 (  1766 PWs)   bands (ev):

   -57.2201 -47.1614 -28.7156 -28.7070 -28.7067 -25.9237 -21.2013 -21.2004
   -21.1895  -6.2919  -6.2183  -6.2128   6.8511  10.5916  11.5402  11.7583
    13.2826  13.4171  13.4530  14.2053  14.3037  15.7155  15.8570  16.0965
    17.4030  17.6720  18.7630  19.4853  19.6659

     occupation numbers 
     1.0000   1.0000   1.0000   1.0000   1.0000   1.0000   1.0000   1.0000
     1.0000   1.0000   1.0000   1.0000   1.0000   1.0000   1.0000   1.0000
     1.0000   1.0000   1.0000   1.0173   1.0432   0.0000   0.0000   0.0000
     0.0000   0.0000   0.0000   0.0000   0.0000

          k =-0.1179-0.2357 0.2357 (  1769 PWs)   bands (ev):

   -57.2201 -47.1615 -28.7131 -28.7069 -28.7066 -25.9252 -21.2006 -21.1999
   -21.1919  -6.2730  -6.2186  -6.2137   6.4551  11.0423  11.5483  11.9707
    13.1390  13.3909  13.5055  14.2275  14.3384  15.7573  15.9123  16.0945
    17.1659  17.5599  18.9324  19.2032  19.5571

     occupation numbers 
     1.0000   1.0000   1.0000   1.0000   1.0000   1.0000   1.0000   1.0000
     1.0000   1.0000   1.0000   1.0000   1.0000   1.0000   1.0000   1.0000
     1.0000   1.0000   1.0000   1.0219   1.0550   0.0000   0.0000   0.0000
     0.0000   0.0000   0.0000   0.0000   0.0000

          k =-0.0589-0.1768 0.1768 (  1773 PWs)   bands (ev):

   -57.2202 -47.1616 -28.7104 -28.7067 -28.7065 -25.9267 -21.1999 -21.1994
   -21.1945  -6.2516  -6.2185  -6.2150   6.0792  11.4413  11.6278  12.2038
    12.8813  13.1885  13.8551  14.3707  14.4579  15.8156  15.9571  16.0561
    16.9473  17.3701  18.7497  19.0583  19.5599

     occupation numbers 
     1.0000   1.0000   1.0000   1.0000   1.0000   1.0000   1.0000   1.0000
     1.0000   1.0000   1.0000   1.0000   1.0000   1.0000   1.0000   1.0000
     1.0000   1.0000   1.0001   1.0660   1.0833   0.0000   0.0000   0.0000
     0.0000   0.0000   0.0000   0.0000   0.0000

          k =-0.0000-0.1179 0.1179 (  1769 PWs)   bands (ev):

   -57.2202 -47.1617 -28.7082 -28.7065 -28.7064 -25.9280 -21.1992 -21.1990
   -21.1968  -6.2335  -6.2179  -6.2163   5.7989  11.7892  11.7903  12.3202
    12.6141  12.9091  14.3177  14.5630  14.6319  15.8765  15.9956  16.0315
    16.8213  17.0995  18.3871  19.0842  19.6603

     occupation numbers 
     1.0000   1.0000   1.0000   1.0000   1.0000   1.0000   1.0000   1.0000
     1.0000   1.0000   1.0000   1.0000   1.0000   1.0000   1.0000   1.0000
     1.0000   1.0000   1.0479   1.0340   0.9335   0.0000   0.0000   0.0000
     0.0000   0.0000   0.0000   0.0000   0.0000

          k = 0.2357 0.0000-0.0000 (  1776 PWs)   bands (ev):

   -57.2202 -47.1616 -28.7098 -28.7067 -28.7067 -25.9270 -21.1996 -21.1996
   -21.1947  -6.2462  -6.2174  -6.2174   5.9987  11.1005  12.3821  12.3821
    12.5699  13.0230  13.8746  14.5655  14.5655  15.7355  16.0365  16.0365
    16.7487  17.1829  18.3592  19.3477  19.5732

     occupation numbers 
     1.0000   1.0000   1.0000   1.0000   1.0000   1.0000   1.0000   1.0000
     1.0000   1.0000   1.0000   1.0000   1.0000   1.0000   1.0000   1.0000
     1.0000   1.0000   1.0001   1.0314   1.0314   0.0000   0.0000   0.0000
     0.0000   0.0000   0.0000   0.0000   0.0000

          k = 0.2946 0.0589-0.0589 (  1770 PWs)   bands (ev):

   -57.2202 -47.1615 -28.7118 -28.7068 -28.7068 -25.9258 -21.2003 -21.2002
   -21.1924  -6.2614  -6.2179  -6.2170   6.2463  10.8359  12.2723  12.3032
    12.8465  13.1523  13.5911  14.3576  14.4425  15.7595  16.0407  16.0672
    16.8370  17.2933  18.4581  19.3492  19.4034

     occupation numbers 
     1.0000   1.0000   1.0000   1.0000   1.0000   1.0000   1.0000   1.0000
     1.0000   1.0000   1.0000   1.0000   1.0000   1.0000   1.0000   1.0000
     1.0000   1.0000   1.0000   1.0616   1.0827   0.0000   0.0000   0.0000
     0.0000   0.0000   0.0000   0.0000   0.0000

          k = 0.3536 0.1179-0.1179 (  1756 PWs)   bands (ev):

   -57.2201 -47.1615 -28.7142 -28.7070 -28.7070 -25.9244 -21.2011 -21.2007
   -21.1897  -6.2778  -6.2201  -6.2161   6.5699  10.6515  12.0113  12.1266
    13.1096  13.1769  13.5207  14.1411  14.3336  15.7933  16.0143  16.1490
    17.0485  17.3933  18.6236  19.2368  19.4763

     occupation numbers 
     1.0000   1.0000   1.0000   1.0000   1.0000   1.0000   1.0000   1.0000
     1.0000   1.0000   1.0000   1.0000   1.0000   1.0000   1.0000   1.0000
     1.0000   1.0000   1.0000   1.0081   1.0534   0.0000   0.0000   0.0000
     0.0000   0.0000   0.0000   0.0000   0.0000

          k = 0.4125 0.1768-0.1768 (  1759 PWs)   bands (ev):

   -57.2201 -47.1614 -28.7164 -28.7072 -28.7070 -25.9231 -21.2021 -21.2011
   -21.1871  -6.2906  -6.2240  -6.2148   6.8961  10.5119  11.6644  11.9853
    13.2203  13.2653  13.5437  14.0623  14.2756  15.7931  15.9769  16.2071
    17.3216  17.4271  18.6618  19.3079  19.4591

     occupation numbers 
     1.0000   1.0000   1.0000   1.0000   1.0000   1.0000   1.0000   1.0000
     1.0000   1.0000   1.0000   1.0000   1.0000   1.0000   1.0000   1.0000
     1.0000   1.0000   1.0000   1.0027   1.0344   0.0000   0.0000   0.0000
     0.0000   0.0000   0.0000   0.0000   0.0000

          k =-0.2357-0.4714 0.4714 (  1767 PWs)   bands (ev):

   -57.2201 -47.1613 -28.7178 -28.7074 -28.7070 -25.9222 -21.2029 -21.2012
   -21.1855  -6.2970  -6.2282  -6.2136   7.1305  10.3888  11.4889  11.8389
    13.3137  13.3567  13.5185  14.0924  14.2303  15.8213  15.9566  16.1454
    17.4469  17.5471  18.5211  19.3361  19.5856

     occupation numbers 
     1.0000   1.0000   1.0000   1.0000   1.0000   1.0000   1.0000   1.0000
     1.0000   1.0000   1.0000   1.0000   1.0000   1.0000   1.0000   1.0000
     1.0000   1.0000   1.0000   1.0041   1.0225   0.0000   0.0000   0.0000
     0.0000   0.0000   0.0000   0.0000   0.0000

          k =-0.1768-0.4125 0.4125 (  1761 PWs)   bands (ev):

   -57.2201 -47.1613 -28.7179 -28.7075 -28.7069 -25.9221 -21.2032 -21.2011
   -21.1853  -6.2962  -6.2311  -6.2127   7.1764  10.3707  11.5256  11.6936
    13.3429  13.4442  13.4620  14.1505  14.1614  15.7721  15.9598  16.1768
    17.4326  17.6568  18.4740  19.3230  19.7189

     occupation numbers 
     1.0000   1.0000   1.0000   1.0000   1.0000   1.0000   1.0000   1.0000
     1.0000   1.0000   1.0000   1.0000   1.0000   1.0000   1.0000   1.0000
     1.0000   1.0000   1.0000   1.0091   1.0104   0.0000   0.0000   0.0000
     0.0000   0.0000   0.0000   0.0000   0.0000

          k =-0.1179-0.3536 0.3536 (  1771 PWs)   bands (ev):

   -57.2201 -47.1614 -28.7168 -28.7075 -28.7068 -25.9228 -21.2030 -21.2008
   -21.1865  -6.2891  -6.2314  -6.2124   7.0086  10.5235  11.5729  11.7267
    13.3206  13.3464  13.5351  14.0795  14.1835  15.6765  15.9704  16.3272
    17.3105  17.6899  18.6898  19.4536  19.4591

     occupation numbers 
     1.0000   1.0000   1.0000   1.0000   1.0000   1.0000   1.0000   1.0000
     1.0000   1.0000   1.0000   1.0000   1.0000   1.0000   1.0000   1.0000
     1.0000   1.0000   1.0000   1.0034   1.0135   0.0000   0.0000   0.0000
     0.0000   0.0000   0.0000   0.0000   0.0000

          k =-0.0589-0.2946 0.2946 (  1762 PWs)   bands (ev):

   -57.2201 -47.1614 -28.7148 -28.7074 -28.7067 -25.9240 -21.2022 -21.2003
   -21.1888  -6.2777  -6.2286  -6.2128   6.7035  10.7787  11.5063  12.0565
    13.1564  13.3439  13.5542  14.0606  14.2086  15.6751  15.9715  16.3566
    17.1121  17.6868  19.0304  19.1717  19.5768

     occupation numbers 
     1.0000   1.0000   1.0000   1.0000   1.0000   1.0000   1.0000   1.0000
     1.0000   1.0000   1.0000   1.0000   1.0000   1.0000   1.0000   1.0000
     1.0000   1.0000   1.0000   1.0026   1.0179   0.0000   0.0000   0.0000
     0.0000   0.0000   0.0000   0.0000   0.0000

          k = 0.0000-0.2357 0.2357 (  1759 PWs)   bands (ev):

   -57.2201 -47.1615 -28.7125 -28.7071 -28.7065 -25.9255 -21.2011 -21.1997
   -21.1918  -6.2643  -6.2235  -6.2137   6.3652  11.0836  11.5195  12.3256
    12.9411  13.4174  13.5210  14.1819  14.2956  15.7361  15.9623  16.2491
    16.9536  17.6019  19.0084  19.0877  19.5316

     occupation numbers 
     1.0000   1.0000   1.0000   1.0000   1.0000   1.0000   1.0000   1.0000
     1.0000   1.0000   1.0000   1.0000   1.0000   1.0000   1.0000   1.0000
     1.0000   1.0000   1.0000   1.0133   1.0406   0.0000   0.0000   0.0000
     0.0000   0.0000   0.0000   0.0000   0.0000

          k = 0.3536 0.0000 0.0000 (  1748 PWs)   bands (ev):

   -57.2201 -47.1615 -28.7133 -28.7070 -28.7070 -25.9249 -21.2006 -21.2006
   -21.1905  -6.2725  -6.2173  -6.2173   6.4073  10.5932  12.5028  12.5028
    12.8228  12.9522  13.5223  14.3486  14.3486  15.7140  16.1352  16.1352
    16.7840  17.2026  18.3442  19.0363  19.5287

     occupation numbers 
     1.0000   1.0000   1.0000   1.0000   1.0000   1.0000   1.0000   1.0000
     1.0000   1.0000   1.0000   1.0000   1.0000   1.0000   1.0000   1.0000
     1.0000   1.0000   1.0000   1.0586   1.0586   0.0000   0.0000   0.0000
     0.0000   0.0000   0.0000   0.0000   0.0000

          k = 0.4125 0.0589-0.0589 (  1755 PWs)   bands (ev):

   -57.2201 -47.1614 -28.7153 -28.7072 -28.7071 -25.9237 -21.2014 -21.2011
   -21.1881  -6.2850  -6.2191  -6.2169   6.6352  10.4796  12.3315  12.4439
    12.8885  13.0491  13.5232  14.1808  14.2463  15.7977  16.1853  16.2128
    16.8934  17.1674  18.3898  18.8005  19.6338

     occupation numbers 
     1.0000   1.0000   1.0000   1.0000   1.0000   1.0000   1.0000   1.0000
     1.0000   1.0000   1.0000   1.0000   1.0000   1.0000   1.0000   1.0000
     1.0000   1.0000   1.0000   1.0131   1.0264   0.0000   0.0000   0.0000
     0.0000   0.0000   0.0000   0.0000   0.0000

          k = 0.4714 0.1179-0.1179 (  1753 PWs)   bands (ev):

   -57.2201 -47.1614 -28.7172 -28.7075 -28.7072 -25.9225 -21.2025 -21.2015
   -21.1855  -6.2928  -6.2254  -6.2160   6.8720  10.4959  11.9036  12.2989
    13.0361  13.2416  13.5031  14.0376  14.1779  15.8773  16.1915  16.2813
    17.1306  17.1396  18.4632  18.7501  19.6959

     occupation numbers 
     1.0000   1.0000   1.0000   1.0000   1.0000   1.0000   1.0000   1.0000
     1.0000   1.0000   1.0000   1.0000   1.0000   1.0000   1.0000   1.0000
     1.0000   1.0000   1.0000   1.0018   1.0127   0.0000   0.0000   0.0000
     0.0000   0.0000   0.0000   0.0000   0.0000

          k =-0.1768-0.5303 0.5303 (  1762 PWs)   bands (ev):

   -57.2201 -47.1613 -28.7185 -28.7078 -28.7072 -25.9216 -21.2036 -21.2017
   -21.1835  -6.2932  -6.2354  -6.2148   7.0595  10.5899  11.5291  12.1144
    13.2127  13.3635  13.4766  13.9762  14.1204  15.9206  16.1850  16.2664
    17.1208  17.3917  18.4271  18.9929  19.4401

     occupation numbers 
     1.0000   1.0000   1.0000   1.0000   1.0000   1.0000   1.0000   1.0000
     1.0000   1.0000   1.0000   1.0000   1.0000   1.0000   1.0000   1.0000
     1.0000   1.0000   1.0000   1.0006   1.0061   0.0000   0.0000   0.0000
     0.0000   0.0000   0.0000   0.0000   0.0000

          k =-0.1179-0.4714 0.4714 (  1753 PWs)   bands (ev):

   -57.2201 -47.1613 -28.7188 -28.7080 -28.7071 -25.9214 -21.2043 -21.2016
   -21.1828  -6.2867  -6.2460  -6.2136   7.1489  10.6565  11.3769  11.9076
    13.2597  13.4688  13.5170  13.9834  14.0484  15.8669  16.1697  16.2992
    17.1555  17.5281  18.3349  19.2951  19.4858

     occupation numbers 
     1.0000   1.0000   1.0000   1.0000   1.0000   1.0000   1.0000   1.0000
     1.0000   1.0000   1.0000   1.0000   1.0000   1.0000   1.0000   1.0000
     1.0000   1.0000   1.0000   1.0007   1.0021   0.0000   0.0000   0.0000
     0.0000   0.0000   0.0000   0.0000   0.0000

          k =-0.0589-0.4125 0.4125 (  1761 PWs)   bands (ev):

   -57.2201 -47.1613 -28.7181 -28.7080 -28.7070 -25.9218 -21.2043 -21.2012
   -21.1836  -6.2791  -6.2506  -6.2127   7.1094  10.6439  11.5115  11.7126
    13.2371  13.4847  13.5755  13.9745  14.0471  15.7122  16.1275  16.4879
    17.1808  17.6002  18.3544  19.3599  19.5167

     occupation numbers 
     1.0000   1.0000   1.0000   1.0000   1.0000   1.0000   1.0000   1.0000
     1.0000   1.0000   1.0000   1.0000   1.0000   1.0000   1.0000   1.0000
     1.0000   1.0000   1.0000   1.0006   1.0021   0.0000   0.0000   0.0000
     0.0000   0.0000   0.0000   0.0000   0.0000

          k = 0.0000-0.3536 0.3536 (  1750 PWs)   bands (ev):

   -57.2201 -47.1614 -28.7166 -28.7078 -28.7068 -25.9227 -21.2035 -21.2008
   -21.1858  -6.2781  -6.2420  -6.2124   6.9454  10.6547  11.5680  11.8131
    13.2358  13.3459  13.6327  13.9539  14.1162  15.6483  16.0538  16.5160
    17.1574  17.6678  18.6852  19.3105  19.5043

     occupation numbers 
     1.0000   1.0000   1.0000   1.0000   1.0000   1.0000   1.0000   1.0000
     1.0000   1.0000   1.0000   1.0000   1.0000   1.0000   1.0000   1.0000
     1.0000   1.0000   1.0000   1.0004   1.0058   0.0000   0.0000   0.0000
     0.0000   0.0000   0.0000   0.0000   0.0000

          k = 0.4714 0.0000-0.0000 (  1752 PWs)   bands (ev):

   -57.2201 -47.1614 -28.7169 -28.7073 -28.7073 -25.9227 -21.2016 -21.2016
   -21.1862  -6.2964  -6.2172  -6.2172   6.7529  10.4305  12.4758  12.6231
    12.6231  13.1119  13.5036  14.1489  14.1489  15.8276  16.3348  16.3348
    16.8626  16.9650  18.3425  18.4212  19.6698

     occupation numbers 
     1.0000   1.0000   1.0000   1.0000   1.0000   1.0000   1.0000   1.0000
     1.0000   1.0000   1.0000   1.0000   1.0000   1.0000   1.0000   1.0000
     1.0000   1.0000   1.0000   1.0089   1.0089   0.0000   0.0000   0.0000
     0.0000   0.0000   0.0000   0.0000   0.0000

          k = 0.5303 0.0589-0.0589 (  1746 PWs)   bands (ev):

   -57.2201 -47.1613 -28.7184 -28.7075 -28.7074 -25.9217 -21.2023 -21.2020
   -21.1842  -6.3035  -6.2202  -6.2169   6.8848  10.5219  12.1033  12.5813
    12.8187  13.2714  13.4205  14.0501  14.0796  15.9394  16.3907  16.4083
    16.8445  17.0157  18.2164  18.4019  19.7615

     occupation numbers 
     1.0000   1.0000   1.0000   1.0000   1.0000   1.0000   1.0000   1.0000
     1.0000   1.0000   1.0000   1.0000   1.0000   1.0000   1.0000   1.0000
     1.0000   1.0000   1.0000   1.0022   1.0034   0.0000   0.0000   0.0000
     0.0000   0.0000   0.0000   0.0000   0.0000

          k =-0.1179-0.5893 0.5893 (  1748 PWs)   bands (ev):

   -57.2201 -47.1613 -28.7194 -28.7078 -28.7074 -25.9210 -21.2034 -21.2021
   -21.1823  -6.3019  -6.2300  -6.2160   7.0034  10.7066  11.7035  12.4166
    13.0698  13.3158  13.3972  13.9733  14.0202  16.0210  16.3511  16.4217
    16.8051  17.2599  18.3204  18.4238  19.6090

     occupation numbers 
     1.0000   1.0000   1.0000   1.0000   1.0000   1.0000   1.0000   1.0000
     1.0000   1.0000   1.0000   1.0000   1.0000   1.0000   1.0000   1.0000
     1.0000   1.0000   1.0000   1.0006   1.0014   0.0000   0.0000   0.0000
     0.0000   0.0000   0.0000   0.0000   0.0000

          k =-0.0589-0.5303 0.5303 (  1749 PWs)   bands (ev):

   -57.2201 -47.1613 -28.7196 -28.7081 -28.7073 -25.9208 -21.2045 -21.2020
   -21.1813  -6.2910  -6.2450  -6.2148   7.0918  10.8980  11.3616  12.1829
    13.1760  13.4029  13.4938  13.9264  13.9561  15.9792  16.3856  16.3991
    16.7845  17.3984  18.3508  18.8672  19.3911

     occupation numbers 
     1.0000   1.0000   1.0000   1.0000   1.0000   1.0000   1.0000   1.0000
     1.0000   1.0000   1.0000   1.0000   1.0000   1.0000   1.0000   1.0000
     1.0000   1.0000   1.0000   1.0003   1.0004   0.0000   0.0000   0.0000
     0.0000   0.0000   0.0000   0.0000   0.0000

          k =-0.0000-0.4714 0.4714 (  1766 PWs)   bands (ev):

   -57.2201 -47.1613 -28.7191 -28.7082 -28.7072 -25.9210 -21.2048 -21.2017
   -21.1817  -6.2738  -6.2615  -6.2136   7.1335  10.8740  11.2874  11.9305
    13.1811  13.5478  13.5618  13.9280  13.9368  15.8272  16.2819  16.5387
    16.8928  17.4890  18.2550  19.3468  19.5567

     occupation numbers 
     1.0000   1.0000   1.0000   1.0000   1.0000   1.0000   1.0000   1.0000
     1.0000   1.0000   1.0000   1.0000   1.0000   1.0000   1.0000   1.0000
     1.0000   1.0000   1.0000   1.0003   1.0003   0.0000   0.0000   0.0000
     0.0000   0.0000   0.0000   0.0000   0.0000

          k = 0.5893 0.0000-0.0000 (  1748 PWs)   bands (ev):

   -57.2201 -47.1613 -28.7196 -28.7075 -28.7075 -25.9210 -21.2023 -21.2023
   -21.1830  -6.3125  -6.2172  -6.2172   6.9191  10.6371  12.1274  12.7093
    12.7093  13.3016  13.3556  14.0170  14.0170  16.0197  16.5655  16.5655
    16.5986  17.0198  17.8413  18.4345  19.7465

     occupation numbers 
     1.0000   1.0000   1.0000   1.0000   1.0000   1.0000   1.0000   1.0000
     1.0000   1.0000   1.0000   1.0000   1.0000   1.0000   1.0000   1.0000
     1.0000   1.0000   1.0000   1.0013   1.0013   0.0000   0.0000   0.0000
     0.0000   0.0000   0.0000   0.0000   0.0000

          k =-0.0589-0.6482 0.6482 (  1746 PWs)   bands (ev):

   -57.2201 -47.1613 -28.7202 -28.7077 -28.7076 -25.9206 -21.2029 -21.2025
   -21.1818  -6.3133  -6.2210  -6.2168   6.9673  10.7906  11.9059  12.6522
    12.8589  13.1801  13.4393  13.9726  13.9769  16.1094  16.4044  16.6088
    16.6698  17.1932  17.7506  18.4733  19.6872

     occupation numbers 
     1.0000   1.0000   1.0000   1.0000   1.0000   1.0000   1.0000   1.0000
     1.0000   1.0000   1.0000   1.0000   1.0000   1.0000   1.0000   1.0000
     1.0000   1.0000   1.0000   1.0006   1.0007   0.0000   0.0000   0.0000
     0.0000   0.0000   0.0000   0.0000   0.0000

          k = 0.0000-0.5893 0.5893 (  1744 PWs)   bands (ev):

   -57.2201 -47.1612 -28.7202 -28.7079 -28.7075 -25.9205 -21.2038 -21.2024
   -21.1811  -6.3048  -6.2318  -6.2159   7.0269  10.9009  11.6077  12.4556
    13.1065  13.1606  13.4916  13.9310  13.9484  16.0754  16.4087  16.5479
    16.6443  17.3068  18.1536  18.4387  19.5001

     occupation numbers 
     1.0000   1.0000   1.0000   1.0000   1.0000   1.0000   1.0000   1.0000
     1.0000   1.0000   1.0000   1.0000   1.0000   1.0000   1.0000   1.0000
     1.0000   1.0000   1.0000   1.0003   1.0004   0.0000   0.0000   0.0000
     0.0000   0.0000   0.0000   0.0000   0.0000

          k =-0.7071 0.0000 0.0000 (  1756 PWs)   bands (ev):

   -57.2201 -47.1612 -28.7206 -28.7076 -28.7076 -25.9204 -21.2026 -21.2026
   -21.1818  -6.3180  -6.2171  -6.2171   6.9546  10.8306  12.0069  12.7400
    12.7400  13.1242  13.4538  13.9721  13.9721  16.1879  16.3580  16.6788
    16.6788  17.2137  17.4840  18.4984  19.7668

     occupation numbers 
     1.0000   1.0000   1.0000   1.0000   1.0000   1.0000   1.0000   1.0000
     1.0000   1.0000   1.0000   1.0000   1.0000   1.0000   1.0000   1.0000
     1.0000   1.0000   1.0000   1.0006   1.0006   0.0000   0.0000   0.0000
     0.0000   0.0000   0.0000   0.0000   0.0000

          k = 0.2357 0.1179 0.0000 (  1775 PWs)   bands (ev):

   -57.2202 -47.1616 -28.7106 -28.7068 -28.7066 -25.9266 -21.2000 -21.1996
   -21.1940  -6.2519  -6.2190  -6.2158   6.0981  11.1414  11.9327  12.3783
    12.7716  13.1764  13.7858  14.4033  14.4555  15.8049  15.9643  16.0886
    16.8505  17.3394  18.5753  19.2124  19.5598

     occupation numbers 
     1.0000   1.0000   1.0000   1.0000   1.0000   1.0000   1.0000   1.0000
     1.0000   1.0000   1.0000   1.0000   1.0000   1.0000   1.0000   1.0000
     1.0000   1.0000   1.0000   1.0756   1.0833   0.0000   0.0000   0.0000
     0.0000   0.0000   0.0000   0.0000   0.0000

          k = 0.2946 0.1768-0.0589 (  1763 PWs)   bands (ev):

   -57.2201 -47.1615 -28.7130 -28.7070 -28.7067 -25.9252 -21.2010 -21.2000
   -21.1913  -6.2688  -6.2215  -6.2146   6.4205  10.8852  11.7582  12.2267
    13.0140  13.3379  13.5113  14.1932  14.3245  15.7752  15.9433  16.1950
    16.9948  17.5086  18.7759  19.2804  19.4665

     occupation numbers 
     1.0000   1.0000   1.0000   1.0000   1.0000   1.0000   1.0000   1.0000
     1.0000   1.0000   1.0000   1.0000   1.0000   1.0000   1.0000   1.0000
     1.0000   1.0000   1.0000   1.0151   1.0502   0.0000   0.0000   0.0000
     0.0000   0.0000   0.0000   0.0000   0.0000

          k = 0.3536 0.2357-0.1179 (  1761 PWs)   bands (ev):

   -57.2201 -47.1614 -28.7154 -28.7072 -28.7068 -25.9237 -21.2019 -21.2006
   -21.1886  -6.2848  -6.2238  -6.2137   6.7777  10.6412  11.6281  11.9429
    13.2178  13.3050  13.5343  14.0953  14.2668  15.7392  15.9227  16.2471
    17.2273  17.5835  18.8560  19.2532  19.5661

     occupation numbers 
     1.0000   1.0000   1.0000   1.0000   1.0000   1.0000   1.0000   1.0000
     1.0000   1.0000   1.0000   1.0000   1.0000   1.0000   1.0000   1.0000
     1.0000   1.0000   1.0000   1.0043   1.0319   0.0000   0.0000   0.0000
     0.0000   0.0000   0.0000   0.0000   0.0000

          k =-0.2946-0.4125 0.5303 (  1763 PWs)   bands (ev):

   -57.2201 -47.1614 -28.7172 -28.7073 -28.7069 -25.9226 -21.2025 -21.2010
   -21.1866  -6.2960  -6.2256  -6.2132   7.0748  10.4021  11.5427  11.7593
    13.3159  13.3632  13.5121  14.1269  14.2461  15.7566  15.8962  16.1897
    17.4327  17.6229  18.6356  19.2906  19.7131

     occupation numbers 
     1.0000   1.0000   1.0000   1.0000   1.0000   1.0000   1.0000   1.0000
     1.0000   1.0000   1.0000   1.0000   1.0000   1.0000   1.0000   1.0000
     1.0000   1.0000   1.0000   1.0067   1.0263   0.0000   0.0000   0.0000
     0.0000   0.0000   0.0000   0.0000   0.0000

          k =-0.2357-0.3536 0.4714 (  1758 PWs)   bands (ev):

   -57.2201 -47.1613 -28.7179 -28.7074 -28.7069 -25.9222 -21.2027 -21.2011
   -21.1859  -6.3000  -6.2262  -6.2130   7.1953  10.2901  11.5191  11.7031
    13.3327  13.4323  13.4767  14.1792  14.2190  15.8110  15.8808  16.0986
    17.5046  17.6513  18.4981  19.2793  19.9000

     occupation numbers 
     1.0000   1.0000   1.0000   1.0000   1.0000   1.0000   1.0000   1.0000
     1.0000   1.0000   1.0000   1.0000   1.0000   1.0000   1.0000   1.0000
     1.0000   1.0000   1.0000   1.0129   1.0200   0.0000   0.0000   0.0000
     0.0000   0.0000   0.0000   0.0000   0.0000

          k = 0.3536 0.1179 0.0000 (  1764 PWs)   bands (ev):

   -57.2201 -47.1615 -28.7137 -28.7071 -28.7069 -25.9246 -21.2011 -21.2006
   -21.1899  -6.2741  -6.2206  -6.2161   6.4892  10.6320  12.1311  12.3871
    12.9596  13.1302  13.5149  14.2441  14.2785  15.7982  16.0106  16.2187
    16.8946  17.3268  18.4925  19.1314  19.5413

     occupation numbers 
     1.0000   1.0000   1.0000   1.0000   1.0000   1.0000   1.0000   1.0000
     1.0000   1.0000   1.0000   1.0000   1.0000   1.0000   1.0000   1.0000
     1.0000   1.0000   1.0000   1.0258   1.0353   0.0000   0.0000   0.0000
     0.0000   0.0000   0.0000   0.0000   0.0000

          k = 0.4125 0.1768-0.0589 (  1752 PWs)   bands (ev):

   -57.2201 -47.1614 -28.7159 -28.7074 -28.7070 -25.9233 -21.2022 -21.2011
   -21.1871  -6.2847  -6.2259  -6.2154   6.7682  10.5415  11.9276  12.1490
    13.1280  13.1852  13.5385  14.0786  14.2009  15.8433  15.9926  16.3445
    17.0701  17.3378  18.5856  19.0144  19.6489

     occupation numbers 
     1.0000   1.0000   1.0000   1.0000   1.0000   1.0000   1.0000   1.0000
     1.0000   1.0000   1.0000   1.0000   1.0000   1.0000   1.0000   1.0000
     1.0000   1.0000   1.0000   1.0034   1.0165   0.0000   0.0000   0.0000
     0.0000   0.0000   0.0000   0.0000   0.0000

          k =-0.2357-0.4714 0.5893 (  1761 PWs)   bands (ev):

   -57.2201 -47.1613 -28.7176 -28.7076 -28.7071 -25.9222 -21.2032 -21.2014
   -21.1848  -6.2903  -6.2329  -6.2148   7.0122  10.5324  11.6093  11.9897
    13.2151  13.3357  13.5324  14.0109  14.1635  15.8723  15.9972  16.3494
    17.2335  17.3997  18.5755  19.0267  19.5105

     occupation numbers 
     1.0000   1.0000   1.0000   1.0000   1.0000   1.0000   1.0000   1.0000
     1.0000   1.0000   1.0000   1.0000   1.0000   1.0000   1.0000   1.0000
     1.0000   1.0000   1.0000   1.0012   1.0107   0.0000   0.0000   0.0000
     0.0000   0.0000   0.0000   0.0000   0.0000

          k =-0.1768-0.4125 0.5303 (  1764 PWs)   bands (ev):

   -57.2201 -47.1613 -28.7184 -28.7078 -28.7071 -25.9216 -21.2038 -21.2016
   -21.1836  -6.2905  -6.2393  -6.2141   7.1503  10.5420  11.4303  11.8740
    13.2628  13.4409  13.5274  14.0217  14.1152  15.9050  16.0206  16.2502
    17.2716  17.5410  18.4756  19.0134  19.6685

     occupation numbers 
     1.0000   1.0000   1.0000   1.0000   1.0000   1.0000   1.0000   1.0000
     1.0000   1.0000   1.0000   1.0000   1.0000   1.0000   1.0000   1.0000
     1.0000   1.0000   1.0000   1.0014   1.0057   0.0000   0.0000   0.0000
     0.0000   0.0000   0.0000   0.0000   0.0000

          k =-0.1179-0.3536 0.4714 (  1762 PWs)   bands (ev):

   -57.2201 -47.1613 -28.7182 -28.7078 -28.7070 -25.9218 -21.2039 -21.2014
   -21.1838  -6.2873  -6.2417  -6.2136   7.1336  10.5537  11.4826  11.7801
    13.2644  13.4530  13.5405  14.0305  14.0932  15.8010  16.0419  16.3432
    17.2689  17.5734  18.4949  19.0208  19.7065

     occupation numbers 
     1.0000   1.0000   1.0000   1.0000   1.0000   1.0000   1.0000   1.0000
     1.0000   1.0000   1.0000   1.0000   1.0000   1.0000   1.0000   1.0000
     1.0000   1.0000   1.0000   1.0016   1.0042   0.0000   0.0000   0.0000
     0.0000   0.0000   0.0000   0.0000   0.0000

          k =-0.0589-0.2946 0.4125 (  1762 PWs)   bands (ev):

   -57.2201 -47.1614 -28.7169 -28.7077 -28.7069 -25.9226 -21.2034 -21.2010
   -21.1855  -6.2829  -6.2378  -6.2134   6.9653  10.5947  11.6381  11.8219
    13.2451  13.3351  13.5861  14.0010  14.1277  15.7227  16.0164  16.4604
    17.1886  17.5603  18.7372  19.0476  19.5920

     occupation numbers 
     1.0000   1.0000   1.0000   1.0000   1.0000   1.0000   1.0000   1.0000
     1.0000   1.0000   1.0000   1.0000   1.0000   1.0000   1.0000   1.0000
     1.0000   1.0000   1.0000   1.0010   1.0068   0.0000   0.0000   0.0000
     0.0000   0.0000   0.0000   0.0000   0.0000

          k = 0.0000-0.2357 0.3536 (  1758 PWs)   bands (ev):

   -57.2201 -47.1614 -28.7150 -28.7074 -28.7068 -25.9238 -21.2023 -21.2005
   -21.1883  -6.2771  -6.2296  -6.2137   6.7017  10.6944  11.6683  12.1308
    13.1296  13.2791  13.5623  14.0625  14.1816  15.7322  15.9736  16.3997
    17.0499  17.5722  18.8439  19.1595  19.6100

     occupation numbers 
     1.0000   1.0000   1.0000   1.0000   1.0000   1.0000   1.0000   1.0000
     1.0000   1.0000   1.0000   1.0000   1.0000   1.0000   1.0000   1.0000
     1.0000   1.0000   1.0000   1.0027   1.0132   0.0000   0.0000   0.0000
     0.0000   0.0000   0.0000   0.0000   0.0000

          k = 0.4714 0.1179-0.0000 (  1761 PWs)   bands (ev):

   -57.2201 -47.1614 -28.7170 -28.7075 -28.7072 -25.9226 -21.2021 -21.2016
   -21.1857  -6.2938  -6.2222  -6.2167   6.8128  10.4725  12.1418  12.3810
    12.9388  13.1913  13.4969  14.1046  14.1312  15.8844  16.1680  16.3895
    16.9777  17.0705  18.4188  18.5827  19.7487

     occupation numbers 
     1.0000   1.0000   1.0000   1.0000   1.0000   1.0000   1.0000   1.0000
     1.0000   1.0000   1.0000   1.0000   1.0000   1.0000   1.0000   1.0000
     1.0000   1.0000   1.0000   1.0049   1.0071   0.0000   0.0000   0.0000
     0.0000   0.0000   0.0000   0.0000   0.0000

          k =-0.1768-0.5303 0.6482 (  1754 PWs)   bands (ev):

   -57.2201 -47.1613 -28.7185 -28.7077 -28.7073 -25.9216 -21.2032 -21.2020
   -21.1834  -6.2957  -6.2305  -6.2164   6.9757  10.5941  11.7707  12.2674
    13.0918  13.3427  13.4296  14.0038  14.0857  15.9703  16.1414  16.4668
    16.9584  17.2185  18.4522  18.5763  19.5978

     occupation numbers 
     1.0000   1.0000   1.0000   1.0000   1.0000   1.0000   1.0000   1.0000
     1.0000   1.0000   1.0000   1.0000   1.0000   1.0000   1.0000   1.0000
     1.0000   1.0000   1.0000   1.0010   1.0038   0.0000   0.0000   0.0000
     0.0000   0.0000   0.0000   0.0000   0.0000

          k =-0.1179-0.4714 0.5893 (  1754 PWs)   bands (ev):

   -57.2201 -47.1613 -28.7192 -28.7080 -28.7073 -25.9210 -21.2042 -21.2021
   -21.1819  -6.2895  -6.2434  -6.2157   7.0907  10.7691  11.4336  12.1233
    13.1890  13.4000  13.4980  13.9426  14.0367  15.9770  16.1853  16.4121
    16.9422  17.3965  18.4132  18.8368  19.3053

     occupation numbers 
     1.0000   1.0000   1.0000   1.0000   1.0000   1.0000   1.0000   1.0000
     1.0000   1.0000   1.0000   1.0000   1.0000   1.0000   1.0000   1.0000
     1.0000   1.0000   1.0000   1.0003   1.0018   0.0000   0.0000   0.0000
     0.0000   0.0000   0.0000   0.0000   0.0000

          k =-0.0589-0.4125 0.5303 (  1756 PWs)   bands (ev):

   -57.2201 -47.1613 -28.7191 -28.7082 -28.7072 -25.9210 -21.2047 -21.2019
   -21.1817  -6.2771  -6.2571  -6.2147   7.1352  10.8333  11.3132  11.9478
    13.1937  13.4624  13.6036  13.9364  13.9852  15.8684  16.2234  16.4545
    16.9713  17.4779  18.3357  18.9895  19.6233

     occupation numbers 
     1.0000   1.0000   1.0000   1.0000   1.0000   1.0000   1.0000   1.0000
     1.0000   1.0000   1.0000   1.0000   1.0000   1.0000   1.0000   1.0000
     1.0000   1.0000   1.0000   1.0003   1.0008   0.0000   0.0000   0.0000
     0.0000   0.0000   0.0000   0.0000   0.0000

          k =-0.0000-0.3536 0.4714 (  1752 PWs)   bands (ev):

   -57.2201 -47.1613 -28.7183 -28.7081 -28.7071 -25.9216 -21.2044 -21.2015
   -21.1830  -6.2754  -6.2545  -6.2138   7.0937  10.6967  11.5045  11.7867
    13.2036  13.4783  13.5958  13.9581  14.0189  15.7564  16.1339  16.5541
    17.0906  17.5173  18.4139  19.0122  19.5803

     occupation numbers 
     1.0000   1.0000   1.0000   1.0000   1.0000   1.0000   1.0000   1.0000
     1.0000   1.0000   1.0000   1.0000   1.0000   1.0000   1.0000   1.0000
     1.0000   1.0000   1.0000   1.0005   1.0013   0.0000   0.0000   0.0000
     0.0000   0.0000   0.0000   0.0000   0.0000

          k =-0.1179-0.5893 0.7071 (  1747 PWs)   bands (ev):

   -57.2201 -47.1613 -28.7195 -28.7077 -28.7075 -25.9210 -21.2028 -21.2024
   -21.1825  -6.3068  -6.2234  -6.2174   6.9620  10.6766  11.8923  12.5304
    12.9340  13.2975  13.3870  13.9739  14.0460  16.0227  16.3392  16.5585
    16.7376  17.1502  18.0645  18.4488  19.7217

     occupation numbers 
     1.0000   1.0000   1.0000   1.0000   1.0000   1.0000   1.0000   1.0000
     1.0000   1.0000   1.0000   1.0000   1.0000   1.0000   1.0000   1.0000
     1.0000   1.0000   1.0000   1.0006   1.0021   0.0000   0.0000   0.0000
     0.0000   0.0000   0.0000   0.0000   0.0000

          k =-0.0589-0.5303 0.6482 (  1753 PWs)   bands (ev):

   -57.2201 -47.1613 -28.7200 -28.7079 -28.7075 -25.9206 -21.2037 -21.2026
   -21.1812  -6.3010  -6.2335  -6.2171   7.0347  10.8597  11.6011  12.3861
    13.1061  13.2160  13.4886  13.9046  14.0307  16.0273  16.3175  16.5663
    16.7043  17.2950  18.2772  18.4529  19.3281

     occupation numbers 
     1.0000   1.0000   1.0000   1.0000   1.0000   1.0000   1.0000   1.0000
     1.0000   1.0000   1.0000   1.0000   1.0000   1.0000   1.0000   1.0000
     1.0000   1.0000   1.0000   1.0002   1.0016   0.0000   0.0000   0.0000
     0.0000   0.0000   0.0000   0.0000   0.0000

[...]
     1.0000   1.0000   1.0000   1.0000   1.0000   1.0000   1.0000   1.0000
     1.0000   1.0000   1.0000   1.0000   1.0000   1.0000   1.0000   1.0000
     1.0000   1.0000   1.0005   1.0804   1.0043   0.0000   0.0000   0.0000
     0.0000   0.0000   0.0000   0.0000   0.0000

          k =-0.0589-0.4125 0.5303 (  1756 PWs)   bands (ev):

   -54.4552 -49.3203 -26.2126 -25.9883 -25.9868 -25.7967 -23.3446 -23.3427
   -23.3125  -6.3839  -6.3626  -6.3203   7.0778  10.8182  11.2473  11.9832
    13.4964  13.9087  14.0629  14.5128  14.6494  15.6838  15.9303  16.1279
    17.2574  17.5234  18.0724  18.8947  19.4856

     occupation numbers 
     1.0000   1.0000   1.0000   1.0000   1.0000   1.0000   1.0000   1.0000
     1.0000   1.0000   1.0000   1.0000   1.0000   1.0000   1.0000   1.0000
     1.0000   1.0002   1.0027   1.0712   0.8990   0.0000   0.0000   0.0000
     0.0000   0.0000   0.0000   0.0000   0.0000

          k =-0.0000-0.3536 0.4714 (  1752 PWs)   bands (ev):

   -54.4552 -49.3204 -26.2046 -25.9882 -25.9865 -25.8038 -23.3444 -23.3424
   -23.3144  -6.3820  -6.3601  -6.3194   7.0354  10.6635  11.4573  11.8176
    13.5164  13.9530  14.0667  14.4958  14.6915  15.5650  15.8474  16.1845
    17.3136  17.6350  18.2721  18.8284  19.4502

     occupation numbers 
     1.0000   1.0000   1.0000   1.0000   1.0000   1.0000   1.0000   1.0000
     1.0000   1.0000   1.0000   1.0000   1.0000   1.0000   1.0000   1.0000
     1.0000   1.0004   1.0028   1.0777   0.8028   0.0000   0.0000   0.0000
     0.0000   0.0000   0.0000   0.0000   0.0000

          k =-0.1179-0.5893 0.7071 (  1747 PWs)   bands (ev):

   -54.4552 -49.3203 -26.2135 -25.9878 -25.9874 -25.7963 -23.3429 -23.3428
   -23.3131  -6.4133  -6.3291  -6.3230   6.9000  10.6631  11.9084  12.6073
    13.1635  13.6354  13.8339  14.3915  14.4424  16.1301  16.2579  16.4066
    17.1428  17.1809  17.8758  17.9733  19.5952

     occupation numbers 
     1.0000   1.0000   1.0000   1.0000   1.0000   1.0000   1.0000   1.0000
     1.0000   1.0000   1.0000   1.0000   1.0000   1.0000   1.0000   1.0000
     1.0000   1.0000   1.0000   1.0724   1.0827   0.0000   0.0000   0.0000
     0.0000   0.0000   0.0000   0.0000   0.0000

          k =-0.0589-0.5303 0.6482 (  1753 PWs)   bands (ev):

   -54.4552 -49.3203 -26.2190 -25.9882 -25.9873 -25.7914 -23.3437 -23.3429
   -23.3113  -6.4075  -6.3393  -6.3228   6.9744  10.8548  11.5819  12.4256
    13.3377  13.6053  13.9252  14.4207  14.4969  16.0519  16.1727  16.3293
    17.1397  17.2853  17.9641  18.1559  19.2073

     occupation numbers 
     1.0000   1.0000   1.0000   1.0000   1.0000   1.0000   1.0000   1.0000
     1.0000   1.0000   1.0000   1.0000   1.0000   1.0000   1.0000   1.0000
     1.0000   1.0000   1.0003   1.0795   1.0774   0.0000   0.0000   0.0000
     0.0000   0.0000   0.0000   0.0000   0.0000

          k =-0.0000-0.4714 0.5893 (  1757 PWs)   bands (ev):

   -54.4552 -49.3203 -26.2187 -25.9884 -25.9871 -25.7915 -23.3444 -23.3429
   -23.3110  -6.3941  -6.3543  -6.3217   7.0377  11.0272  11.2222  12.2098
    13.4006  13.7970  13.9700  14.4698  14.5840  15.8909  16.0442  16.1989
    17.1766  17.4094  17.9446  18.7635  18.9984

     occupation numbers 
     1.0000   1.0000   1.0000   1.0000   1.0000   1.0000   1.0000   1.0000
     1.0000   1.0000   1.0000   1.0000   1.0000   1.0000   1.0000   1.0000
     1.0000   1.0000   1.0006   1.0828   1.0096   0.0000   0.0000   0.0000
     0.0000   0.0000   0.0000   0.0000   0.0000

          k =-0.7071 0.1179-0.0000 (  1746 PWs)   bands (ev):

   -54.4552 -49.3203 -26.2213 -25.9880 -25.9875 -25.7895 -23.3431 -23.3430
   -23.3111  -6.4178  -6.3295  -6.3233   6.9305  10.8572  11.8048  12.6463
    13.1658  13.4551  13.9326  14.3658  14.4147  16.2626  16.2887  16.4341
    17.0975  17.2034  17.6859  17.9551  19.4025

     occupation numbers 
     1.0000   1.0000   1.0000   1.0000   1.0000   1.0000   1.0000   1.0000
     1.0000   1.0000   1.0000   1.0000   1.0000   1.0000   1.0000   1.0000
     1.0000   1.0000   1.0003   1.0644   1.0783   0.0000   0.0000   0.0000
     0.0000   0.0000   0.0000   0.0000   0.0000

          k =-0.2357-0.4714 0.7071 (  1750 PWs)   bands (ev):

   -54.4552 -49.3204 -26.1968 -25.9878 -25.9866 -25.8108 -23.3435 -23.3424
   -23.3165  -6.3928  -6.3415  -6.3210   6.8960  10.5505  11.7793  12.0035
    13.5124  13.7046  14.0393  14.4020  14.6308  15.7881  15.8663  16.2869
    17.2687  17.5160  18.3036  18.6877  19.3382

     occupation numbers 
     1.0000   1.0000   1.0000   1.0000   1.0000   1.0000   1.0000   1.0000
     1.0000   1.0000   1.0000   1.0000   1.0000   1.0000   1.0000   1.0000
     1.0000   1.0000   1.0019   1.0753   0.9356   0.0000   0.0000   0.0000
     0.0000   0.0000   0.0000   0.0000   0.0000

          k =-0.1768-0.4125 0.6482 (  1759 PWs)   bands (ev):

   -54.4552 -49.3203 -26.2085 -25.9882 -25.9867 -25.8004 -23.3441 -23.3427
   -23.3135  -6.3895  -6.3529  -6.3214   7.0313  10.6797  11.4499  11.9827
    13.5251  13.8762  14.0338  14.4524  14.6451  15.7477  15.8941  16.1904
    17.2760  17.4693  18.3672  18.5438  19.1975

     occupation numbers 
     1.0000   1.0000   1.0000   1.0000   1.0000   1.0000   1.0000   1.0000
     1.0000   1.0000   1.0000   1.0000   1.0000   1.0000   1.0000   1.0000
     1.0000   1.0001   1.0017   1.0832   0.9078   0.0000   0.0000   0.0000
     0.0000   0.0000   0.0000   0.0000   0.0000

          k =-0.1179-0.3536 0.5893 (  1756 PWs)   bands (ev):

   -54.4552 -49.3203 -26.2126 -25.9883 -25.9868 -25.7967 -23.3444 -23.3429
   -23.3124  -6.3861  -6.3592  -6.3216   7.0794  10.7748  11.2844  11.9875
    13.5274  13.8963  14.0744  14.4812  14.6441  15.7377  15.9109  16.1298
    17.2610  17.4571  18.3831  18.4469  19.3879

     occupation numbers 
     1.0000   1.0000   1.0000   1.0000   1.0000   1.0000   1.0000   1.0000
     1.0000   1.0000   1.0000   1.0000   1.0000   1.0000   1.0000   1.0000
     1.0000   1.0001   1.0032   1.0812   0.9098   0.0000   0.0000   0.0000
     0.0000   0.0000   0.0000   0.0000   0.0000

          k =-0.1179-0.4714 0.7071 (  1753 PWs)   bands (ev):

   -54.4552 -49.3203 -26.2146 -25.9883 -25.9870 -25.7951 -23.3438 -23.3431
   -23.3121  -6.3978  -6.3461  -6.3233   6.9967  10.7751  11.5369  12.1926
    13.4869  13.7096  13.9617  14.4372  14.5636  15.9168  16.0335  16.2736
    17.2018  17.3390  18.0860  18.4555  18.9784

     occupation numbers 
     1.0000   1.0000   1.0000   1.0000   1.0000   1.0000   1.0000   1.0000
     1.0000   1.0000   1.0000   1.0000   1.0000   1.0000   1.0000   1.0000
     1.0000   1.0000   1.0005   1.0821   1.0333   0.0000   0.0000   0.0000
     0.0000   0.0000   0.0000   0.0000   0.0000

          k =-0.0589-0.4125 0.6482 (  1755 PWs)   bands (ev):

   -54.4552 -49.3203 -26.2186 -25.9885 -25.9870 -25.7914 -23.3443 -23.3433
   -23.3108  -6.3867  -6.3599  -6.3236   7.0477  10.9922  11.2705  12.1031
    13.4844  13.7750  14.0335  14.4709  14.5832  15.8681  15.9788  16.2319
    17.1885  17.3778  18.1034  18.5090  18.9198

     occupation numbers 
     1.0000   1.0000   1.0000   1.0000   1.0000   1.0000   1.0000   1.0000
     1.0000   1.0000   1.0000   1.0000   1.0000   1.0000   1.0000   1.0000
     1.0000   1.0000   1.0017   1.0826   1.0106   0.0000   0.0000   0.0000
     0.0000   0.0000   0.0000   0.0000   0.0000

          k = 0.0000-0.3536 0.5893 (  1763 PWs)   bands (ev):

   -54.4552 -49.3203 -26.2164 -25.9885 -25.9869 -25.7933 -23.3444 -23.3431
   -23.3113  -6.3781  -6.3682  -6.3228   7.0616  10.9525  11.2384  12.0250
    13.4862  13.8602  14.0642  14.4681  14.6184  15.7932  15.9458  16.1811
    17.2223  17.4394  18.2104  18.4128  19.1968

     occupation numbers 
     1.0000   1.0000   1.0000   1.0000   1.0000   1.0000   1.0000   1.0000
     1.0000   1.0000   1.0000   1.0000   1.0000   1.0000   1.0000   1.0000
     1.0000   1.0001   1.0027   1.0829   0.9577   0.0000   0.0000   0.0000
     0.0000   0.0000   0.0000   0.0000   0.0000

          k =-0.7071 0.2357 0.0000 (  1754 PWs)   bands (ev):

   -54.4552 -49.3203 -26.2209 -25.9885 -25.9872 -25.7895 -23.3437 -23.3435
   -23.3105  -6.3992  -6.3478  -6.3243   7.0104  10.9672  11.4493  12.2450
    13.5046  13.5596  13.9950  14.4477  14.5250  16.0066  16.0420  16.3338
    17.1414  17.3021  18.0019  18.4064  18.7729

     occupation numbers 
     1.0000   1.0000   1.0000   1.0000   1.0000   1.0000   1.0000   1.0000
     1.0000   1.0000   1.0000   1.0000   1.0000   1.0000   1.0000   1.0000
     1.0000   1.0000   1.0009   1.0830   1.0647   0.0000   0.0000   0.0000
     0.0000   0.0000   0.0000   0.0000   0.0000

          k =-0.7071 0.3536 0.0000 (  1768 PWs)   bands (ev):

   -54.4552 -49.3203 -26.2207 -25.9887 -25.9870 -25.7895 -23.3440 -23.3438
   -23.3101  -6.3773  -6.3695  -6.3248   7.0524  11.1327  11.1928  12.0661
    13.5223  13.7208  14.0536  14.5026  14.5568  15.8793  15.9525  16.2825
    17.1711  17.3386  18.2208  18.2476  19.0316

     occupation numbers 
     1.0000   1.0000   1.0000   1.0000   1.0000   1.0000   1.0000   1.0000
     1.0000   1.0000   1.0000   1.0000   1.0000   1.0000   1.0000   1.0000
     1.0000   1.0000   1.0023   1.0755   1.0401   0.0000   0.0000   0.0000
     0.0000   0.0000   0.0000   0.0000   0.0000

     the Fermi energy is    14.8418 ev

!    total energy              =    -424.35775896 Ry
     estimated scf accuracy    <          4.7E-10 Ry
     smearing contrib. (-TS)   =       0.00491502 Ry
     internal energy E=F+TS    =    -424.36267398 Ry

     The total energy is F=E-TS. E is the sum of the following terms:
     one-electron contribution =    -154.63630946 Ry
     hartree contribution      =      97.48613219 Ry
     xc contribution           =     -75.63770258 Ry
     ewald contribution        =    -291.57479413 Ry

     total magnetization       =     0.05 Bohr mag/cell
     absolute magnetization    =     5.94 Bohr mag/cell

     convergence has been achieved in  12 iterations

     negative rho (up, down):  9.943E-04 1.946E-03

     Forces acting on atoms (cartesian axes, Ry/au):

     atom    1 type  4   force =    -0.00000000   -0.00000000    0.00000000
     atom    2 type  3   force =     0.00000000    0.00000000    0.00000000
     atom    3 type  1   force =    -0.00000000    0.00000000   -0.00000000
     atom    4 type  2   force =     0.00000000    0.00000000    0.00000000
     The non-local contrib.  to forces
     atom    1 type  4   force =    -0.00000000    0.00000000    0.00000000
     atom    2 type  3   force =    -0.00000000   -0.00000000    0.00000000
     atom    3 type  1   force =     0.00000000   -0.00000000    0.00000000
     atom    4 type  2   force =     0.00000000   -0.00000000   -0.00000000
     The ionic contribution  to forces
     atom    1 type  4   force =    -0.00000000    0.00000000   -0.00000000
     atom    2 type  3   force =     0.00000000   -0.00000000    0.00000000
     atom    3 type  1   force =    -0.00000000   -0.00000000   -0.00000000
     atom    4 type  2   force =    -0.00000000   -0.00000000   -0.00000000
     The local contribution  to forces
     atom    1 type  4   force =     0.00000000   -0.00000000    0.00000000
     atom    2 type  3   force =     0.00000000    0.00000000   -0.00000000
     atom    3 type  1   force =    -0.00000000   -0.00000000    0.00000000
     atom    4 type  2   force =     0.00000000    0.00000000   -0.00000000
     The core correction contribution to forces
     atom    1 type  4   force =     0.00000000   -0.00000000    0.00000000
     atom    2 type  3   force =    -0.00000000    0.00000000   -0.00000000
     atom    3 type  1   force =     0.00000000   -0.00000000   -0.00000000
     atom    4 type  2   force =     0.00000000    0.00000000    0.00000000
     The Hubbard contrib.    to forces
     atom    1 type  4   force =     0.00000000    0.00000000    0.00000000
     atom    2 type  3   force =     0.00000000    0.00000000    0.00000000
     atom    3 type  1   force =     0.00000000    0.00000000    0.00000000
     atom    4 type  2   force =     0.00000000    0.00000000    0.00000000
     The SCF correction term to forces
     atom    1 type  4   force =    -0.00000000   -0.00000000    0.00000000
     atom    2 type  3   force =    -0.00000000   -0.00000000   -0.00000000
     atom    3 type  1   force =    -0.00000000   -0.00000000    0.00000000
     atom    4 type  2   force =     0.00000000    0.00000000    0.00000000

     Total force =     0.000000     Total SCF correction =     0.000000


     Computing stress (Cartesian axis) and pressure


     negative rho (up, down):  9.943E-04 1.946E-03
          total   stress  (Ry/bohr**3)                   (kbar)     P=       49.06
   0.00033354  -0.00000000  -0.00000000           49.06       -0.00       -0.00
  -0.00000000   0.00033354   0.00000000           -0.00       49.06        0.00
  -0.00000000   0.00000000   0.00033354           -0.00        0.00       49.06

     kinetic stress (kbar)  24023.15     -0.00     -0.00
                               -0.00  24023.15     -0.00
                               -0.00     -0.00  24023.15

     local   stress (kbar)  -2245.28     -0.00     -0.00
                               -0.00  -2245.28     -0.00
                               -0.00     -0.00  -2245.28

     nonloc. stress (kbar)   8134.93      0.00      0.00
                                0.00   8134.93     -0.00
                                0.00     -0.00   8134.93

     hartree stress (kbar)  11605.73     -0.00     -0.00
                               -0.00  11605.73      0.00
                               -0.00      0.00  11605.73

     exc-cor stress (kbar)   2641.00     -0.00      0.00
                               -0.00   2641.00      0.00
                                0.00      0.00   2641.00

     corecor stress (kbar)  -9398.46     -0.00     -0.00
                               -0.00  -9398.46     -0.00
                               -0.00     -0.00  -9398.46

     ewald   stress (kbar) -34712.01      0.00      0.00
                                0.00 -34712.01     -0.00
                                0.00     -0.00 -34712.01

     hubbard stress (kbar)      0.00      0.00      0.00
                                0.00      0.00      0.00
                                0.00      0.00      0.00

     DFT-D   stress (kbar)      0.00      0.00      0.00
                                0.00      0.00      0.00
                                0.00      0.00      0.00

     XDM     stress (kbar)      0.00      0.00      0.00
                                0.00      0.00      0.00
                                0.00      0.00      0.00

     dft-nl  stress (kbar)      0.00      0.00      0.00
                                0.00      0.00      0.00
                                0.00      0.00      0.00

     TS-vdW  stress (kbar)      0.00      0.00      0.00
                                0.00      0.00      0.00
                                0.00      0.00      0.00

     MDB     stress (kbar)      0.00      0.00      0.00
                                0.00      0.00      0.00
                                0.00      0.00      0.00

     3D-RISM stress (kbar)      0.00      0.00      0.00
                                0.00      0.00      0.00
                                0.00      0.00      0.00


     Writing all to output data dir ./out/aiida.save/ :
     XML data file, charge density, pseudopotentials, collected wavefunctions

     init_run     :      0.99s CPU      1.07s WALL (       1 calls)
     electrons    :     12.68s CPU     13.61s WALL (       1 calls)
     forces       :      0.07s CPU      0.07s WALL (       1 calls)
     stress       :      0.32s CPU      0.32s WALL (       1 calls)

     Called by init_run:
     wfcinit      :      0.16s CPU      0.17s WALL (       1 calls)
     wfcinit:atom :      0.00s CPU      0.00s WALL (      21 calls)
     wfcinit:wfcr :      0.14s CPU      0.15s WALL (      21 calls)
     potinit      :      0.30s CPU      0.35s WALL (       1 calls)
     hinit0       :      0.50s CPU      0.51s WALL (       1 calls)

     Called by electrons:
     c_bands      :     11.63s CPU     12.48s WALL (      12 calls)
     sum_band     :      0.73s CPU      0.77s WALL (      12 calls)
     v_of_rho     :      0.17s CPU      0.18s WALL (      13 calls)
     v_h          :      0.00s CPU      0.00s WALL (      13 calls)
     v_xc         :      0.20s CPU      0.21s WALL (      15 calls)
     newd         :      0.11s CPU      0.11s WALL (      13 calls)
     mix_rho      :      0.02s CPU      0.02s WALL (      12 calls)

     Called by c_bands:
     init_us_2    :      0.06s CPU      0.06s WALL (     567 calls)
     init_us_2:cp :      0.05s CPU      0.06s WALL (     567 calls)
     paro_k       :      9.73s CPU     10.50s WALL (     252 calls)

     Called by sum_band:
     sum_band:wei :      0.03s CPU      0.03s WALL (      12 calls)
     sum_band:loo :      0.51s CPU      0.55s WALL (      12 calls)
     sum_band:buf :      0.00s CPU      0.00s WALL (     252 calls)
     sum_band:ini :      0.02s CPU      0.03s WALL (     252 calls)
     sum_band:cal :      0.05s CPU      0.05s WALL (     252 calls)
     sum_band:bec :      0.00s CPU      0.00s WALL (     252 calls)
     addusdens    :      0.14s CPU      0.14s WALL (      12 calls)
                                        0.00s GPU  (      12 calls)
     addusd:skk   :      0.00s CPU      0.00s WALL (      48 calls)
                                        0.00s GPU  (      48 calls)

     Called by paro_*:
     paro:init    :      0.97s CPU      1.06s WALL (     252 calls)
     paro:pack    :      0.02s CPU      0.02s WALL (    1030 calls)
     paro:mp_bar  :      0.00s CPU      0.00s WALL (    1030 calls)
     paro:mp_sum  :      0.02s CPU      0.02s WALL (    1030 calls)
     pcg          :      7.03s CPU      7.62s WALL (    1030 calls)
     pcg:hs_1psi  :      6.07s CPU      6.51s WALL (    4772 calls)
     pcg:ortho    :      0.40s CPU      0.43s WALL (    5802 calls)
     pcg:move1    :      0.03s CPU      0.03s WALL (    4772 calls)
     pcg:move2    :      0.01s CPU      0.01s WALL (    3330 calls)
     rotHSw       :      1.67s CPU      1.76s WALL (    1282 calls)
     rotHSw:hc    :      0.39s CPU      0.42s WALL (    1282 calls)
     rotHSw:diag  :      0.78s CPU      0.81s WALL (    1282 calls)
     rotHSw:evc   :      0.50s CPU      0.52s WALL (    1282 calls)
     rotHSw:hc:s1 :      0.04s CPU      0.05s WALL (    1282 calls)
     rotHSw:hc:s2 :      0.00s CPU      0.00s WALL (    1282 calls)
     rotHSw:hc:s3 :      0.04s CPU      0.05s WALL (    1282 calls)
     rotHSw:hc:s4 :      0.00s CPU      0.00s WALL (    1282 calls)
     rotHSw:ev:s5 :      0.01s CPU      0.01s WALL (    1282 calls)
     rotHSw:ev:s6 :      0.01s CPU      0.01s WALL (    1282 calls)
     rotHSw:ev:s7 :      0.01s CPU      0.01s WALL (    1282 calls)
     h_psi        :      6.77s CPU      7.29s WALL (    5045 calls)
     s_psi        :      0.35s CPU      0.37s WALL (    5045 calls)
     g_psi        :      0.07s CPU      0.10s WALL (   54137 calls)

     Called by h_psi:
     h_psi:calbec :      0.49s CPU      0.52s WALL (    5045 calls)
     vloc_psi     :      5.89s CPU      6.34s WALL (    5045 calls)
     add_vuspsi   :      0.36s CPU      0.38s WALL (    5045 calls)

     General routines
     calbec       :      0.55s CPU      0.58s WALL (    5402 calls)
     fft          :      0.44s CPU      0.45s WALL (     363 calls)
     ffts         :      0.27s CPU      0.27s WALL (      50 calls)
     fftw         :      5.46s CPU      5.85s WALL (  105270 calls)
     interpolate  :      0.27s CPU      0.27s WALL (      26 calls)

     Parallel routines

     PWSCF        :     14.44s CPU     15.84s WALL


   This run was terminated on:   4:20:37  30Nov2023            

=------------------------------------------------------------------------------=
   JOB DONE.
=------------------------------------------------------------------------------=
