
     Program PWSCF v.7.2 starts on 23Oct2023 at 17:51:33 

     This program is part of the open-source Quantum ESPRESSO suite
     for quantum simulation of materials; please cite
         "P. Giannozzi et al., J. Phys.:Condens. Matter 21 395502 (2009);
         "P. Giannozzi et al., J. Phys.:Condens. Matter 29 465901 (2017);
         "P. Giannozzi et al., J. Chem. Phys. 152 154105 (2020);
          URL http://www.quantum-espresso.org", 
     in publications or presentations arising from this work. More details at
     http://www.quantum-espresso.org/quote

     Parallel version (MPI & OpenMP), running on      12 processor cores
     Number of MPI processes:                 1
     Threads/MPI process:                    12

     MPI processes distributed on     1 nodes
     60427 MiB available memory on the printing compute node when the environment starts
 
     Reading input from aiida.in

     Current dimensions of program PWSCF are:
     Max number of different atomic species (ntypx) = 10
     Max number of k-points (npk) =  40000
     Max angular momentum in pseudopotentials (lmaxx) =  4
     file C.pbesol-n-kjpaw_psl.1.0.0.UPF: wavefunction(s)  2S 2P renormalized
     Message from routine setup:
     using ibrav=0 with symmetry is DISCOURAGED, use correct ibrav instead
 
     Subspace diagonalization in iterative solution of the eigenvalue problem:
     a serial algorithm will be used

 
     G-vector sticks info
     --------------------
     sticks:   dense  smooth     PW     G-vecs:    dense   smooth      PW
     Sum        5073    2545    717               272489    96177   14363
 
     Using Slab Decomposition
 


     bravais-lattice index     =            0
     lattice parameter (alat)  =      13.3197  a.u.
     unit-cell volume          =    2363.1251 (a.u.)^3
     number of atoms/cell      =            4
     number of atomic types    =            2
     number of electrons       =        25.00
     number of Kohn-Sham states=           17
     kinetic-energy cutoff     =      45.0000  Ry
     charge density cutoff     =     360.0000  Ry
     scf convergence threshold =      8.0E-10
     mixing beta               =       0.1000
     number of iterations used =            8  plain     mixing
     Exchange-correlation= SLA  PW   PSX  PSC
                           (   1   4  10   8   0   0   0)

     GPU acceleration is ACTIVE.


     GPU used by master process:

        Device Number: 0
        Device name: Tesla P100-PCIE-16GB
        Compute capability : 60
        Ratio of single to double precision performance  : 2
        Memory Clock Rate (KHz): 715000
        Memory Bus Width (bits): 4096
        Peak Memory Bandwidth (GB/s): 732.16

     celldm(1)=  13.319735  celldm(2)=   0.000000  celldm(3)=   0.000000
     celldm(4)=   0.000000  celldm(5)=   0.000000  celldm(6)=   0.000000

     crystal axes: (cart. coord. in units of alat)
               a(1) = (   1.000000   0.000000   0.000000 )  
               a(2) = (   0.000000   1.000000   0.000000 )  
               a(3) = (   0.000000   0.000000   1.000000 )  

     reciprocal axes: (cart. coord. in units 2 pi/alat)
               b(1) = (  1.000000  0.000000  0.000000 )  
               b(2) = (  0.000000  1.000000  0.000000 )  
               b(3) = (  0.000000  0.000000  1.000000 )  


     PseudoPot. # 1 for C  read from file:
     ./pseudo/C.pbesol-n-kjpaw_psl.1.0.0.UPF
     MD5 check sum: 5f3a56537b2bcef3348431d8311bb923
     Pseudo is Projector augmented-wave + core cor, Zval =  4.0
     Generated using "atomic" code by A. Dal Corso  v.6.0 svn rev. 13079
     Shape of augmentation charge: PSQ
     Using radial grid of 1073 points,  4 beta functions with: 
                l(1) =   0
                l(2) =   0
                l(3) =   1
                l(4) =   1
     Q(r) pseudized with 0 coefficients 


     PseudoPot. # 2 for V  read from file:
     ./pseudo/v_pbesol_v1.4.uspp.F.UPF
     MD5 check sum: 72fa7d0034c41d8adc50bbc8c632b9f9
     Pseudo is Ultrasoft + core correction, Zval = 13.0
     Generated by new atomic code, or converted to UPF format
     Using radial grid of  853 points,  6 beta functions with: 
                l(1) =   0
                l(2) =   0
                l(3) =   1
                l(4) =   1
                l(5) =   2
                l(6) =   2
     Q(r) pseudized with  8 coefficients,  rinner =    1.100   1.100   1.100
                                                       1.100   1.100

     atomic species   valence    mass     pseudopotential
        C              4.00    12.01070     C ( 1.00)
        V             13.00    50.94150     V ( 1.00)

     Starting magnetic structure 
     atomic species   magnetization
        C            0.100
        V            0.385

     48 Sym. Ops., with inversion, found


                                    s                        frac. trans.

      isym =  1     identity                                     

 cryst.   s( 1) = (     1          0          0      )
                  (     0          1          0      )
                  (     0          0          1      )

 cart.    s( 1) = (  1.0000000  0.0000000  0.0000000 )
                  (  0.0000000  1.0000000  0.0000000 )
                  (  0.0000000  0.0000000  1.0000000 )


      isym =  2     180 deg rotation - cart. axis [0,0,1]        

 cryst.   s( 2) = (    -1          0          0      )
                  (     0         -1          0      )
                  (     0          0          1      )

 cart.    s( 2) = ( -1.0000000  0.0000000  0.0000000 )
                  (  0.0000000 -1.0000000  0.0000000 )
                  (  0.0000000  0.0000000  1.0000000 )


      isym =  3     180 deg rotation - cart. axis [0,1,0]        

 cryst.   s( 3) = (    -1          0          0      )
                  (     0          1          0      )
                  (     0          0         -1      )

 cart.    s( 3) = ( -1.0000000  0.0000000  0.0000000 )
                  (  0.0000000  1.0000000  0.0000000 )
                  (  0.0000000  0.0000000 -1.0000000 )


      isym =  4     180 deg rotation - cart. axis [1,0,0]        

 cryst.   s( 4) = (     1          0          0      )
                  (     0         -1          0      )
                  (     0          0         -1      )

 cart.    s( 4) = (  1.0000000  0.0000000  0.0000000 )
                  (  0.0000000 -1.0000000  0.0000000 )
                  (  0.0000000  0.0000000 -1.0000000 )


      isym =  5     180 deg rotation - cart. axis [1,1,0]        

 cryst.   s( 5) = (     0          1          0      )
                  (     1          0          0      )
                  (     0          0         -1      )

 cart.    s( 5) = (  0.0000000  1.0000000  0.0000000 )
                  (  1.0000000  0.0000000  0.0000000 )
                  (  0.0000000  0.0000000 -1.0000000 )


      isym =  6     180 deg rotation - cart. axis [1,-1,0]       

 cryst.   s( 6) = (     0         -1          0      )
                  (    -1          0          0      )
                  (     0          0         -1      )

 cart.    s( 6) = (  0.0000000 -1.0000000  0.0000000 )
                  ( -1.0000000  0.0000000  0.0000000 )
                  (  0.0000000  0.0000000 -1.0000000 )


      isym =  7      90 deg rotation - cart. axis [0,0,-1]       

 cryst.   s( 7) = (     0         -1          0      )
                  (     1          0          0      )
                  (     0          0          1      )

 cart.    s( 7) = (  0.0000000  1.0000000  0.0000000 )
                  ( -1.0000000  0.0000000  0.0000000 )
                  (  0.0000000  0.0000000  1.0000000 )


      isym =  8      90 deg rotation - cart. axis [0,0,1]        

 cryst.   s( 8) = (     0          1          0      )
                  (    -1          0          0      )
                  (     0          0          1      )

 cart.    s( 8) = (  0.0000000 -1.0000000  0.0000000 )
                  (  1.0000000  0.0000000  0.0000000 )
                  (  0.0000000  0.0000000  1.0000000 )


      isym =  9     180 deg rotation - cart. axis [1,0,1]        

 cryst.   s( 9) = (     0          0          1      )
                  (     0         -1          0      )
                  (     1          0          0      )

 cart.    s( 9) = (  0.0000000  0.0000000  1.0000000 )
                  (  0.0000000 -1.0000000  0.0000000 )
                  (  1.0000000  0.0000000  0.0000000 )


      isym = 10     180 deg rotation - cart. axis [-1,0,1]       

 cryst.   s(10) = (     0          0         -1      )
                  (     0         -1          0      )
                  (    -1          0          0      )

 cart.    s(10) = (  0.0000000  0.0000000 -1.0000000 )
                  (  0.0000000 -1.0000000  0.0000000 )
                  ( -1.0000000  0.0000000  0.0000000 )


      isym = 11      90 deg rotation - cart. axis [0,1,0]        

 cryst.   s(11) = (     0          0         -1      )
                  (     0          1          0      )
                  (     1          0          0      )

 cart.    s(11) = (  0.0000000  0.0000000  1.0000000 )
                  (  0.0000000  1.0000000  0.0000000 )
                  ( -1.0000000  0.0000000  0.0000000 )


      isym = 12      90 deg rotation - cart. axis [0,-1,0]       

 cryst.   s(12) = (     0          0          1      )
                  (     0          1          0      )
                  (    -1          0          0      )

 cart.    s(12) = (  0.0000000  0.0000000 -1.0000000 )
                  (  0.0000000  1.0000000  0.0000000 )
                  (  1.0000000  0.0000000  0.0000000 )


      isym = 13     180 deg rotation - cart. axis [0,1,1]        

 cryst.   s(13) = (    -1          0          0      )
                  (     0          0          1      )
                  (     0          1          0      )

 cart.    s(13) = ( -1.0000000  0.0000000  0.0000000 )
                  (  0.0000000  0.0000000  1.0000000 )
                  (  0.0000000  1.0000000  0.0000000 )


      isym = 14     180 deg rotation - cart. axis [0,1,-1]       

 cryst.   s(14) = (    -1          0          0      )
                  (     0          0         -1      )
                  (     0         -1          0      )

 cart.    s(14) = ( -1.0000000  0.0000000  0.0000000 )
                  (  0.0000000  0.0000000 -1.0000000 )
                  (  0.0000000 -1.0000000  0.0000000 )


      isym = 15      90 deg rotation - cart. axis [-1,0,0]       

 cryst.   s(15) = (     1          0          0      )
                  (     0          0         -1      )
                  (     0          1          0      )

 cart.    s(15) = (  1.0000000  0.0000000  0.0000000 )
                  (  0.0000000  0.0000000  1.0000000 )
                  (  0.0000000 -1.0000000  0.0000000 )


      isym = 16      90 deg rotation - cart. axis [1,0,0]        

 cryst.   s(16) = (     1          0          0      )
                  (     0          0          1      )
                  (     0         -1          0      )

 cart.    s(16) = (  1.0000000  0.0000000  0.0000000 )
                  (  0.0000000  0.0000000 -1.0000000 )
                  (  0.0000000  1.0000000  0.0000000 )


      isym = 17     120 deg rotation - cart. axis [-1,-1,-1]     

 cryst.   s(17) = (     0          0          1      )
                  (     1          0          0      )
                  (     0          1          0      )

 cart.    s(17) = (  0.0000000  1.0000000  0.0000000 )
                  (  0.0000000  0.0000000  1.0000000 )
                  (  1.0000000  0.0000000  0.0000000 )


      isym = 18     120 deg rotation - cart. axis [-1,1,1]       

 cryst.   s(18) = (     0          0         -1      )
                  (    -1          0          0      )
                  (     0          1          0      )

 cart.    s(18) = (  0.0000000 -1.0000000  0.0000000 )
                  (  0.0000000  0.0000000  1.0000000 )
                  ( -1.0000000  0.0000000  0.0000000 )


      isym = 19     120 deg rotation - cart. axis [1,1,-1]       

 cryst.   s(19) = (     0          0         -1      )
                  (     1          0          0      )
                  (     0         -1          0      )

 cart.    s(19) = (  0.0000000  1.0000000  0.0000000 )
                  (  0.0000000  0.0000000 -1.0000000 )
                  ( -1.0000000  0.0000000  0.0000000 )


      isym = 20     120 deg rotation - cart. axis [1,-1,1]       

 cryst.   s(20) = (     0          0          1      )
                  (    -1          0          0      )
                  (     0         -1          0      )

 cart.    s(20) = (  0.0000000 -1.0000000  0.0000000 )
                  (  0.0000000  0.0000000 -1.0000000 )
                  (  1.0000000  0.0000000  0.0000000 )


      isym = 21     120 deg rotation - cart. axis [1,1,1]        

 cryst.   s(21) = (     0          1          0      )
                  (     0          0          1      )
                  (     1          0          0      )

 cart.    s(21) = (  0.0000000  0.0000000  1.0000000 )
                  (  1.0000000  0.0000000  0.0000000 )
                  (  0.0000000  1.0000000  0.0000000 )


      isym = 22     120 deg rotation - cart. axis [-1,1,-1]      

 cryst.   s(22) = (     0         -1          0      )
                  (     0          0         -1      )
                  (     1          0          0      )

 cart.    s(22) = (  0.0000000  0.0000000  1.0000000 )
                  ( -1.0000000  0.0000000  0.0000000 )
                  (  0.0000000 -1.0000000  0.0000000 )


      isym = 23     120 deg rotation - cart. axis [1,-1,-1]      

 cryst.   s(23) = (     0         -1          0      )
                  (     0          0          1      )
                  (    -1          0          0      )

 cart.    s(23) = (  0.0000000  0.0000000 -1.0000000 )
                  ( -1.0000000  0.0000000  0.0000000 )
                  (  0.0000000  1.0000000  0.0000000 )


      isym = 24     120 deg rotation - cart. axis [-1,-1,1]      

 cryst.   s(24) = (     0          1          0      )
                  (     0          0         -1      )
                  (    -1          0          0      )

 cart.    s(24) = (  0.0000000  0.0000000 -1.0000000 )
                  (  1.0000000  0.0000000  0.0000000 )
                  (  0.0000000 -1.0000000  0.0000000 )


      isym = 25     inversion                                    

 cryst.   s(25) = (    -1          0          0      )
                  (     0         -1          0      )
                  (     0          0         -1      )

 cart.    s(25) = ( -1.0000000  0.0000000  0.0000000 )
                  (  0.0000000 -1.0000000  0.0000000 )
                  (  0.0000000  0.0000000 -1.0000000 )


      isym = 26     inv. 180 deg rotation - cart. axis [0,0,1]   

 cryst.   s(26) = (     1          0          0      )
                  (     0          1          0      )
                  (     0          0         -1      )

 cart.    s(26) = (  1.0000000  0.0000000  0.0000000 )
                  (  0.0000000  1.0000000  0.0000000 )
                  (  0.0000000  0.0000000 -1.0000000 )


      isym = 27     inv. 180 deg rotation - cart. axis [0,1,0]   

 cryst.   s(27) = (     1          0          0      )
                  (     0         -1          0      )
                  (     0          0          1      )

 cart.    s(27) = (  1.0000000  0.0000000  0.0000000 )
                  (  0.0000000 -1.0000000  0.0000000 )
                  (  0.0000000  0.0000000  1.0000000 )


      isym = 28     inv. 180 deg rotation - cart. axis [1,0,0]   

 cryst.   s(28) = (    -1          0          0      )
                  (     0          1          0      )
                  (     0          0          1      )

 cart.    s(28) = ( -1.0000000  0.0000000  0.0000000 )
                  (  0.0000000  1.0000000  0.0000000 )
                  (  0.0000000  0.0000000  1.0000000 )


      isym = 29     inv. 180 deg rotation - cart. axis [1,1,0]   

 cryst.   s(29) = (     0         -1          0      )
                  (    -1          0          0      )
                  (     0          0          1      )

 cart.    s(29) = (  0.0000000 -1.0000000  0.0000000 )
                  ( -1.0000000  0.0000000  0.0000000 )
                  (  0.0000000  0.0000000  1.0000000 )


      isym = 30     inv. 180 deg rotation - cart. axis [1,-1,0]  

 cryst.   s(30) = (     0          1          0      )
                  (     1          0          0      )
                  (     0          0          1      )

 cart.    s(30) = (  0.0000000  1.0000000  0.0000000 )
                  (  1.0000000  0.0000000  0.0000000 )
                  (  0.0000000  0.0000000  1.0000000 )


      isym = 31     inv.  90 deg rotation - cart. axis [0,0,-1]  

 cryst.   s(31) = (     0          1          0      )
                  (    -1          0          0      )
                  (     0          0         -1      )

 cart.    s(31) = (  0.0000000 -1.0000000  0.0000000 )
                  (  1.0000000  0.0000000  0.0000000 )
                  (  0.0000000  0.0000000 -1.0000000 )


      isym = 32     inv.  90 deg rotation - cart. axis [0,0,1]   

 cryst.   s(32) = (     0         -1          0      )
                  (     1          0          0      )
                  (     0          0         -1      )

 cart.    s(32) = (  0.0000000  1.0000000  0.0000000 )
                  ( -1.0000000  0.0000000  0.0000000 )
                  (  0.0000000  0.0000000 -1.0000000 )


      isym = 33     inv. 180 deg rotation - cart. axis [1,0,1]   

 cryst.   s(33) = (     0          0         -1      )
                  (     0          1          0      )
                  (    -1          0          0      )

 cart.    s(33) = (  0.0000000  0.0000000 -1.0000000 )
                  (  0.0000000  1.0000000  0.0000000 )
                  ( -1.0000000  0.0000000  0.0000000 )


      isym = 34     inv. 180 deg rotation - cart. axis [-1,0,1]  

 cryst.   s(34) = (     0          0          1      )
                  (     0          1          0      )
                  (     1          0          0      )

 cart.    s(34) = (  0.0000000  0.0000000  1.0000000 )
                  (  0.0000000  1.0000000  0.0000000 )
                  (  1.0000000  0.0000000  0.0000000 )


      isym = 35     inv.  90 deg rotation - cart. axis [0,1,0]   

 cryst.   s(35) = (     0          0          1      )
                  (     0         -1          0      )
                  (    -1          0          0      )

 cart.    s(35) = (  0.0000000  0.0000000 -1.0000000 )
                  (  0.0000000 -1.0000000  0.0000000 )
                  (  1.0000000  0.0000000  0.0000000 )


      isym = 36     inv.  90 deg rotation - cart. axis [0,-1,0]  

 cryst.   s(36) = (     0          0         -1      )
                  (     0         -1          0      )
                  (     1          0          0      )

 cart.    s(36) = (  0.0000000  0.0000000  1.0000000 )
                  (  0.0000000 -1.0000000  0.0000000 )
                  ( -1.0000000  0.0000000  0.0000000 )


      isym = 37     inv. 180 deg rotation - cart. axis [0,1,1]   

 cryst.   s(37) = (     1          0          0      )
                  (     0          0         -1      )
                  (     0         -1          0      )

 cart.    s(37) = (  1.0000000  0.0000000  0.0000000 )
                  (  0.0000000  0.0000000 -1.0000000 )
                  (  0.0000000 -1.0000000  0.0000000 )


      isym = 38     inv. 180 deg rotation - cart. axis [0,1,-1]  

 cryst.   s(38) = (     1          0          0      )
                  (     0          0          1      )
                  (     0          1          0      )

 cart.    s(38) = (  1.0000000  0.0000000  0.0000000 )
                  (  0.0000000  0.0000000  1.0000000 )
                  (  0.0000000  1.0000000  0.0000000 )


      isym = 39     inv.  90 deg rotation - cart. axis [-1,0,0]  

 cryst.   s(39) = (    -1          0          0      )
                  (     0          0          1      )
                  (     0         -1          0      )

 cart.    s(39) = ( -1.0000000  0.0000000  0.0000000 )
                  (  0.0000000  0.0000000 -1.0000000 )
                  (  0.0000000  1.0000000  0.0000000 )


      isym = 40     inv.  90 deg rotation - cart. axis [1,0,0]   

 cryst.   s(40) = (    -1          0          0      )
                  (     0          0         -1      )
                  (     0          1          0      )

 cart.    s(40) = ( -1.0000000  0.0000000  0.0000000 )
                  (  0.0000000  0.0000000  1.0000000 )
                  (  0.0000000 -1.0000000  0.0000000 )


      isym = 41     inv. 120 deg rotation - cart. axis [-1,-1,-1]

 cryst.   s(41) = (     0          0         -1      )
                  (    -1          0          0      )
                  (     0         -1          0      )

 cart.    s(41) = (  0.0000000 -1.0000000  0.0000000 )
                  (  0.0000000  0.0000000 -1.0000000 )
                  ( -1.0000000  0.0000000  0.0000000 )


      isym = 42     inv. 120 deg rotation - cart. axis [-1,1,1]  

 cryst.   s(42) = (     0          0          1      )
                  (     1          0          0      )
                  (     0         -1          0      )

 cart.    s(42) = (  0.0000000  1.0000000  0.0000000 )
                  (  0.0000000  0.0000000 -1.0000000 )
                  (  1.0000000  0.0000000  0.0000000 )


      isym = 43     inv. 120 deg rotation - cart. axis [1,1,-1]  

 cryst.   s(43) = (     0          0          1      )
                  (    -1          0          0      )
                  (     0          1          0      )

 cart.    s(43) = (  0.0000000 -1.0000000  0.0000000 )
                  (  0.0000000  0.0000000  1.0000000 )
                  (  1.0000000  0.0000000  0.0000000 )


      isym = 44     inv. 120 deg rotation - cart. axis [1,-1,1]  

 cryst.   s(44) = (     0          0         -1      )
                  (     1          0          0      )
                  (     0          1          0      )

 cart.    s(44) = (  0.0000000  1.0000000  0.0000000 )
                  (  0.0000000  0.0000000  1.0000000 )
                  ( -1.0000000  0.0000000  0.0000000 )


      isym = 45     inv. 120 deg rotation - cart. axis [1,1,1]   

 cryst.   s(45) = (     0         -1          0      )
                  (     0          0         -1      )
                  (    -1          0          0      )

 cart.    s(45) = (  0.0000000  0.0000000 -1.0000000 )
                  ( -1.0000000  0.0000000  0.0000000 )
                  (  0.0000000 -1.0000000  0.0000000 )


      isym = 46     inv. 120 deg rotation - cart. axis [-1,1,-1] 

 cryst.   s(46) = (     0          1          0      )
                  (     0          0          1      )
                  (    -1          0          0      )

 cart.    s(46) = (  0.0000000  0.0000000 -1.0000000 )
                  (  1.0000000  0.0000000  0.0000000 )
                  (  0.0000000  1.0000000  0.0000000 )


      isym = 47     inv. 120 deg rotation - cart. axis [1,-1,-1] 

 cryst.   s(47) = (     0          1          0      )
                  (     0          0         -1      )
                  (     1          0          0      )

 cart.    s(47) = (  0.0000000  0.0000000  1.0000000 )
                  (  1.0000000  0.0000000  0.0000000 )
                  (  0.0000000 -1.0000000  0.0000000 )


      isym = 48     inv. 120 deg rotation - cart. axis [-1,-1,1] 

 cryst.   s(48) = (     0         -1          0      )
                  (     0          0          1      )
                  (     1          0          0      )

 cart.    s(48) = (  0.0000000  0.0000000  1.0000000 )
                  ( -1.0000000  0.0000000  0.0000000 )
                  (  0.0000000  1.0000000  0.0000000 )


   Cartesian axes

     site n.     atom                  positions (alat units)
         1           V   tau(   1) = (   0.0000000   0.0000000   0.0000000  )
         2           C   tau(   2) = (   0.0000000   0.5000000   0.5000000  )
         3           C   tau(   3) = (   0.5000000   0.0000000   0.5000000  )
         4           C   tau(   4) = (   0.5000000   0.5000000   0.0000000  )

   Crystallographic axes

     site n.     atom                  positions (cryst. coord.)
         1           V   tau(   1) = (  0.0000000  0.0000000  0.0000000  )
         2           C   tau(   2) = (  0.0000000  0.5000000  0.5000000  )
         3           C   tau(   3) = (  0.5000000  0.0000000  0.5000000  )
         4           C   tau(   4) = (  0.5000000  0.5000000  0.0000000  )

     number of k points=    20  Marzari-Vanderbilt smearing, width (Ry)=  0.0100
                       cart. coord. in units 2pi/alat
        k(    1) = (   0.0000000   0.0000000   0.0000000), wk =   0.0046296
        k(    2) = (   0.0000000   0.0000000   0.1666667), wk =   0.0277778
        k(    3) = (   0.0000000   0.0000000   0.3333333), wk =   0.0277778
        k(    4) = (   0.0000000   0.0000000  -0.5000000), wk =   0.0138889
        k(    5) = (   0.0000000   0.1666667   0.1666667), wk =   0.0555556
        k(    6) = (   0.0000000   0.1666667   0.3333333), wk =   0.1111111
        k(    7) = (   0.0000000   0.1666667  -0.5000000), wk =   0.0555556
        k(    8) = (   0.0000000   0.3333333   0.3333333), wk =   0.0555556
        k(    9) = (   0.0000000   0.3333333  -0.5000000), wk =   0.0555556
        k(   10) = (   0.0000000  -0.5000000  -0.5000000), wk =   0.0138889
        k(   11) = (   0.1666667   0.1666667   0.1666667), wk =   0.0370370
        k(   12) = (   0.1666667   0.1666667   0.3333333), wk =   0.1111111
        k(   13) = (   0.1666667   0.1666667  -0.5000000), wk =   0.0555556
        k(   14) = (   0.1666667   0.3333333   0.3333333), wk =   0.1111111
        k(   15) = (   0.1666667   0.3333333  -0.5000000), wk =   0.1111111
        k(   16) = (   0.1666667  -0.5000000  -0.5000000), wk =   0.0277778
        k(   17) = (   0.3333333   0.3333333   0.3333333), wk =   0.0370370
        k(   18) = (   0.3333333   0.3333333  -0.5000000), wk =   0.0555556
        k(   19) = (   0.3333333  -0.5000000  -0.5000000), wk =   0.0277778
        k(   20) = (  -0.5000000  -0.5000000  -0.5000000), wk =   0.0046296

                       cryst. coord.
        k(    1) = (   0.0000000   0.0000000   0.0000000), wk =   0.0046296
        k(    2) = (   0.0000000   0.0000000   0.1666667), wk =   0.0277778
        k(    3) = (   0.0000000   0.0000000   0.3333333), wk =   0.0277778
        k(    4) = (   0.0000000   0.0000000  -0.5000000), wk =   0.0138889
        k(    5) = (   0.0000000   0.1666667   0.1666667), wk =   0.0555556
        k(    6) = (   0.0000000   0.1666667   0.3333333), wk =   0.1111111
        k(    7) = (   0.0000000   0.1666667  -0.5000000), wk =   0.0555556
        k(    8) = (   0.0000000   0.3333333   0.3333333), wk =   0.0555556
        k(    9) = (   0.0000000   0.3333333  -0.5000000), wk =   0.0555556
        k(   10) = (   0.0000000  -0.5000000  -0.5000000), wk =   0.0138889
        k(   11) = (   0.1666667   0.1666667   0.1666667), wk =   0.0370370
        k(   12) = (   0.1666667   0.1666667   0.3333333), wk =   0.1111111
        k(   13) = (   0.1666667   0.1666667  -0.5000000), wk =   0.0555556
        k(   14) = (   0.1666667   0.3333333   0.3333333), wk =   0.1111111
        k(   15) = (   0.1666667   0.3333333  -0.5000000), wk =   0.1111111
        k(   16) = (   0.1666667  -0.5000000  -0.5000000), wk =   0.0277778
        k(   17) = (   0.3333333   0.3333333   0.3333333), wk =   0.0370370
        k(   18) = (   0.3333333   0.3333333  -0.5000000), wk =   0.0555556
        k(   19) = (   0.3333333  -0.5000000  -0.5000000), wk =   0.0277778
        k(   20) = (  -0.5000000  -0.5000000  -0.5000000), wk =   0.0046296

     Dense  grid:   272489 G-vectors     FFT dimensions: (  81,  81,  81)

     Smooth grid:    96177 G-vectors     FFT dimensions: (  60,  60,  60)

     Dynamical RAM for                 wfc:       3.12 MB

     Dynamical RAM for     wfc (w. buffer):     128.11 MB

     Dynamical RAM for           str. fact:       8.32 MB

     Dynamical RAM for           local pot:       0.00 MB

     Dynamical RAM for          nlocal pot:       7.72 MB

     Dynamical RAM for                qrad:       3.05 MB

     Dynamical RAM for          rho,v,vnew:      49.27 MB

     Dynamical RAM for               rhoin:      16.42 MB

     Dynamical RAM for            rho*nmix:     133.05 MB

     Dynamical RAM for           G-vectors:      16.33 MB

     Dynamical RAM for          h,s,v(r/c):       0.05 MB

     Dynamical RAM for          <psi|beta>:       0.01 MB

     Dynamical RAM for                 psi:       6.25 MB

     Dynamical RAM for                hpsi:       6.25 MB

     Dynamical RAM for                spsi:       6.25 MB

     Dynamical RAM for      wfcinit/wfcrot:       6.26 MB

     Dynamical RAM for           addusdens:     789.99 MB

     Dynamical RAM for          addusforce:     806.65 MB

     Dynamical RAM for         addusstress:     841.97 MB

     Estimated static dynamical RAM per process >     266.02 MB

     Estimated max dynamical RAM per process >       1.21 GB

     Atomic positions and unit cell read from directory:
     ./out/aiida.save/
 

     Check: negative core charge=   -0.000004
     Generating pointlists ...
     new r_m :   0.2917 (alat units)  3.8851 (a.u.) for type    1
     new r_m :   0.2917 (alat units)  3.8851 (a.u.) for type    2

     The initial density is read from file :
     ./out/aiida.save/charge-density


     negative rho (up, down):  7.421E-02 0.000E+00
     Starting wfcs from file
     Checking if some PAW data can be deallocated... 

     total cpu time spent up to now is        3.0 secs

     per-process dynamical memory:   528.5 Mb

     Self-consistent Calculation
[tb_dev] Currently allocated     3.05E-05 Mbytes, locked:    0 /   2
[tb_pin] Currently allocated     0.00E+00 Mbytes, locked:    0 /   0

     iteration #  1     ecut=    45.00 Ry     beta= 0.10
     Davidson diagonalization with overlap

---- Real-time Memory Report at c_bands before calling an iterative solver
           722 MiB given to the printing process from OS
           525 MiB allocation reported by mallinfo(arena+hblkhd)
         58934 MiB available memory on the node where the printing process lives
     GPU memory used/free/total (MiB): 812 / 15468 / 16280
------------------
     ethr =  1.00E-05,  avg # of iterations =  7.5

     negative rho (up, down):  6.000E-02 0.000E+00

     total cpu time spent up to now is        5.9 secs

     total energy              =    -196.99949663 Ry
     estimated scf accuracy    <       1.48449219 Ry

     total magnetization       =    -0.96 Bohr mag/cell
     absolute magnetization    =    10.63 Bohr mag/cell
[tb_dev] Currently allocated     5.06E+00 Mbytes, locked:    0 /   8
[tb_pin] Currently allocated     0.00E+00 Mbytes, locked:    0 /   0

     iteration #  2     ecut=    45.00 Ry     beta= 0.10
     Davidson diagonalization with overlap

---- Real-time Memory Report at c_bands before calling an iterative solver
          1313 MiB given to the printing process from OS
           994 MiB allocation reported by mallinfo(arena+hblkhd)
         57897 MiB available memory on the node where the printing process lives
     GPU memory used/free/total (MiB): 2226 / 14054 / 16280
------------------
     ethr =  5.94E-03,  avg # of iterations =  1.0

     negative rho (up, down):  5.621E-02 0.000E+00

     total cpu time spent up to now is        7.1 secs

     total energy              =    -197.10917208 Ry
     estimated scf accuracy    <       4.38926341 Ry

     total magnetization       =     6.97 Bohr mag/cell
     absolute magnetization    =    10.68 Bohr mag/cell
[tb_dev] Currently allocated     5.06E+00 Mbytes, locked:    0 /   8
[tb_pin] Currently allocated     0.00E+00 Mbytes, locked:    0 /   0

     iteration #  3     ecut=    45.00 Ry     beta= 0.10
     Davidson diagonalization with overlap

---- Real-time Memory Report at c_bands before calling an iterative solver
          1391 MiB given to the printing process from OS
          1008 MiB allocation reported by mallinfo(arena+hblkhd)
         57883 MiB available memory on the node where the printing process lives
     GPU memory used/free/total (MiB): 2226 / 14054 / 16280
------------------
     ethr =  5.94E-03,  avg # of iterations =  1.0

     negative rho (up, down):  4.753E-02 0.000E+00

     total cpu time spent up to now is        8.6 secs

     total energy              =    -197.14608049 Ry
     estimated scf accuracy    <       0.20071368 Ry

     total magnetization       =     0.71 Bohr mag/cell
     absolute magnetization    =    10.64 Bohr mag/cell
[tb_dev] Currently allocated     5.06E+00 Mbytes, locked:    0 /   8
[tb_pin] Currently allocated     0.00E+00 Mbytes, locked:    0 /   0

     iteration #  4     ecut=    45.00 Ry     beta= 0.10
     Davidson diagonalization with overlap

---- Real-time Memory Report at c_bands before calling an iterative solver
          1471 MiB given to the printing process from OS
          1022 MiB allocation reported by mallinfo(arena+hblkhd)
         57871 MiB available memory on the node where the printing process lives
     GPU memory used/free/total (MiB): 2226 / 14054 / 16280
------------------
     ethr =  8.03E-04,  avg # of iterations =  1.0

     negative rho (up, down):  4.534E-02 0.000E+00

     total cpu time spent up to now is        9.8 secs

     total energy              =    -196.97527428 Ry
     estimated scf accuracy    <       1.08019805 Ry

     total magnetization       =     4.51 Bohr mag/cell
     absolute magnetization    =    10.66 Bohr mag/cell
[tb_dev] Currently allocated     5.06E+00 Mbytes, locked:    0 /   8
[tb_pin] Currently allocated     0.00E+00 Mbytes, locked:    0 /   0

     iteration #  5     ecut=    45.00 Ry     beta= 0.10
     Davidson diagonalization with overlap

---- Real-time Memory Report at c_bands before calling an iterative solver
          1545 MiB given to the printing process from OS
          1032 MiB allocation reported by mallinfo(arena+hblkhd)
         57859 MiB available memory on the node where the printing process lives
     GPU memory used/free/total (MiB): 2226 / 14054 / 16280
------------------
     ethr =  8.03E-04,  avg # of iterations =  1.5

     negative rho (up, down):  1.664E-02 0.000E+00

     total cpu time spent up to now is       11.1 secs

     total energy              =    -197.34460527 Ry
     estimated scf accuracy    <       1.77792224 Ry

     total magnetization       =    -0.96 Bohr mag/cell
     absolute magnetization    =    10.61 Bohr mag/cell
[tb_dev] Currently allocated     5.06E+00 Mbytes, locked:    0 /   8
[tb_pin] Currently allocated     0.00E+00 Mbytes, locked:    0 /   0

     iteration #  6     ecut=    45.00 Ry     beta= 0.10
     Davidson diagonalization with overlap

---- Real-time Memory Report at c_bands before calling an iterative solver
          1622 MiB given to the printing process from OS
          1043 MiB allocation reported by mallinfo(arena+hblkhd)
         57848 MiB available memory on the node where the printing process lives
     GPU memory used/free/total (MiB): 2226 / 14054 / 16280
------------------
     ethr =  8.03E-04,  avg # of iterations =  1.0

     negative rho (up, down):  5.968E-03 0.000E+00

     total cpu time spent up to now is       12.3 secs

     total energy              =    -197.07909714 Ry
     estimated scf accuracy    <       1.78929393 Ry

     total magnetization       =    -0.96 Bohr mag/cell
     absolute magnetization    =    10.64 Bohr mag/cell
[tb_dev] Currently allocated     5.06E+00 Mbytes, locked:    0 /   8
[tb_pin] Currently allocated     0.00E+00 Mbytes, locked:    0 /   0

     iteration #  7     ecut=    45.00 Ry     beta= 0.10
     Davidson diagonalization with overlap

---- Real-time Memory Report at c_bands before calling an iterative solver
          1700 MiB given to the printing process from OS
          1057 MiB allocation reported by mallinfo(arena+hblkhd)
         57834 MiB available memory on the node where the printing process lives
     GPU memory used/free/total (MiB): 2226 / 14054 / 16280
------------------
     ethr =  8.03E-04,  avg # of iterations =  1.5

     negative rho (up, down):  2.802E-03 0.000E+00

     total cpu time spent up to now is       13.5 secs

     total energy              =    -196.95510955 Ry
     estimated scf accuracy    <       4.62965711 Ry

     total magnetization       =     7.33 Bohr mag/cell
     absolute magnetization    =    10.69 Bohr mag/cell
[tb_dev] Currently allocated     5.06E+00 Mbytes, locked:    0 /   8
[tb_pin] Currently allocated     0.00E+00 Mbytes, locked:    0 /   0

     iteration #  8     ecut=    45.00 Ry     beta= 0.10
     Davidson diagonalization with overlap

---- Real-time Memory Report at c_bands before calling an iterative solver
          1757 MiB given to the printing process from OS
          1071 MiB allocation reported by mallinfo(arena+hblkhd)
         57821 MiB available memory on the node where the printing process lives
     GPU memory used/free/total (MiB): 2226 / 14054 / 16280
------------------
     ethr =  8.03E-04,  avg # of iterations =  1.0

     negative rho (up, down):  2.796E-03 0.000E+00

     total cpu time spent up to now is       14.7 secs

     total energy              =    -197.21797558 Ry
     estimated scf accuracy    <       1.56334657 Ry

     total magnetization       =    -1.10 Bohr mag/cell
     absolute magnetization    =    10.68 Bohr mag/cell
[tb_dev] Currently allocated     5.06E+00 Mbytes, locked:    0 /   8
[tb_pin] Currently allocated     0.00E+00 Mbytes, locked:    0 /   0

     iteration #  9     ecut=    45.00 Ry     beta= 0.10
     Davidson diagonalization with overlap

---- Real-time Memory Report at c_bands before calling an iterative solver
          1800 MiB given to the printing process from OS
          1085 MiB allocation reported by mallinfo(arena+hblkhd)
         57807 MiB available memory on the node where the printing process lives
     GPU memory used/free/total (MiB): 2226 / 14054 / 16280
------------------
     ethr =  8.03E-04,  avg # of iterations =  1.0

     negative rho (up, down):  2.803E-03 0.000E+00

     total cpu time spent up to now is       15.9 secs

     total energy              =    -197.12242582 Ry
     estimated scf accuracy    <       1.58430261 Ry

     total magnetization       =    -1.10 Bohr mag/cell
     absolute magnetization    =    10.68 Bohr mag/cell
[tb_dev] Currently allocated     5.06E+00 Mbytes, locked:    0 /   8
[tb_pin] Currently allocated     0.00E+00 Mbytes, locked:    0 /   0

     iteration # 10     ecut=    45.00 Ry     beta= 0.10
     Davidson diagonalization with overlap

---- Real-time Memory Report at c_bands before calling an iterative solver
          1843 MiB given to the printing process from OS
          1098 MiB allocation reported by mallinfo(arena+hblkhd)
         57793 MiB available memory on the node where the printing process lives
     GPU memory used/free/total (MiB): 2226 / 14054 / 16280
------------------
     ethr =  8.03E-04,  avg # of iterations =  1.0

     negative rho (up, down):  2.799E-03 0.000E+00

     total cpu time spent up to now is       17.1 secs

     total energy              =    -197.13950972 Ry
     estimated scf accuracy    <       0.15266318 Ry

     total magnetization       =     3.47 Bohr mag/cell
     absolute magnetization    =    10.78 Bohr mag/cell
[tb_dev] Currently allocated     5.06E+00 Mbytes, locked:    0 /   8
[tb_pin] Currently allocated     0.00E+00 Mbytes, locked:    0 /   0

     iteration # 11     ecut=    45.00 Ry     beta= 0.10
     Davidson diagonalization with overlap

---- Real-time Memory Report at c_bands before calling an iterative solver
          1869 MiB given to the printing process from OS
          1103 MiB allocation reported by mallinfo(arena+hblkhd)
         57787 MiB available memory on the node where the printing process lives
     GPU memory used/free/total (MiB): 2226 / 14054 / 16280
------------------
     ethr =  6.11E-04,  avg # of iterations =  1.0

     negative rho (up, down):  2.802E-03 0.000E+00

     total cpu time spent up to now is       18.3 secs

     total energy              =    -197.13329877 Ry
     estimated scf accuracy    <       0.18897140 Ry

     total magnetization       =     1.88 Bohr mag/cell
     absolute magnetization    =    10.81 Bohr mag/cell
[tb_dev] Currently allocated     5.06E+00 Mbytes, locked:    0 /   8
[tb_pin] Currently allocated     0.00E+00 Mbytes, locked:    0 /   0

     iteration # 12     ecut=    45.00 Ry     beta= 0.10
     Davidson diagonalization with overlap

---- Real-time Memory Report at c_bands before calling an iterative solver
          1893 MiB given to the printing process from OS
          1108 MiB allocation reported by mallinfo(arena+hblkhd)
         57783 MiB available memory on the node where the printing process lives
     GPU memory used/free/total (MiB): 2226 / 14054 / 16280
------------------
     ethr =  6.11E-04,  avg # of iterations =  1.0

     negative rho (up, down):  2.803E-03 0.000E+00

     total cpu time spent up to now is       19.5 secs

     total energy              =    -197.14090557 Ry
     estimated scf accuracy    <       2.04466689 Ry

     total magnetization       =     6.18 Bohr mag/cell
     absolute magnetization    =    10.79 Bohr mag/cell
[tb_dev] Currently allocated     5.06E+00 Mbytes, locked:    0 /   8
[tb_pin] Currently allocated     0.00E+00 Mbytes, locked:    0 /   0

     iteration # 13     ecut=    45.00 Ry     beta= 0.10
     Davidson diagonalization with overlap

---- Real-time Memory Report at c_bands before calling an iterative solver
          1919 MiB given to the printing process from OS
          1113 MiB allocation reported by mallinfo(arena+hblkhd)
         57778 MiB available memory on the node where the printing process lives
     GPU memory used/free/total (MiB): 2226 / 14054 / 16280
------------------
     ethr =  6.11E-04,  avg # of iterations =  1.0

     negative rho (up, down):  2.801E-03 0.000E+00

     total cpu time spent up to now is       20.7 secs

     total energy              =    -197.13745774 Ry
     estimated scf accuracy    <       0.62677568 Ry

     total magnetization       =     4.55 Bohr mag/cell
     absolute magnetization    =    10.79 Bohr mag/cell
[tb_dev] Currently allocated     5.06E+00 Mbytes, locked:    0 /   8
[tb_pin] Currently allocated     0.00E+00 Mbytes, locked:    0 /   0

     iteration # 14     ecut=    45.00 Ry     beta= 0.10
     Davidson diagonalization with overlap

---- Real-time Memory Report at c_bands before calling an iterative solver
          1944 MiB given to the printing process from OS
          1118 MiB allocation reported by mallinfo(arena+hblkhd)
         57773 MiB available memory on the node where the printing process lives
     GPU memory used/free/total (MiB): 2226 / 14054 / 16280
------------------
     ethr =  6.11E-04,  avg # of iterations =  1.0

     negative rho (up, down):  2.798E-03 0.000E+00

     total cpu time spent up to now is       21.9 secs

     total energy              =    -197.14181513 Ry
     estimated scf accuracy    <       0.05783460 Ry

     total magnetization       =     2.91 Bohr mag/cell
     absolute magnetization    =    10.78 Bohr mag/cell
[tb_dev] Currently allocated     5.06E+00 Mbytes, locked:    0 /   8
[tb_pin] Currently allocated     0.00E+00 Mbytes, locked:    0 /   0

     iteration # 15     ecut=    45.00 Ry     beta= 0.10
     Davidson diagonalization with overlap

---- Real-time Memory Report at c_bands before calling an iterative solver
          1969 MiB given to the printing process from OS
          1123 MiB allocation reported by mallinfo(arena+hblkhd)
         57765 MiB available memory on the node where the printing process lives
     GPU memory used/free/total (MiB): 2226 / 14054 / 16280
------------------
     ethr =  2.31E-04,  avg # of iterations =  1.0

     negative rho (up, down):  2.797E-03 5.510E-09

     total cpu time spent up to now is       23.1 secs

     total energy              =    -197.12679423 Ry
     estimated scf accuracy    <       0.28359420 Ry

     total magnetization       =     3.91 Bohr mag/cell
     absolute magnetization    =    10.80 Bohr mag/cell
[tb_dev] Currently allocated     5.06E+00 Mbytes, locked:    0 /   8
[tb_pin] Currently allocated     0.00E+00 Mbytes, locked:    0 /   0

     iteration # 16     ecut=    45.00 Ry     beta= 0.10
     Davidson diagonalization with overlap

---- Real-time Memory Report at c_bands before calling an iterative solver
          1994 MiB given to the printing process from OS
          1128 MiB allocation reported by mallinfo(arena+hblkhd)
         57761 MiB available memory on the node where the printing process lives
     GPU memory used/free/total (MiB): 2226 / 14054 / 16280
------------------
     ethr =  2.31E-04,  avg # of iterations =  1.0

     negative rho (up, down):  2.802E-03 0.000E+00

     total cpu time spent up to now is       24.3 secs

     total energy              =    -197.17273490 Ry
     estimated scf accuracy    <       1.22570490 Ry

     total magnetization       =    -0.35 Bohr mag/cell
     absolute magnetization    =    10.73 Bohr mag/cell
[tb_dev] Currently allocated     5.06E+00 Mbytes, locked:    0 /   8
[tb_pin] Currently allocated     0.00E+00 Mbytes, locked:    0 /   0

     iteration # 17     ecut=    45.00 Ry     beta= 0.10
     Davidson diagonalization with overlap

---- Real-time Memory Report at c_bands before calling an iterative solver
          2014 MiB given to the printing process from OS
          1133 MiB allocation reported by mallinfo(arena+hblkhd)
         57756 MiB available memory on the node where the printing process lives
     GPU memory used/free/total (MiB): 2226 / 14054 / 16280
------------------
     ethr =  2.31E-04,  avg # of iterations =  1.0

     negative rho (up, down):  2.807E-03 0.000E+00

     total cpu time spent up to now is       25.6 secs

     total energy              =    -197.16614128 Ry
     estimated scf accuracy    <       1.38759872 Ry

     total magnetization       =    -0.90 Bohr mag/cell
     absolute magnetization    =    10.68 Bohr mag/cell
[tb_dev] Currently allocated     5.06E+00 Mbytes, locked:    0 /   8
[tb_pin] Currently allocated     0.00E+00 Mbytes, locked:    0 /   0

     iteration # 18     ecut=    45.00 Ry     beta= 0.10
     Davidson diagonalization with overlap

---- Real-time Memory Report at c_bands before calling an iterative solver
          2028 MiB given to the printing process from OS
          1138 MiB allocation reported by mallinfo(arena+hblkhd)
         57753 MiB available memory on the node where the printing process lives
     GPU memory used/free/total (MiB): 2226 / 14054 / 16280
------------------
     ethr =  2.31E-04,  avg # of iterations =  1.0

     negative rho (up, down):  2.808E-03 0.000E+00

     total cpu time spent up to now is       26.8 secs

     total energy              =    -197.16239631 Ry
     estimated scf accuracy    <       1.43822058 Ry

     total magnetization       =    -0.85 Bohr mag/cell
     absolute magnetization    =    10.70 Bohr mag/cell
[tb_dev] Currently allocated     5.06E+00 Mbytes, locked:    0 /   8
[tb_pin] Currently allocated     0.00E+00 Mbytes, locked:    0 /   0

     iteration # 19     ecut=    45.00 Ry     beta= 0.10
     Davidson diagonalization with overlap

---- Real-time Memory Report at c_bands before calling an iterative solver
          2036 MiB given to the printing process from OS
          1143 MiB allocation reported by mallinfo(arena+hblkhd)
         57748 MiB available memory on the node where the printing process lives
     GPU memory used/free/total (MiB): 2226 / 14054 / 16280
------------------
     ethr =  2.31E-04,  avg # of iterations =  1.0

     negative rho (up, down):  2.810E-03 0.000E+00

     total cpu time spent up to now is       28.0 secs

     total energy              =    -197.17397414 Ry
     estimated scf accuracy    <       1.52867086 Ry

     total magnetization       =    -0.90 Bohr mag/cell
     absolute magnetization    =    10.71 Bohr mag/cell
[tb_dev] Currently allocated     5.06E+00 Mbytes, locked:    0 /   8
[tb_pin] Currently allocated     0.00E+00 Mbytes, locked:    0 /   0

     iteration # 20     ecut=    45.00 Ry     beta= 0.10
     Davidson diagonalization with overlap

---- Real-time Memory Report at c_bands before calling an iterative solver
          2046 MiB given to the printing process from OS
          1148 MiB allocation reported by mallinfo(arena+hblkhd)
         57744 MiB available memory on the node where the printing process lives
     GPU memory used/free/total (MiB): 2226 / 14054 / 16280
------------------
     ethr =  2.31E-04,  avg # of iterations =  1.0

     negative rho (up, down):  2.811E-03 0.000E+00

     total cpu time spent up to now is       29.2 secs

     total energy              =    -197.16514573 Ry
     estimated scf accuracy    <       1.30438369 Ry

     total magnetization       =    -0.69 Bohr mag/cell
     absolute magnetization    =    10.70 Bohr mag/cell
[tb_dev] Currently allocated     5.06E+00 Mbytes, locked:    0 /   8
[tb_pin] Currently allocated     0.00E+00 Mbytes, locked:    0 /   0

     iteration # 21     ecut=    45.00 Ry     beta= 0.10
     Davidson diagonalization with overlap

---- Real-time Memory Report at c_bands before calling an iterative solver
          2055 MiB given to the printing process from OS
          1153 MiB allocation reported by mallinfo(arena+hblkhd)
         57739 MiB available memory on the node where the printing process lives
     GPU memory used/free/total (MiB): 2226 / 14054 / 16280
------------------
     ethr =  2.31E-04,  avg # of iterations =  1.0

     negative rho (up, down):  2.804E-03 0.000E+00

     total cpu time spent up to now is       30.4 secs

     total energy              =    -197.16329346 Ry
     estimated scf accuracy    <       1.41270666 Ry

     total magnetization       =    -0.73 Bohr mag/cell
     absolute magnetization    =    10.71 Bohr mag/cell
[tb_dev] Currently allocated     5.06E+00 Mbytes, locked:    0 /   8
[tb_pin] Currently allocated     0.00E+00 Mbytes, locked:    0 /   0

     iteration # 22     ecut=    45.00 Ry     beta= 0.10
     Davidson diagonalization with overlap

---- Real-time Memory Report at c_bands before calling an iterative solver
          2068 MiB given to the printing process from OS
          1157 MiB allocation reported by mallinfo(arena+hblkhd)
         57734 MiB available memory on the node where the printing process lives
     GPU memory used/free/total (MiB): 2226 / 14054 / 16280
------------------
     ethr =  2.31E-04,  avg # of iterations =  1.1

     negative rho (up, down):  2.800E-03 0.000E+00

     total cpu time spent up to now is       31.7 secs

     total energy              =    -197.17385046 Ry
     estimated scf accuracy    <       1.43294531 Ry

     total magnetization       =    -0.71 Bohr mag/cell
     absolute magnetization    =    10.72 Bohr mag/cell
[tb_dev] Currently allocated     5.06E+00 Mbytes, locked:    0 /   8
[tb_pin] Currently allocated     0.00E+00 Mbytes, locked:    0 /   0

     iteration # 23     ecut=    45.00 Ry     beta= 0.10
     Davidson diagonalization with overlap

---- Real-time Memory Report at c_bands before calling an iterative solver
          2073 MiB given to the printing process from OS
          1163 MiB allocation reported by mallinfo(arena+hblkhd)
         57731 MiB available memory on the node where the printing process lives
     GPU memory used/free/total (MiB): 2226 / 14054 / 16280
------------------
     ethr =  2.31E-04,  avg # of iterations =  1.0

     negative rho (up, down):  2.787E-03 0.000E+00

     total cpu time spent up to now is       32.9 secs

     total energy              =    -197.05203063 Ry
     estimated scf accuracy    <       1.27285225 Ry

     total magnetization       =    -0.59 Bohr mag/cell
     absolute magnetization    =    10.71 Bohr mag/cell
[tb_dev] Currently allocated     5.06E+00 Mbytes, locked:    0 /   8
[tb_pin] Currently allocated     0.00E+00 Mbytes, locked:    0 /   0

     iteration # 24     ecut=    45.00 Ry     beta= 0.10
     Davidson diagonalization with overlap

---- Real-time Memory Report at c_bands before calling an iterative solver
          2081 MiB given to the printing process from OS
          1168 MiB allocation reported by mallinfo(arena+hblkhd)
         57726 MiB available memory on the node where the printing process lives
     GPU memory used/free/total (MiB): 2226 / 14054 / 16280
------------------
     ethr =  2.31E-04,  avg # of iterations =  2.5

     negative rho (up, down):  2.792E-03 0.000E+00

     total cpu time spent up to now is       34.3 secs

     total energy              =    -197.00719019 Ry
     estimated scf accuracy    <       4.16451057 Ry

     total magnetization       =     7.02 Bohr mag/cell
     absolute magnetization    =    10.66 Bohr mag/cell
[tb_dev] Currently allocated     5.06E+00 Mbytes, locked:    0 /   8
[tb_pin] Currently allocated     0.00E+00 Mbytes, locked:    0 /   0

     iteration # 25     ecut=    45.00 Ry     beta= 0.10
     Davidson diagonalization with overlap

---- Real-time Memory Report at c_bands before calling an iterative solver
          2090 MiB given to the printing process from OS
          1174 MiB allocation reported by mallinfo(arena+hblkhd)
         57719 MiB available memory on the node where the printing process lives
     GPU memory used/free/total (MiB): 2226 / 14054 / 16280
------------------
     ethr =  2.31E-04,  avg # of iterations =  2.5

     negative rho (up, down):  2.792E-03 0.000E+00

     total cpu time spent up to now is       35.9 secs

     total energy              =    -197.19168186 Ry
     estimated scf accuracy    <       1.40007847 Ry

     total magnetization       =    -0.82 Bohr mag/cell
     absolute magnetization    =    10.69 Bohr mag/cell
[tb_dev] Currently allocated     5.06E+00 Mbytes, locked:    0 /   8
[tb_pin] Currently allocated     0.00E+00 Mbytes, locked:    0 /   0

     iteration # 26     ecut=    45.00 Ry     beta= 0.10
     Davidson diagonalization with overlap

---- Real-time Memory Report at c_bands before calling an iterative solver
          2092 MiB given to the printing process from OS
          1179 MiB allocation reported by mallinfo(arena+hblkhd)
         57714 MiB available memory on the node where the printing process lives
     GPU memory used/free/total (MiB): 2226 / 14054 / 16280
------------------
     ethr =  2.31E-04,  avg # of iterations =  1.0

     negative rho (up, down):  2.792E-03 0.000E+00

     total cpu time spent up to now is       37.1 secs

     total energy              =    -197.17716182 Ry
     estimated scf accuracy    <       1.39339048 Ry

     total magnetization       =    -0.81 Bohr mag/cell
     absolute magnetization    =    10.69 Bohr mag/cell
[tb_dev] Currently allocated     5.06E+00 Mbytes, locked:    0 /   8
[tb_pin] Currently allocated     0.00E+00 Mbytes, locked:    0 /   0

     iteration # 27     ecut=    45.00 Ry     beta= 0.10
     Davidson diagonalization with overlap

---- Real-time Memory Report at c_bands before calling an iterative solver
          2098 MiB given to the printing process from OS
          1184 MiB allocation reported by mallinfo(arena+hblkhd)
         57708 MiB available memory on the node where the printing process lives
     GPU memory used/free/total (MiB): 2226 / 14054 / 16280
------------------
     ethr =  2.31E-04,  avg # of iterations =  1.0

     negative rho (up, down):  2.775E-03 1.425E-06

     total cpu time spent up to now is       38.3 secs

     total energy              =    -197.17684948 Ry
     estimated scf accuracy    <       1.33416221 Ry

     total magnetization       =    -0.74 Bohr mag/cell
     absolute magnetization    =    10.70 Bohr mag/cell
[tb_dev] Currently allocated     5.06E+00 Mbytes, locked:    0 /   8
[tb_pin] Currently allocated     0.00E+00 Mbytes, locked:    0 /   0

     iteration # 28     ecut=    45.00 Ry     beta= 0.10
     Davidson diagonalization with overlap

---- Real-time Memory Report at c_bands before calling an iterative solver
          2103 MiB given to the printing process from OS
          1190 MiB allocation reported by mallinfo(arena+hblkhd)
         57703 MiB available memory on the node where the printing process lives
     GPU memory used/free/total (MiB): 2226 / 14054 / 16280
------------------
     ethr =  2.31E-04,  avg # of iterations =  1.0

     negative rho (up, down):  2.791E-03 0.000E+00

     total cpu time spent up to now is       39.5 secs

     total energy              =    -197.13073837 Ry
     estimated scf accuracy    <       1.29841197 Ry

     total magnetization       =    -0.62 Bohr mag/cell
     absolute magnetization    =    10.69 Bohr mag/cell
[tb_dev] Currently allocated     5.06E+00 Mbytes, locked:    0 /   8
[tb_pin] Currently allocated     0.00E+00 Mbytes, locked:    0 /   0

     iteration # 29     ecut=    45.00 Ry     beta= 0.10
     Davidson diagonalization with overlap

---- Real-time Memory Report at c_bands before calling an iterative solver
          2108 MiB given to the printing process from OS
          1195 MiB allocation reported by mallinfo(arena+hblkhd)
         57699 MiB available memory on the node where the printing process lives
     GPU memory used/free/total (MiB): 2226 / 14054 / 16280
------------------
     ethr =  2.31E-04,  avg # of iterations =  1.5

     negative rho (up, down):  2.785E-03 0.000E+00

     total cpu time spent up to now is       40.8 secs

     total energy              =    -197.13761485 Ry
     estimated scf accuracy    <       0.00600471 Ry

     total magnetization       =     2.14 Bohr mag/cell
     absolute magnetization    =    10.69 Bohr mag/cell
[tb_dev] Currently allocated     5.06E+00 Mbytes, locked:    0 /   8
[tb_pin] Currently allocated     0.00E+00 Mbytes, locked:    0 /   0

     iteration # 30     ecut=    45.00 Ry     beta= 0.10
     Davidson diagonalization with overlap

---- Real-time Memory Report at c_bands before calling an iterative solver
          2117 MiB given to the printing process from OS
          1201 MiB allocation reported by mallinfo(arena+hblkhd)
         57692 MiB available memory on the node where the printing process lives
     GPU memory used/free/total (MiB): 2226 / 14054 / 16280
------------------
     ethr =  2.40E-05,  avg # of iterations =  1.4

     negative rho (up, down):  2.770E-03 1.181E-07

     total cpu time spent up to now is       42.1 secs

     total energy              =    -197.13801259 Ry
     estimated scf accuracy    <       0.04050145 Ry

     total magnetization       =     2.58 Bohr mag/cell
     absolute magnetization    =    10.68 Bohr mag/cell
[tb_dev] Currently allocated     5.06E+00 Mbytes, locked:    0 /   8
[tb_pin] Currently allocated     0.00E+00 Mbytes, locked:    0 /   0

     iteration # 31     ecut=    45.00 Ry     beta= 0.10
     Davidson diagonalization with overlap

---- Real-time Memory Report at c_bands before calling an iterative solver
          2121 MiB given to the printing process from OS
          1206 MiB allocation reported by mallinfo(arena+hblkhd)
         57688 MiB available memory on the node where the printing process lives
     GPU memory used/free/total (MiB): 2226 / 14054 / 16280
------------------
     ethr =  2.40E-05,  avg # of iterations =  1.5

     negative rho (up, down):  2.791E-03 0.000E+00

     total cpu time spent up to now is       43.3 secs

     total energy              =    -197.13592629 Ry
     estimated scf accuracy    <       0.01092253 Ry

     total magnetization       =     2.39 Bohr mag/cell
     absolute magnetization    =    10.68 Bohr mag/cell
[tb_dev] Currently allocated     5.06E+00 Mbytes, locked:    0 /   8
[tb_pin] Currently allocated     0.00E+00 Mbytes, locked:    0 /   0

     iteration # 32     ecut=    45.00 Ry     beta= 0.10
     Davidson diagonalization with overlap

---- Real-time Memory Report at c_bands before calling an iterative solver
          2124 MiB given to the printing process from OS
          1212 MiB allocation reported by mallinfo(arena+hblkhd)
         57681 MiB available memory on the node where the printing process lives
     GPU memory used/free/total (MiB): 2226 / 14054 / 16280
------------------
     ethr =  2.40E-05,  avg # of iterations =  1.5

     negative rho (up, down):  2.767E-03 2.005E-07

     total cpu time spent up to now is       44.6 secs

     total energy              =    -197.13956139 Ry
     estimated scf accuracy    <       0.12657555 Ry

     total magnetization       =     1.31 Bohr mag/cell
     absolute magnetization    =    10.69 Bohr mag/cell
[tb_dev] Currently allocated     5.06E+00 Mbytes, locked:    0 /   8
[tb_pin] Currently allocated     0.00E+00 Mbytes, locked:    0 /   0

     iteration # 33     ecut=    45.00 Ry     beta= 0.10
     Davidson diagonalization with overlap

---- Real-time Memory Report at c_bands before calling an iterative solver
          2129 MiB given to the printing process from OS
          1217 MiB allocation reported by mallinfo(arena+hblkhd)
         57677 MiB available memory on the node where the printing process lives
     GPU memory used/free/total (MiB): 2226 / 14054 / 16280
------------------
     ethr =  2.40E-05,  avg # of iterations =  1.5

     negative rho (up, down):  2.773E-03 6.022E-08

     total cpu time spent up to now is       45.9 secs

     total energy              =    -197.12716462 Ry
     estimated scf accuracy    <       0.26299831 Ry

     total magnetization       =     0.94 Bohr mag/cell
     absolute magnetization    =    10.69 Bohr mag/cell
[tb_dev] Currently allocated     5.06E+00 Mbytes, locked:    0 /   8
[tb_pin] Currently allocated     0.00E+00 Mbytes, locked:    0 /   0

     iteration # 34     ecut=    45.00 Ry     beta= 0.10
     Davidson diagonalization with overlap

---- Real-time Memory Report at c_bands before calling an iterative solver
          2138 MiB given to the printing process from OS
          1222 MiB allocation reported by mallinfo(arena+hblkhd)
         57671 MiB available memory on the node where the printing process lives
     GPU memory used/free/total (MiB): 2226 / 14054 / 16280
------------------
     ethr =  2.40E-05,  avg # of iterations =  3.1

     negative rho (up, down):  2.784E-03 0.000E+00

     total cpu time spent up to now is       47.4 secs

     total energy              =    -197.16427531 Ry
     estimated scf accuracy    <       0.57822102 Ry

     total magnetization       =     3.85 Bohr mag/cell
     absolute magnetization    =    10.65 Bohr mag/cell
[tb_dev] Currently allocated     5.06E+00 Mbytes, locked:    0 /   8
[tb_pin] Currently allocated     0.00E+00 Mbytes, locked:    0 /   0

     iteration # 35     ecut=    45.00 Ry     beta= 0.10
     Davidson diagonalization with overlap

---- Real-time Memory Report at c_bands before calling an iterative solver
          2144 MiB given to the printing process from OS
          1228 MiB allocation reported by mallinfo(arena+hblkhd)
         57665 MiB available memory on the node where the printing process lives
     GPU memory used/free/total (MiB): 2284 / 13996 / 16280
------------------
     ethr =  2.40E-05,  avg # of iterations =  1.8

     negative rho (up, down):  2.786E-03 0.000E+00

     total cpu time spent up to now is       48.7 secs

     total energy              =    -197.19521837 Ry
     estimated scf accuracy    <       2.91126942 Ry

     total magnetization       =     6.17 Bohr mag/cell
     absolute magnetization    =    10.64 Bohr mag/cell
[tb_dev] Currently allocated     5.06E+00 Mbytes, locked:    0 /   8
[tb_pin] Currently allocated     0.00E+00 Mbytes, locked:    0 /   0

     iteration # 36     ecut=    45.00 Ry     beta= 0.10
     Davidson diagonalization with overlap

---- Real-time Memory Report at c_bands before calling an iterative solver
          2150 MiB given to the printing process from OS
          1233 MiB allocation reported by mallinfo(arena+hblkhd)
         57661 MiB available memory on the node where the printing process lives
     GPU memory used/free/total (MiB): 2284 / 13996 / 16280
------------------
     ethr =  2.40E-05,  avg # of iterations =  1.5

     negative rho (up, down):  2.787E-03 0.000E+00

     total cpu time spent up to now is       49.9 secs

     total energy              =    -197.12097424 Ry
     estimated scf accuracy    <       4.11242945 Ry

     total magnetization       =     6.97 Bohr mag/cell
     absolute magnetization    =    10.64 Bohr mag/cell
[tb_dev] Currently allocated     5.06E+00 Mbytes, locked:    0 /   8
[tb_pin] Currently allocated     0.00E+00 Mbytes, locked:    0 /   0

     iteration # 37     ecut=    45.00 Ry     beta= 0.10
     Davidson diagonalization with overlap

---- Real-time Memory Report at c_bands before calling an iterative solver
          2155 MiB given to the printing process from OS
          1239 MiB allocation reported by mallinfo(arena+hblkhd)
         57655 MiB available memory on the node where the printing process lives
     GPU memory used/free/total (MiB): 2284 / 13996 / 16280
------------------
     ethr =  2.40E-05,  avg # of iterations =  2.5

     negative rho (up, down):  2.787E-03 5.864E-09

     total cpu time spent up to now is       51.3 secs

     total energy              =    -197.14615376 Ry
     estimated scf accuracy    <       0.42231744 Ry

     total magnetization       =     3.66 Bohr mag/cell
     absolute magnetization    =    10.66 Bohr mag/cell
[tb_dev] Currently allocated     5.06E+00 Mbytes, locked:    0 /   8
[tb_pin] Currently allocated     0.00E+00 Mbytes, locked:    0 /   0

     iteration # 38     ecut=    45.00 Ry     beta= 0.10
     Davidson diagonalization with overlap

---- Real-time Memory Report at c_bands before calling an iterative solver
          2160 MiB given to the printing process from OS
          1244 MiB allocation reported by mallinfo(arena+hblkhd)
         57650 MiB available memory on the node where the printing process lives
     GPU memory used/free/total (MiB): 2332 / 13948 / 16280
------------------
     ethr =  2.40E-05,  avg # of iterations =  1.1

     negative rho (up, down):  2.789E-03 0.000E+00

     total cpu time spent up to now is       52.5 secs

     total energy              =    -197.14148758 Ry
     estimated scf accuracy    <       0.67785550 Ry

     total magnetization       =     4.06 Bohr mag/cell
     absolute magnetization    =    10.66 Bohr mag/cell
[tb_dev] Currently allocated     5.06E+00 Mbytes, locked:    0 /   8
[tb_pin] Currently allocated     0.00E+00 Mbytes, locked:    0 /   0

     iteration # 39     ecut=    45.00 Ry     beta= 0.10
     Davidson diagonalization with overlap

---- Real-time Memory Report at c_bands before calling an iterative solver
          2166 MiB given to the printing process from OS
          1250 MiB allocation reported by mallinfo(arena+hblkhd)
         57645 MiB available memory on the node where the printing process lives
     GPU memory used/free/total (MiB): 2332 / 13948 / 16280
------------------
     ethr =  2.40E-05,  avg # of iterations =  1.5

     negative rho (up, down):  2.792E-03 2.146E-09

     total cpu time spent up to now is       53.8 secs

     total energy              =    -197.14141677 Ry
     estimated scf accuracy    <       0.40961265 Ry

     total magnetization       =     3.61 Bohr mag/cell
     absolute magnetization    =    10.66 Bohr mag/cell
[tb_dev] Currently allocated     5.06E+00 Mbytes, locked:    0 /   8
[tb_pin] Currently allocated     0.00E+00 Mbytes, locked:    0 /   0

     iteration # 40     ecut=    45.00 Ry     beta= 0.10
     Davidson diagonalization with overlap

---- Real-time Memory Report at c_bands before calling an iterative solver
          2171 MiB given to the printing process from OS
          1255 MiB allocation reported by mallinfo(arena+hblkhd)
         57638 MiB available memory on the node where the printing process lives
     GPU memory used/free/total (MiB): 2332 / 13948 / 16280
------------------
     ethr =  2.40E-05,  avg # of iterations =  1.0

     negative rho (up, down):  2.797E-03 1.256E-08

     total cpu time spent up to now is       55.0 secs

     total energy              =    -197.13961233 Ry
     estimated scf accuracy    <       0.28234499 Ry

     total magnetization       =     3.35 Bohr mag/cell
     absolute magnetization    =    10.66 Bohr mag/cell
[tb_dev] Currently allocated     5.06E+00 Mbytes, locked:    0 /   8
[tb_pin] Currently allocated     0.00E+00 Mbytes, locked:    0 /   0

     iteration # 41     ecut=    45.00 Ry     beta= 0.10
     Davidson diagonalization with overlap

---- Real-time Memory Report at c_bands before calling an iterative solver
          2176 MiB given to the printing process from OS
          1260 MiB allocation reported by mallinfo(arena+hblkhd)
         57633 MiB available memory on the node where the printing process lives
     GPU memory used/free/total (MiB): 2332 / 13948 / 16280
------------------
     ethr =  2.40E-05,  avg # of iterations =  1.0

     negative rho (up, down):  2.793E-03 1.558E-07

     total cpu time spent up to now is       56.2 secs

     total energy              =    -197.13888754 Ry
     estimated scf accuracy    <       0.10311763 Ry

     total magnetization       =     2.83 Bohr mag/cell
     absolute magnetization    =    10.66 Bohr mag/cell
[tb_dev] Currently allocated     5.06E+00 Mbytes, locked:    0 /   8
[tb_pin] Currently allocated     0.00E+00 Mbytes, locked:    0 /   0

     iteration # 42     ecut=    45.00 Ry     beta= 0.10
     Davidson diagonalization with overlap

---- Real-time Memory Report at c_bands before calling an iterative solver
          2181 MiB given to the printing process from OS
          1266 MiB allocation reported by mallinfo(arena+hblkhd)
         57627 MiB available memory on the node where the printing process lives
     GPU memory used/free/total (MiB): 2332 / 13948 / 16280
------------------
     ethr =  2.40E-05,  avg # of iterations =  1.0

     negative rho (up, down):  2.798E-03 3.062E-07

     total cpu time spent up to now is       57.4 secs

     total energy              =    -197.13784314 Ry
     estimated scf accuracy    <       0.02135704 Ry

     total magnetization       =     2.48 Bohr mag/cell
     absolute magnetization    =    10.67 Bohr mag/cell
[tb_dev] Currently allocated     5.06E+00 Mbytes, locked:    0 /   8
[tb_pin] Currently allocated     0.00E+00 Mbytes, locked:    0 /   0

     iteration # 43     ecut=    45.00 Ry     beta= 0.10
     Davidson diagonalization with overlap

---- Real-time Memory Report at c_bands before calling an iterative solver
          2186 MiB given to the printing process from OS
          1271 MiB allocation reported by mallinfo(arena+hblkhd)
         57621 MiB available memory on the node where the printing process lives
     GPU memory used/free/total (MiB): 2332 / 13948 / 16280
------------------
     ethr =  2.40E-05,  avg # of iterations =  1.0

     negative rho (up, down):  2.795E-03 1.201E-07

     total cpu time spent up to now is       58.6 secs

     total energy              =    -197.13842364 Ry
     estimated scf accuracy    <       0.32167428 Ry

     total magnetization       =     0.77 Bohr mag/cell
     absolute magnetization    =    10.68 Bohr mag/cell
[tb_dev] Currently allocated     5.06E+00 Mbytes, locked:    0 /   8
[tb_pin] Currently allocated     0.00E+00 Mbytes, locked:    0 /   0

     iteration # 44     ecut=    45.00 Ry     beta= 0.10
     Davidson diagonalization with overlap

---- Real-time Memory Report at c_bands before calling an iterative solver
          2192 MiB given to the printing process from OS
          1277 MiB allocation reported by mallinfo(arena+hblkhd)
         57617 MiB available memory on the node where the printing process lives
     GPU memory used/free/total (MiB): 2332 / 13948 / 16280
------------------
     ethr =  2.40E-05,  avg # of iterations =  1.0

     negative rho (up, down):  2.795E-03 9.969E-08

     total cpu time spent up to now is       59.8 secs

     total energy              =    -197.13890447 Ry
     estimated scf accuracy    <       0.03844539 Ry

     total magnetization       =     1.66 Bohr mag/cell
     absolute magnetization    =    10.68 Bohr mag/cell
[tb_dev] Currently allocated     5.06E+00 Mbytes, locked:    0 /   8
[tb_pin] Currently allocated     0.00E+00 Mbytes, locked:    0 /   0

     iteration # 45     ecut=    45.00 Ry     beta= 0.10
     Davidson diagonalization with overlap

---- Real-time Memory Report at c_bands before calling an iterative solver
          2201 MiB given to the printing process from OS
          1282 MiB allocation reported by mallinfo(arena+hblkhd)
         57609 MiB available memory on the node where the printing process lives
     GPU memory used/free/total (MiB): 2332 / 13948 / 16280
------------------
     ethr =  2.40E-05,  avg # of iterations =  1.0

     negative rho (up, down):  2.802E-03 1.221E-07

     total cpu time spent up to now is       61.0 secs

     total energy              =    -197.13921453 Ry
     estimated scf accuracy    <       0.00019603 Ry

     total magnetization       =     2.09 Bohr mag/cell
     absolute magnetization    =    10.68 Bohr mag/cell
[tb_dev] Currently allocated     5.06E+00 Mbytes, locked:    0 /   8
[tb_pin] Currently allocated     0.00E+00 Mbytes, locked:    0 /   0

     iteration # 46     ecut=    45.00 Ry     beta= 0.10
     Davidson diagonalization with overlap

---- Real-time Memory Report at c_bands before calling an iterative solver
          2206 MiB given to the printing process from OS
          1287 MiB allocation reported by mallinfo(arena+hblkhd)
         57604 MiB available memory on the node where the printing process lives
     GPU memory used/free/total (MiB): 2332 / 13948 / 16280
------------------
     ethr =  7.84E-07,  avg # of iterations =  1.1

     negative rho (up, down):  2.808E-03 9.614E-08

     total cpu time spent up to now is       62.2 secs

     total energy              =    -197.13936107 Ry
     estimated scf accuracy    <       0.00914950 Ry

     total magnetization       =     1.89 Bohr mag/cell
     absolute magnetization    =    10.68 Bohr mag/cell
[tb_dev] Currently allocated     5.06E+00 Mbytes, locked:    0 /   8
[tb_pin] Currently allocated     0.00E+00 Mbytes, locked:    0 /   0

     iteration # 47     ecut=    45.00 Ry     beta= 0.10
     Davidson diagonalization with overlap

---- Real-time Memory Report at c_bands before calling an iterative solver
          2212 MiB given to the printing process from OS
          1293 MiB allocation reported by mallinfo(arena+hblkhd)
         57599 MiB available memory on the node where the printing process lives
     GPU memory used/free/total (MiB): 2332 / 13948 / 16280
------------------
     ethr =  7.84E-07,  avg # of iterations =  1.0

     negative rho (up, down):  2.806E-03 8.325E-08

     total cpu time spent up to now is       63.4 secs

     total energy              =    -197.13929225 Ry
     estimated scf accuracy    <       0.01575018 Ry

     total magnetization       =     1.80 Bohr mag/cell
     absolute magnetization    =    10.68 Bohr mag/cell
[tb_dev] Currently allocated     5.06E+00 Mbytes, locked:    0 /   8
[tb_pin] Currently allocated     0.00E+00 Mbytes, locked:    0 /   0

     iteration # 48     ecut=    45.00 Ry     beta= 0.10
     Davidson diagonalization with overlap

---- Real-time Memory Report at c_bands before calling an iterative solver
          2218 MiB given to the printing process from OS
          1298 MiB allocation reported by mallinfo(arena+hblkhd)
         57593 MiB available memory on the node where the printing process lives
     GPU memory used/free/total (MiB): 2332 / 13948 / 16280
------------------
     ethr =  7.84E-07,  avg # of iterations =  1.0

     negative rho (up, down):  2.807E-03 8.141E-08

     total cpu time spent up to now is       64.6 secs

     total energy              =    -197.13930516 Ry
     estimated scf accuracy    <       0.00891721 Ry

     total magnetization       =     1.88 Bohr mag/cell
     absolute magnetization    =    10.68 Bohr mag/cell
[tb_dev] Currently allocated     5.06E+00 Mbytes, locked:    0 /   8
[tb_pin] Currently allocated     0.00E+00 Mbytes, locked:    0 /   0

     iteration # 49     ecut=    45.00 Ry     beta= 0.10
     Davidson diagonalization with overlap

---- Real-time Memory Report at c_bands before calling an iterative solver
          2223 MiB given to the printing process from OS
          1304 MiB allocation reported by mallinfo(arena+hblkhd)
         57591 MiB available memory on the node where the printing process lives
     GPU memory used/free/total (MiB): 2332 / 13948 / 16280
------------------
     ethr =  7.84E-07,  avg # of iterations =  1.0

     negative rho (up, down):  2.802E-03 3.767E-08

     total cpu time spent up to now is       65.8 secs

     total energy              =    -197.13910193 Ry
     estimated scf accuracy    <       0.00852316 Ry

     total magnetization       =     1.88 Bohr mag/cell
     absolute magnetization    =    10.68 Bohr mag/cell
[tb_dev] Currently allocated     5.06E+00 Mbytes, locked:    0 /   8
[tb_pin] Currently allocated     0.00E+00 Mbytes, locked:    0 /   0

     iteration # 50     ecut=    45.00 Ry     beta= 0.10
     Davidson diagonalization with overlap

---- Real-time Memory Report at c_bands before calling an iterative solver
          2228 MiB given to the printing process from OS
          1309 MiB allocation reported by mallinfo(arena+hblkhd)
         57583 MiB available memory on the node where the printing process lives
     GPU memory used/free/total (MiB): 2332 / 13948 / 16280
------------------
     ethr =  7.84E-07,  avg # of iterations =  1.0

     negative rho (up, down):  2.801E-03 4.099E-08

     total cpu time spent up to now is       67.1 secs

     total energy              =    -197.13917213 Ry
     estimated scf accuracy    <       0.00024841 Ry

     total magnetization       =     2.06 Bohr mag/cell
     absolute magnetization    =    10.67 Bohr mag/cell
[tb_dev] Currently allocated     5.06E+00 Mbytes, locked:    0 /   8
[tb_pin] Currently allocated     0.00E+00 Mbytes, locked:    0 /   0

     iteration # 51     ecut=    45.00 Ry     beta= 0.10
     Davidson diagonalization with overlap

---- Real-time Memory Report at c_bands before calling an iterative solver
          2234 MiB given to the printing process from OS
          1315 MiB allocation reported by mallinfo(arena+hblkhd)
         57578 MiB available memory on the node where the printing process lives
     GPU memory used/free/total (MiB): 2332 / 13948 / 16280
------------------
     ethr =  7.84E-07,  avg # of iterations =  1.0

     negative rho (up, down):  2.798E-03 5.861E-08

     total cpu time spent up to now is       68.3 secs

     total energy              =    -197.13914568 Ry
     estimated scf accuracy    <       0.00024325 Ry

     total magnetization       =     2.06 Bohr mag/cell
     absolute magnetization    =    10.67 Bohr mag/cell
[tb_dev] Currently allocated     5.06E+00 Mbytes, locked:    0 /   8
[...]
     GPU memory used/free/total (MiB): 2406 / 13874 / 16280
------------------
     ethr =  5.23E-09,  avg # of iterations =  2.0

     negative rho (up, down):  2.807E-03 2.556E-07

     total cpu time spent up to now is       87.3 secs

     total energy              =    -197.13940281 Ry
     estimated scf accuracy    <       0.00000020 Ry

     total magnetization       =     2.10 Bohr mag/cell
     absolute magnetization    =    10.67 Bohr mag/cell
[tb_dev] Currently allocated     5.06E+00 Mbytes, locked:    0 /   8
[tb_pin] Currently allocated     0.00E+00 Mbytes, locked:    0 /   0

     iteration # 66     ecut=    45.00 Ry     beta= 0.10
     Davidson diagonalization with overlap

---- Real-time Memory Report at c_bands before calling an iterative solver
          2326 MiB given to the printing process from OS
          1396 MiB allocation reported by mallinfo(arena+hblkhd)
         57496 MiB available memory on the node where the printing process lives
     GPU memory used/free/total (MiB): 2406 / 13874 / 16280
------------------
     ethr =  7.86E-10,  avg # of iterations =  1.3

     negative rho (up, down):  2.807E-03 2.616E-07

     total cpu time spent up to now is       88.6 secs

     total energy              =    -197.13940290 Ry
     estimated scf accuracy    <       0.00000015 Ry

     total magnetization       =     2.10 Bohr mag/cell
     absolute magnetization    =    10.67 Bohr mag/cell
[tb_dev] Currently allocated     5.06E+00 Mbytes, locked:    0 /   8
[tb_pin] Currently allocated     0.00E+00 Mbytes, locked:    0 /   0

     iteration # 67     ecut=    45.00 Ry     beta= 0.10
     Davidson diagonalization with overlap

---- Real-time Memory Report at c_bands before calling an iterative solver
          2332 MiB given to the printing process from OS
          1401 MiB allocation reported by mallinfo(arena+hblkhd)
         57493 MiB available memory on the node where the printing process lives
     GPU memory used/free/total (MiB): 2406 / 13874 / 16280
------------------
     ethr =  5.93E-10,  avg # of iterations =  2.2

     negative rho (up, down):  2.807E-03 2.557E-07

     total cpu time spent up to now is       90.0 secs

     total energy              =    -197.13940293 Ry
     estimated scf accuracy    <       0.00000018 Ry

     total magnetization       =     2.10 Bohr mag/cell
     absolute magnetization    =    10.67 Bohr mag/cell
[tb_dev] Currently allocated     5.06E+00 Mbytes, locked:    0 /   8
[tb_pin] Currently allocated     0.00E+00 Mbytes, locked:    0 /   0

     iteration # 68     ecut=    45.00 Ry     beta= 0.10
     Davidson diagonalization with overlap

---- Real-time Memory Report at c_bands before calling an iterative solver
          2337 MiB given to the printing process from OS
          1407 MiB allocation reported by mallinfo(arena+hblkhd)
         57486 MiB available memory on the node where the printing process lives
     GPU memory used/free/total (MiB): 2406 / 13874 / 16280
------------------
     ethr =  5.93E-10,  avg # of iterations =  1.9

     negative rho (up, down):  2.807E-03 2.700E-07

     total cpu time spent up to now is       91.6 secs

     total energy              =    -197.13940295 Ry
     estimated scf accuracy    <       0.00000024 Ry

     total magnetization       =     2.10 Bohr mag/cell
     absolute magnetization    =    10.67 Bohr mag/cell
[tb_dev] Currently allocated     5.06E+00 Mbytes, locked:    0 /   8
[tb_pin] Currently allocated     0.00E+00 Mbytes, locked:    0 /   0

     iteration # 69     ecut=    45.00 Ry     beta= 0.10
     Davidson diagonalization with overlap

---- Real-time Memory Report at c_bands before calling an iterative solver
          2343 MiB given to the printing process from OS
          1412 MiB allocation reported by mallinfo(arena+hblkhd)
         57481 MiB available memory on the node where the printing process lives
     GPU memory used/free/total (MiB): 2406 / 13874 / 16280
------------------
     ethr =  5.93E-10,  avg # of iterations =  2.0

     negative rho (up, down):  2.807E-03 2.802E-07

     total cpu time spent up to now is       93.0 secs

     total energy              =    -197.13940291 Ry
     estimated scf accuracy    <       0.00000016 Ry

     total magnetization       =     2.10 Bohr mag/cell
     absolute magnetization    =    10.67 Bohr mag/cell
[tb_dev] Currently allocated     5.06E+00 Mbytes, locked:    0 /   8
[tb_pin] Currently allocated     0.00E+00 Mbytes, locked:    0 /   0

     iteration # 70     ecut=    45.00 Ry     beta= 0.10
     Davidson diagonalization with overlap

---- Real-time Memory Report at c_bands before calling an iterative solver
          2349 MiB given to the printing process from OS
          1418 MiB allocation reported by mallinfo(arena+hblkhd)
         57476 MiB available memory on the node where the printing process lives
     GPU memory used/free/total (MiB): 2406 / 13874 / 16280
------------------
     ethr =  5.93E-10,  avg # of iterations =  2.0

     negative rho (up, down):  2.807E-03 2.485E-07

     total cpu time spent up to now is       94.3 secs

     total energy              =    -197.13940262 Ry
     estimated scf accuracy    <       0.00000051 Ry

     total magnetization       =     2.09 Bohr mag/cell
     absolute magnetization    =    10.67 Bohr mag/cell
[tb_dev] Currently allocated     5.06E+00 Mbytes, locked:    0 /   8
[tb_pin] Currently allocated     0.00E+00 Mbytes, locked:    0 /   0

     iteration # 71     ecut=    45.00 Ry     beta= 0.10
     Davidson diagonalization with overlap

---- Real-time Memory Report at c_bands before calling an iterative solver
          2354 MiB given to the printing process from OS
          1423 MiB allocation reported by mallinfo(arena+hblkhd)
         57472 MiB available memory on the node where the printing process lives
     GPU memory used/free/total (MiB): 2406 / 13874 / 16280
------------------
     ethr =  5.93E-10,  avg # of iterations =  2.4

     negative rho (up, down):  2.807E-03 2.506E-07

     total cpu time spent up to now is       95.8 secs

     total energy              =    -197.13940290 Ry
     estimated scf accuracy    <       0.00000019 Ry

     total magnetization       =     2.10 Bohr mag/cell
     absolute magnetization    =    10.67 Bohr mag/cell
[tb_dev] Currently allocated     5.06E+00 Mbytes, locked:    0 /   8
[tb_pin] Currently allocated     0.00E+00 Mbytes, locked:    0 /   0

     iteration # 72     ecut=    45.00 Ry     beta= 0.10
     Davidson diagonalization with overlap

---- Real-time Memory Report at c_bands before calling an iterative solver
          2359 MiB given to the printing process from OS
          1428 MiB allocation reported by mallinfo(arena+hblkhd)
         57466 MiB available memory on the node where the printing process lives
     GPU memory used/free/total (MiB): 2406 / 13874 / 16280
------------------
     ethr =  5.93E-10,  avg # of iterations =  1.0

     negative rho (up, down):  2.807E-03 2.518E-07

     total cpu time spent up to now is       97.0 secs

     total energy              =    -197.13940288 Ry
     estimated scf accuracy    <       0.00000019 Ry

     total magnetization       =     2.10 Bohr mag/cell
     absolute magnetization    =    10.67 Bohr mag/cell
[tb_dev] Currently allocated     5.06E+00 Mbytes, locked:    0 /   8
[tb_pin] Currently allocated     0.00E+00 Mbytes, locked:    0 /   0

     iteration # 73     ecut=    45.00 Ry     beta= 0.10
     Davidson diagonalization with overlap

---- Real-time Memory Report at c_bands before calling an iterative solver
          2365 MiB given to the printing process from OS
          1458 MiB allocation reported by mallinfo(arena+hblkhd)
         57440 MiB available memory on the node where the printing process lives
     GPU memory used/free/total (MiB): 2406 / 13874 / 16280
------------------
     ethr =  5.93E-10,  avg # of iterations =  1.0

     negative rho (up, down):  2.807E-03 2.613E-07

     total cpu time spent up to now is       98.2 secs

     total energy              =    -197.13940293 Ry
     estimated scf accuracy    <       0.00000018 Ry

     total magnetization       =     2.10 Bohr mag/cell
     absolute magnetization    =    10.67 Bohr mag/cell
[tb_dev] Currently allocated     5.06E+00 Mbytes, locked:    0 /   8
[tb_pin] Currently allocated     0.00E+00 Mbytes, locked:    0 /   0

     iteration # 74     ecut=    45.00 Ry     beta= 0.10
     Davidson diagonalization with overlap

---- Real-time Memory Report at c_bands before calling an iterative solver
          2373 MiB given to the printing process from OS
          1464 MiB allocation reported by mallinfo(arena+hblkhd)
         57432 MiB available memory on the node where the printing process lives
     GPU memory used/free/total (MiB): 2406 / 13874 / 16280
------------------
     ethr =  5.93E-10,  avg # of iterations =  2.0

     negative rho (up, down):  2.807E-03 2.561E-07

     total cpu time spent up to now is       99.5 secs

     total energy              =    -197.13940289 Ry
     estimated scf accuracy    <       0.00000017 Ry

     total magnetization       =     2.10 Bohr mag/cell
     absolute magnetization    =    10.67 Bohr mag/cell
[tb_dev] Currently allocated     5.06E+00 Mbytes, locked:    0 /   8
[tb_pin] Currently allocated     0.00E+00 Mbytes, locked:    0 /   0

     iteration # 75     ecut=    45.00 Ry     beta= 0.10
     Davidson diagonalization with overlap

---- Real-time Memory Report at c_bands before calling an iterative solver
          2378 MiB given to the printing process from OS
          1469 MiB allocation reported by mallinfo(arena+hblkhd)
         57427 MiB available memory on the node where the printing process lives
     GPU memory used/free/total (MiB): 2406 / 13874 / 16280
------------------
     ethr =  5.93E-10,  avg # of iterations =  2.0

     negative rho (up, down):  2.807E-03 2.573E-07

     total cpu time spent up to now is      100.8 secs

     total energy              =    -197.13940297 Ry
     estimated scf accuracy    <       0.00000014 Ry

     total magnetization       =     2.10 Bohr mag/cell
     absolute magnetization    =    10.67 Bohr mag/cell
[tb_dev] Currently allocated     5.06E+00 Mbytes, locked:    0 /   8
[tb_pin] Currently allocated     0.00E+00 Mbytes, locked:    0 /   0

     iteration # 76     ecut=    45.00 Ry     beta= 0.10
     Davidson diagonalization with overlap

---- Real-time Memory Report at c_bands before calling an iterative solver
          2383 MiB given to the printing process from OS
          1474 MiB allocation reported by mallinfo(arena+hblkhd)
         57421 MiB available memory on the node where the printing process lives
     GPU memory used/free/total (MiB): 2406 / 13874 / 16280
------------------
     ethr =  5.47E-10,  avg # of iterations =  1.0

     negative rho (up, down):  2.807E-03 2.550E-07

     total cpu time spent up to now is      102.1 secs

     total energy              =    -197.13940276 Ry
     estimated scf accuracy    <       0.00000010 Ry

     total magnetization       =     2.10 Bohr mag/cell
     absolute magnetization    =    10.67 Bohr mag/cell
[tb_dev] Currently allocated     5.06E+00 Mbytes, locked:    0 /   8
[tb_pin] Currently allocated     0.00E+00 Mbytes, locked:    0 /   0

     iteration # 77     ecut=    45.00 Ry     beta= 0.10
     Davidson diagonalization with overlap

---- Real-time Memory Report at c_bands before calling an iterative solver
          2388 MiB given to the printing process from OS
          1480 MiB allocation reported by mallinfo(arena+hblkhd)
         57414 MiB available memory on the node where the printing process lives
     GPU memory used/free/total (MiB): 2406 / 13874 / 16280
------------------
     ethr =  3.88E-10,  avg # of iterations =  2.0

     negative rho (up, down):  2.807E-03 2.726E-07

     total cpu time spent up to now is      103.4 secs

     total energy              =    -197.13940264 Ry
     estimated scf accuracy    <       0.00000017 Ry

     total magnetization       =     2.10 Bohr mag/cell
     absolute magnetization    =    10.67 Bohr mag/cell
[tb_dev] Currently allocated     5.06E+00 Mbytes, locked:    0 /   8
[tb_pin] Currently allocated     0.00E+00 Mbytes, locked:    0 /   0

     iteration # 78     ecut=    45.00 Ry     beta= 0.10
     Davidson diagonalization with overlap

---- Real-time Memory Report at c_bands before calling an iterative solver
          2394 MiB given to the printing process from OS
          1485 MiB allocation reported by mallinfo(arena+hblkhd)
         57409 MiB available memory on the node where the printing process lives
     GPU memory used/free/total (MiB): 2406 / 13874 / 16280
------------------
     ethr =  3.88E-10,  avg # of iterations =  3.4

     negative rho (up, down):  2.807E-03 2.719E-07

     total cpu time spent up to now is      105.0 secs

     total energy              =    -197.13940320 Ry
     estimated scf accuracy    <       0.00000005 Ry

     total magnetization       =     2.10 Bohr mag/cell
     absolute magnetization    =    10.67 Bohr mag/cell
[tb_dev] Currently allocated     5.06E+00 Mbytes, locked:    0 /   8
[tb_pin] Currently allocated     0.00E+00 Mbytes, locked:    0 /   0

     iteration # 79     ecut=    45.00 Ry     beta= 0.10
     Davidson diagonalization with overlap

---- Real-time Memory Report at c_bands before calling an iterative solver
          2400 MiB given to the printing process from OS
          1491 MiB allocation reported by mallinfo(arena+hblkhd)
         57403 MiB available memory on the node where the printing process lives
     GPU memory used/free/total (MiB): 2406 / 13874 / 16280
------------------
     ethr =  2.05E-10,  avg # of iterations =  2.0

     negative rho (up, down):  2.807E-03 2.770E-07

     total cpu time spent up to now is      106.3 secs

     total energy              =    -197.13940320 Ry
     estimated scf accuracy    <       0.00000003 Ry

     total magnetization       =     2.10 Bohr mag/cell
     absolute magnetization    =    10.67 Bohr mag/cell
[tb_dev] Currently allocated     5.06E+00 Mbytes, locked:    0 /   8
[tb_pin] Currently allocated     0.00E+00 Mbytes, locked:    0 /   0

     iteration # 80     ecut=    45.00 Ry     beta= 0.10
     Davidson diagonalization with overlap

---- Real-time Memory Report at c_bands before calling an iterative solver
          2405 MiB given to the printing process from OS
          1496 MiB allocation reported by mallinfo(arena+hblkhd)
         57398 MiB available memory on the node where the printing process lives
     GPU memory used/free/total (MiB): 2406 / 13874 / 16280
------------------
     ethr =  1.03E-10,  avg # of iterations =  2.0

     negative rho (up, down):  2.807E-03 2.710E-07

     total cpu time spent up to now is      107.6 secs

     total energy              =    -197.13940323 Ry
     estimated scf accuracy    <       0.00000003 Ry

     total magnetization       =     2.10 Bohr mag/cell
     absolute magnetization    =    10.67 Bohr mag/cell

     End of self-consistent calculation

     convergence NOT achieved after  80 iterations: stopping

     Writing config to output data dir ./out/aiida.save/
 
     init_run     :     17.89s CPU      2.43s WALL (       1 calls)
     electrons    :    515.69s CPU    104.70s WALL (       1 calls)

     Called by init_run:
     wfcinit      :      0.04s CPU      0.04s WALL (       1 calls)
                                        0.04s GPU  (       1 calls)
     potinit      :      6.15s CPU      0.76s WALL (       1 calls)
     hinit0       :      6.70s CPU      0.84s WALL (       1 calls)

     Called by electrons:
     c_bands      :    160.20s CPU     55.44s WALL (      80 calls)
     sum_band     :     16.28s CPU     17.37s WALL (      80 calls)
     v_of_rho     :     35.57s CPU      3.25s WALL (      81 calls)
     v_h          :      5.48s CPU      0.49s WALL (      81 calls)
     v_xc         :     30.08s CPU      2.77s WALL (      81 calls)
     newd         :     41.83s CPU      4.12s WALL (      81 calls)
                                        4.12s GPU  (      81 calls)
     PAW_pot      :    201.86s CPU     18.79s WALL (      81 calls)
     mix_rho      :     50.64s CPU      5.11s WALL (      80 calls)

     Called by c_bands:
     init_us_2    :      8.70s CPU      4.37s WALL (    6400 calls)
     init_us_2:gp :      8.44s CPU      4.26s WALL (    6400 calls)
     cegterg      :    108.56s CPU     39.50s WALL (    3200 calls)

     Called by sum_band:
     sum_band:wei :      0.07s CPU      0.07s WALL (      80 calls)
                                        0.07s GPU  (      80 calls)
     sum_band:loo :      9.63s CPU     10.61s WALL (      80 calls)
                                       10.61s GPU  (      80 calls)
     sum_band:buf :      2.85s CPU      3.13s WALL (    3200 calls)
                                        3.11s GPU  (    3200 calls)
     sum_band:ini :      1.83s CPU      2.11s WALL (    3200 calls)
                                        2.09s GPU  (    3200 calls)
     sum_band:cal :      0.11s CPU      0.40s WALL (    3200 calls)
                                        0.37s GPU  (    3200 calls)
     sum_band:bec :      0.47s CPU      0.55s WALL (    3200 calls)
                                        0.53s GPU  (    3200 calls)
     addusdens    :      3.90s CPU      3.98s WALL (      80 calls)
                                        3.97s GPU  (      80 calls)
     addusd:skk   :      0.02s CPU      0.02s WALL (     160 calls)
                                        0.02s GPU  (     160 calls)

     Called by *egterg:
     cdiaghg      :     25.11s CPU     10.04s WALL (    8285 calls)
                                        9.99s GPU  (    8285 calls)
     cegterg:over :      2.99s CPU      1.17s WALL (    5125 calls)
     cegterg:upda :      3.72s CPU      1.36s WALL (    5125 calls)
     cegterg:last :      1.25s CPU      0.51s WALL (    4524 calls)
     h_psi        :     63.21s CPU     22.18s WALL (    8325 calls)
                                       22.12s GPU  (    8325 calls)
     s_psi        :      2.12s CPU      1.32s WALL (    8325 calls)
                                        1.19s GPU  (    8325 calls)
     g_psi        :      0.11s CPU      0.18s WALL (    5125 calls)
                                        0.14s GPU  (    5125 calls)

     Called by h_psi:
     h_psi:calbec :      0.97s CPU      1.07s WALL (    8325 calls)
                                        1.02s GPU  (    8325 calls)
     vloc_psi     :     53.76s CPU     19.02s WALL (    8325 calls)
                                       18.96s GPU  (    8325 calls)
     add_vuspsi   :      2.59s CPU      1.41s WALL (    8325 calls)
                                        1.36s GPU  (    8325 calls)

     General routines
     calbec       :      0.82s CPU      0.35s WALL (   11525 calls)
     fft          :      2.60s CPU      0.52s WALL (    2023 calls)
                                        0.41s GPU  (    1861 calls)
     ffts         :      0.06s CPU      0.05s WALL (     322 calls)
                                        0.01s GPU  (     160 calls)
     fftw         :      2.14s CPU     14.05s WALL (   35850 calls)
                                       13.85s GPU  (   35850 calls)
     interpolate  :      5.14s CPU      0.45s WALL (     162 calls)
     davcio       :      0.37s CPU      0.30s WALL (      98 calls)
 
     Parallel routines

     PAW routines
     PAW_pot      :    201.86s CPU     18.79s WALL (      81 calls)
     PAW_symme    :      0.26s CPU      0.04s WALL (     160 calls)
 
     PWSCF        :   8m56.33s CPU   1m47.88s WALL

 
   This run was terminated on:  17:53:21  23Oct2023            

=------------------------------------------------------------------------------=
   JOB DONE.
=------------------------------------------------------------------------------=
