
     Program PWSCF v.7.2 starts on 23Oct2023 at 21:36:17 

     This program is part of the open-source Quantum ESPRESSO suite
     for quantum simulation of materials; please cite
         "P. Giannozzi et al., J. Phys.:Condens. Matter 21 395502 (2009);
         "P. Giannozzi et al., J. Phys.:Condens. Matter 29 465901 (2017);
         "P. Giannozzi et al., J. Chem. Phys. 152 154105 (2020);
          URL http://www.quantum-espresso.org", 
     in publications or presentations arising from this work. More details at
     http://www.quantum-espresso.org/quote

     Parallel version (MPI & OpenMP), running on      12 processor cores
     Number of MPI processes:                 1
     Threads/MPI process:                    12

     MPI processes distributed on     1 nodes
     60512 MiB available memory on the printing compute node when the environment starts
 
     Reading input from aiida.in

     Current dimensions of program PWSCF are:
     Max number of different atomic species (ntypx) = 10
     Max number of k-points (npk) =  40000
     Max angular momentum in pseudopotentials (lmaxx) =  4
     file K.pbesol-spn-kjpaw_psl.1.0.0.UPF: wavefunction(s)  3S renormalized
     Message from routine setup:
     using ibrav=0 with symmetry is DISCOURAGED, use correct ibrav instead
 
     Subspace diagonalization in iterative solution of the eigenvalue problem:
     a serial algorithm will be used

 
     G-vector sticks info
     --------------------
     sticks:   dense  smooth     PW     G-vecs:    dense   smooth      PW
     Sum        3985    1981    571               165807    58623    8873
 
     Using Slab Decomposition
 


     bravais-lattice index     =            0
     lattice parameter (alat)  =      10.9719  a.u.
     unit-cell volume          =     933.9525 (a.u.)^3
     number of atoms/cell      =           10
     number of atomic types    =            4
     number of electrons       =        87.00
     number of Kohn-Sham states=           53
     kinetic-energy cutoff     =      60.0000  Ry
     charge density cutoff     =     480.0000  Ry
     scf convergence threshold =      2.0E-09
     mixing beta               =       0.1000
     number of iterations used =            8  plain     mixing
     Exchange-correlation= SLA  PW   PSX  PSC
                           (   1   4  10   8   0   0   0)

     GPU acceleration is ACTIVE.


     GPU used by master process:

        Device Number: 0
        Device name: Tesla P100-PCIE-16GB
        Compute capability : 60
        Ratio of single to double precision performance  : 2
        Memory Clock Rate (KHz): 715000
        Memory Bus Width (bits): 4096
        Peak Memory Bandwidth (GB/s): 732.16

     celldm(1)=  10.971852  celldm(2)=   0.000000  celldm(3)=   0.000000
     celldm(4)=   0.000000  celldm(5)=   0.000000  celldm(6)=   0.000000

     crystal axes: (cart. coord. in units of alat)
               a(1) = (   0.000000   0.707107   0.707107 )  
               a(2) = (   0.707107   0.000000   0.707107 )  
               a(3) = (   0.707107   0.707107   0.000000 )  

     reciprocal axes: (cart. coord. in units 2 pi/alat)
               b(1) = ( -0.707107  0.707107  0.707107 )  
               b(2) = (  0.707107 -0.707107  0.707107 )  
               b(3) = (  0.707107  0.707107 -0.707107 )  


     PseudoPot. # 1 for F  read from file:
     ./pseudo/f_pbesol_v1.4.uspp.F.UPF
     MD5 check sum: d2815ecb49b17b99c5724ffd2f9bbd8d
     Pseudo is Ultrasoft, Zval =  7.0
     Generated by new atomic code, or converted to UPF format
     Using radial grid of  799 points,  4 beta functions with: 
                l(1) =   0
                l(2) =   0
                l(3) =   1
                l(4) =   1
     Q(r) pseudized with  8 coefficients,  rinner =    0.950   0.950   0.950


     PseudoPot. # 2 for K  read from file:
     ./pseudo/K.pbesol-spn-kjpaw_psl.1.0.0.UPF
     MD5 check sum: b302bede38c4f5fe00638ceae66f121b
     Pseudo is Projector augmented-wave + core cor, Zval =  9.0
     Generated using "atomic" code by A. Dal Corso  v.6.0 svn rev. 13079
     Shape of augmentation charge: PSQ
     Using radial grid of 1165 points,  6 beta functions with: 
                l(1) =   0
                l(2) =   0
                l(3) =   1
                l(4) =   1
                l(5) =   2
                l(6) =   2
     Q(r) pseudized with 0 coefficients 


     PseudoPot. # 3 for Na read from file:
     ./pseudo/na_pbesol_v1.5.uspp.F.UPF
     MD5 check sum: 164b46c7694b4bc5b1217b5d1ae6f423
     Pseudo is Ultrasoft, Zval =  9.0
     Generated by new atomic code, or converted to UPF format
     Using radial grid of  819 points,  5 beta functions with: 
                l(1) =   0
                l(2) =   0
                l(3) =   1
                l(4) =   1
                l(5) =   2
     Q(r) pseudized with  8 coefficients,  rinner =    1.250   1.250   1.250
                                                       1.250   1.250

     PseudoPot. # 4 for Ni read from file:
     ./pseudo/ni_pbesol_v1.4.uspp.F.UPF
     MD5 check sum: de937c0c8ae4b350e69c02b76d8a83cb
     Pseudo is Ultrasoft + core correction, Zval = 18.0
     Generated by new atomic code, or converted to UPF format
     Using radial grid of  865 points,  6 beta functions with: 
                l(1) =   0
                l(2) =   0
                l(3) =   1
                l(4) =   1
                l(5) =   2
                l(6) =   2
     Q(r) pseudized with 10 coefficients,  rinner =    0.980   0.980   0.980
                                                       0.980   0.980

     atomic species   valence    mass     pseudopotential
        F              7.00    18.99840     F ( 1.00)
        K              9.00    39.09830     K ( 1.00)
        Na             9.00    22.98977     Na( 1.00)
        Ni            18.00    58.69340     Ni( 1.00)

     Starting magnetic structure 
     atomic species   magnetization
        F            0.100
        K            0.100
        Na           0.100
        Ni           0.278

     48 Sym. Ops., with inversion, found


                                    s                        frac. trans.

      isym =  1     identity                                     

 cryst.   s( 1) = (     1          0          0      )
                  (     0          1          0      )
                  (     0          0          1      )

 cart.    s( 1) = (  1.0000000 -0.0000000  0.0000000 )
                  ( -0.0000000  1.0000000  0.0000000 )
                  ( -0.0000000  0.0000000  1.0000000 )


      isym =  2     180 deg rotation - cart. axis [0,0,1]        

 cryst.   s( 2) = (     0          1         -1      )
                  (     1          0         -1      )
                  (     0          0         -1      )

 cart.    s( 2) = ( -1.0000000  0.0000000  0.0000000 )
                  (  0.0000000 -1.0000000  0.0000000 )
                  (  0.0000000 -0.0000000  1.0000000 )


      isym =  3     180 deg rotation - cart. axis [0,1,0]        

 cryst.   s( 3) = (     0         -1          1      )
                  (     0         -1          0      )
                  (     1         -1          0      )

 cart.    s( 3) = ( -1.0000000 -0.0000000 -0.0000000 )
                  (  0.0000000  1.0000000 -0.0000000 )
                  (  0.0000000  0.0000000 -1.0000000 )


      isym =  4     180 deg rotation - cart. axis [1,0,0]        

 cryst.   s( 4) = (    -1          0          0      )
                  (    -1          0          1      )
                  (    -1          1          0      )

 cart.    s( 4) = (  1.0000000  0.0000000 -0.0000000 )
                  ( -0.0000000 -1.0000000 -0.0000000 )
                  ( -0.0000000 -0.0000000 -1.0000000 )


      isym =  5     180 deg rotation - cart. axis [1,1,0]        

 cryst.   s( 5) = (    -1          0          1      )
                  (     0         -1          1      )
                  (     0          0          1      )

 cart.    s( 5) = ( -0.0000000  1.0000000 -0.0000000 )
                  (  1.0000000 -0.0000000 -0.0000000 )
                  (  0.0000000 -0.0000000 -1.0000000 )


      isym =  6     180 deg rotation - cart. axis [1,-1,0]       

 cryst.   s( 6) = (     0         -1          0      )
                  (    -1          0          0      )
                  (     0          0         -1      )

 cart.    s( 6) = (  0.0000000 -1.0000000 -0.0000000 )
                  ( -1.0000000  0.0000000 -0.0000000 )
                  ( -0.0000000  0.0000000 -1.0000000 )


      isym =  7      90 deg rotation - cart. axis [0,0,-1]       

 cryst.   s( 7) = (     0          1          0      )
                  (     0          1         -1      )
                  (    -1          1          0      )

 cart.    s( 7) = (  0.0000000  1.0000000  0.0000000 )
                  ( -1.0000000 -0.0000000  0.0000000 )
                  ( -0.0000000 -0.0000000  1.0000000 )


      isym =  8      90 deg rotation - cart. axis [0,0,1]        

 cryst.   s( 8) = (     1          0         -1      )
                  (     1          0          0      )
                  (     1         -1          0      )

 cart.    s( 8) = ( -0.0000000 -1.0000000  0.0000000 )
                  (  1.0000000  0.0000000  0.0000000 )
                  (  0.0000000  0.0000000  1.0000000 )


      isym =  9     180 deg rotation - cart. axis [1,0,1]        

 cryst.   s( 9) = (    -1          1          0      )
                  (     0          1          0      )
                  (     0          1         -1      )

 cart.    s( 9) = (  0.0000000  0.0000000  1.0000000 )
                  (  0.0000000 -1.0000000 -0.0000000 )
                  (  1.0000000 -0.0000000 -0.0000000 )


      isym = 10     180 deg rotation - cart. axis [-1,0,1]       

 cryst.   s(10) = (     0          0         -1      )
                  (     0         -1          0      )
                  (    -1          0          0      )

 cart.    s(10) = ( -0.0000000  0.0000000 -1.0000000 )
                  ( -0.0000000 -1.0000000  0.0000000 )
                  ( -1.0000000 -0.0000000  0.0000000 )


      isym = 11      90 deg rotation - cart. axis [0,1,0]        

 cryst.   s(11) = (     0          0          1      )
                  (    -1          0          1      )
                  (     0         -1          1      )

 cart.    s(11) = ( -0.0000000 -0.0000000  1.0000000 )
                  ( -0.0000000  1.0000000 -0.0000000 )
                  ( -1.0000000  0.0000000 -0.0000000 )


      isym = 12      90 deg rotation - cart. axis [0,-1,0]       

 cryst.   s(12) = (     1         -1          0      )
                  (     1          0         -1      )
                  (     1          0          0      )

 cart.    s(12) = (  0.0000000 -0.0000000 -1.0000000 )
                  (  0.0000000  1.0000000  0.0000000 )
                  (  1.0000000  0.0000000  0.0000000 )


      isym = 13     180 deg rotation - cart. axis [0,1,1]        

 cryst.   s(13) = (     1          0          0      )
                  (     1         -1          0      )
                  (     1          0         -1      )

 cart.    s(13) = ( -1.0000000  0.0000000 -0.0000000 )
                  (  0.0000000  0.0000000  1.0000000 )
                  (  0.0000000  1.0000000  0.0000000 )


      isym = 14     180 deg rotation - cart. axis [0,1,-1]       

 cryst.   s(14) = (    -1          0          0      )
                  (     0          0         -1      )
                  (     0         -1          0      )

 cart.    s(14) = ( -1.0000000 -0.0000000  0.0000000 )
                  (  0.0000000 -0.0000000 -1.0000000 )
                  (  0.0000000 -1.0000000 -0.0000000 )


      isym = 15      90 deg rotation - cart. axis [-1,0,0]       

 cryst.   s(15) = (     0         -1          1      )
                  (     0          0          1      )
                  (    -1          0          1      )

 cart.    s(15) = (  1.0000000 -0.0000000 -0.0000000 )
                  ( -0.0000000 -0.0000000  1.0000000 )
                  ( -0.0000000 -1.0000000  0.0000000 )


      isym = 16      90 deg rotation - cart. axis [1,0,0]        

 cryst.   s(16) = (     0          1         -1      )
                  (    -1          1          0      )
                  (     0          1          0      )

 cart.    s(16) = (  1.0000000  0.0000000  0.0000000 )
                  ( -0.0000000  0.0000000 -1.0000000 )
                  ( -0.0000000  1.0000000 -0.0000000 )


      isym = 17     120 deg rotation - cart. axis [-1,-1,-1]     

 cryst.   s(17) = (     0          0          1      )
                  (     1          0          0      )
                  (     0          1          0      )

 cart.    s(17) = (  0.0000000  1.0000000 -0.0000000 )
                  (  0.0000000 -0.0000000  1.0000000 )
                  (  1.0000000 -0.0000000  0.0000000 )


      isym = 18     120 deg rotation - cart. axis [-1,1,1]       

 cryst.   s(18) = (     1         -1          0      )
                  (     0         -1          1      )
                  (     0         -1          0      )

 cart.    s(18) = ( -0.0000000 -1.0000000 -0.0000000 )
                  ( -0.0000000  0.0000000  1.0000000 )
                  ( -1.0000000  0.0000000  0.0000000 )


      isym = 19     120 deg rotation - cart. axis [1,1,-1]       

 cryst.   s(19) = (    -1          1          0      )
                  (    -1          0          0      )
                  (    -1          0          1      )

 cart.    s(19) = ( -0.0000000  1.0000000  0.0000000 )
                  ( -0.0000000 -0.0000000 -1.0000000 )
                  ( -1.0000000 -0.0000000 -0.0000000 )


      isym = 20     120 deg rotation - cart. axis [1,-1,1]       

 cryst.   s(20) = (     0          0         -1      )
                  (     0          1         -1      )
                  (     1          0         -1      )

 cart.    s(20) = (  0.0000000 -1.0000000  0.0000000 )
                  (  0.0000000  0.0000000 -1.0000000 )
                  (  1.0000000  0.0000000 -0.0000000 )


      isym = 21     120 deg rotation - cart. axis [1,1,1]        

 cryst.   s(21) = (     0          1          0      )
                  (     0          0          1      )
                  (     1          0          0      )

 cart.    s(21) = ( -0.0000000  0.0000000  1.0000000 )
                  (  1.0000000  0.0000000 -0.0000000 )
                  (  0.0000000  1.0000000 -0.0000000 )


      isym = 22     120 deg rotation - cart. axis [-1,1,-1]      

 cryst.   s(22) = (    -1          0          1      )
                  (    -1          1          0      )
                  (    -1          0          0      )

 cart.    s(22) = (  0.0000000 -0.0000000  1.0000000 )
                  ( -1.0000000 -0.0000000 -0.0000000 )
                  ( -0.0000000 -1.0000000 -0.0000000 )


      isym = 23     120 deg rotation - cart. axis [1,-1,-1]      

 cryst.   s(23) = (     1          0         -1      )
                  (     0          0         -1      )
                  (     0          1         -1      )

 cart.    s(23) = (  0.0000000  0.0000000 -1.0000000 )
                  ( -1.0000000  0.0000000  0.0000000 )
                  ( -0.0000000  1.0000000  0.0000000 )


      isym = 24     120 deg rotation - cart. axis [-1,-1,1]      

 cryst.   s(24) = (     0         -1          0      )
                  (     1         -1          0      )
                  (     0         -1          1      )

 cart.    s(24) = ( -0.0000000 -0.0000000 -1.0000000 )
                  (  1.0000000 -0.0000000  0.0000000 )
                  (  0.0000000 -1.0000000  0.0000000 )


      isym = 25     inversion                                    

 cryst.   s(25) = (    -1          0          0      )
                  (     0         -1          0      )
                  (     0          0         -1      )

 cart.    s(25) = ( -1.0000000  0.0000000 -0.0000000 )
                  (  0.0000000 -1.0000000 -0.0000000 )
                  (  0.0000000 -0.0000000 -1.0000000 )


      isym = 26     inv. 180 deg rotation - cart. axis [0,0,1]   

 cryst.   s(26) = (     0         -1          1      )
                  (    -1          0          1      )
                  (     0          0          1      )

 cart.    s(26) = (  1.0000000 -0.0000000 -0.0000000 )
                  ( -0.0000000  1.0000000 -0.0000000 )
                  ( -0.0000000  0.0000000 -1.0000000 )


      isym = 27     inv. 180 deg rotation - cart. axis [0,1,0]   

 cryst.   s(27) = (     0          1         -1      )
                  (     0          1          0      )
                  (    -1          1          0      )

 cart.    s(27) = (  1.0000000  0.0000000  0.0000000 )
                  ( -0.0000000 -1.0000000  0.0000000 )
                  ( -0.0000000 -0.0000000  1.0000000 )


      isym = 28     inv. 180 deg rotation - cart. axis [1,0,0]   

 cryst.   s(28) = (     1          0          0      )
                  (     1          0         -1      )
                  (     1         -1          0      )

 cart.    s(28) = ( -1.0000000 -0.0000000  0.0000000 )
                  (  0.0000000  1.0000000  0.0000000 )
                  (  0.0000000  0.0000000  1.0000000 )


      isym = 29     inv. 180 deg rotation - cart. axis [1,1,0]   

 cryst.   s(29) = (     1          0         -1      )
                  (     0          1         -1      )
                  (     0          0         -1      )

 cart.    s(29) = (  0.0000000 -1.0000000  0.0000000 )
                  ( -1.0000000  0.0000000  0.0000000 )
                  ( -0.0000000  0.0000000  1.0000000 )


      isym = 30     inv. 180 deg rotation - cart. axis [1,-1,0]  

 cryst.   s(30) = (     0          1          0      )
                  (     1          0          0      )
                  (     0          0          1      )

 cart.    s(30) = ( -0.0000000  1.0000000  0.0000000 )
                  (  1.0000000 -0.0000000  0.0000000 )
                  (  0.0000000 -0.0000000  1.0000000 )


      isym = 31     inv.  90 deg rotation - cart. axis [0,0,-1]  

 cryst.   s(31) = (     0         -1          0      )
                  (     0         -1          1      )
                  (     1         -1          0      )

 cart.    s(31) = ( -0.0000000 -1.0000000 -0.0000000 )
                  (  1.0000000  0.0000000 -0.0000000 )
                  (  0.0000000  0.0000000 -1.0000000 )


      isym = 32     inv.  90 deg rotation - cart. axis [0,0,1]   

 cryst.   s(32) = (    -1          0          1      )
                  (    -1          0          0      )
                  (    -1          1          0      )

 cart.    s(32) = (  0.0000000  1.0000000 -0.0000000 )
                  ( -1.0000000 -0.0000000 -0.0000000 )
                  ( -0.0000000 -0.0000000 -1.0000000 )


      isym = 33     inv. 180 deg rotation - cart. axis [1,0,1]   

 cryst.   s(33) = (     1         -1          0      )
                  (     0         -1          0      )
                  (     0         -1          1      )

 cart.    s(33) = ( -0.0000000 -0.0000000 -1.0000000 )
                  ( -0.0000000  1.0000000  0.0000000 )
                  ( -1.0000000  0.0000000  0.0000000 )


      isym = 34     inv. 180 deg rotation - cart. axis [-1,0,1]  

 cryst.   s(34) = (     0          0          1      )
                  (     0          1          0      )
                  (     1          0          0      )

 cart.    s(34) = (  0.0000000 -0.0000000  1.0000000 )
                  (  0.0000000  1.0000000 -0.0000000 )
                  (  1.0000000  0.0000000 -0.0000000 )


      isym = 35     inv.  90 deg rotation - cart. axis [0,1,0]   

 cryst.   s(35) = (     0          0         -1      )
                  (     1          0         -1      )
                  (     0          1         -1      )

 cart.    s(35) = (  0.0000000  0.0000000 -1.0000000 )
                  (  0.0000000 -1.0000000  0.0000000 )
                  (  1.0000000 -0.0000000  0.0000000 )


      isym = 36     inv.  90 deg rotation - cart. axis [0,-1,0]  

 cryst.   s(36) = (    -1          1          0      )
                  (    -1          0          1      )
                  (    -1          0          0      )

 cart.    s(36) = ( -0.0000000  0.0000000  1.0000000 )
                  ( -0.0000000 -1.0000000 -0.0000000 )
                  ( -1.0000000 -0.0000000 -0.0000000 )


      isym = 37     inv. 180 deg rotation - cart. axis [0,1,1]   

 cryst.   s(37) = (    -1          0          0      )
                  (    -1          1          0      )
                  (    -1          0          1      )

 cart.    s(37) = (  1.0000000 -0.0000000  0.0000000 )
                  ( -0.0000000 -0.0000000 -1.0000000 )
                  ( -0.0000000 -1.0000000 -0.0000000 )


      isym = 38     inv. 180 deg rotation - cart. axis [0,1,-1]  

 cryst.   s(38) = (     1          0          0      )
                  (     0          0          1      )
                  (     0          1          0      )

 cart.    s(38) = (  1.0000000  0.0000000 -0.0000000 )
                  ( -0.0000000  0.0000000  1.0000000 )
                  ( -0.0000000  1.0000000  0.0000000 )


      isym = 39     inv.  90 deg rotation - cart. axis [-1,0,0]  

 cryst.   s(39) = (     0          1         -1      )
                  (     0          0         -1      )
                  (     1          0         -1      )

 cart.    s(39) = ( -1.0000000  0.0000000  0.0000000 )
                  (  0.0000000  0.0000000 -1.0000000 )
                  (  0.0000000  1.0000000 -0.0000000 )


      isym = 40     inv.  90 deg rotation - cart. axis [1,0,0]   

 cryst.   s(40) = (     0         -1          1      )
                  (     1         -1          0      )
                  (     0         -1          0      )

 cart.    s(40) = ( -1.0000000 -0.0000000 -0.0000000 )
                  (  0.0000000 -0.0000000  1.0000000 )
                  (  0.0000000 -1.0000000  0.0000000 )


      isym = 41     inv. 120 deg rotation - cart. axis [-1,-1,-1]

 cryst.   s(41) = (     0          0         -1      )
                  (    -1          0          0      )
                  (     0         -1          0      )

 cart.    s(41) = ( -0.0000000 -1.0000000  0.0000000 )
                  ( -0.0000000  0.0000000 -1.0000000 )
                  ( -1.0000000  0.0000000 -0.0000000 )


      isym = 42     inv. 120 deg rotation - cart. axis [-1,1,1]  

 cryst.   s(42) = (    -1          1          0      )
                  (     0          1         -1      )
                  (     0          1          0      )

 cart.    s(42) = (  0.0000000  1.0000000  0.0000000 )
                  (  0.0000000 -0.0000000 -1.0000000 )
                  (  1.0000000 -0.0000000 -0.0000000 )


      isym = 43     inv. 120 deg rotation - cart. axis [1,1,-1]  

 cryst.   s(43) = (     1         -1          0      )
                  (     1          0          0      )
                  (     1          0         -1      )

 cart.    s(43) = (  0.0000000 -1.0000000 -0.0000000 )
                  (  0.0000000  0.0000000  1.0000000 )
                  (  1.0000000  0.0000000  0.0000000 )


      isym = 44     inv. 120 deg rotation - cart. axis [1,-1,1]  

 cryst.   s(44) = (     0          0          1      )
                  (     0         -1          1      )
                  (    -1          0          1      )

 cart.    s(44) = ( -0.0000000  1.0000000 -0.0000000 )
                  ( -0.0000000 -0.0000000  1.0000000 )
                  ( -1.0000000 -0.0000000  0.0000000 )


      isym = 45     inv. 120 deg rotation - cart. axis [1,1,1]   

 cryst.   s(45) = (     0         -1          0      )
                  (     0          0         -1      )
                  (    -1          0          0      )

 cart.    s(45) = (  0.0000000 -0.0000000 -1.0000000 )
                  ( -1.0000000 -0.0000000  0.0000000 )
                  ( -0.0000000 -1.0000000  0.0000000 )


      isym = 46     inv. 120 deg rotation - cart. axis [-1,1,-1] 

 cryst.   s(46) = (     1          0         -1      )
                  (     1         -1          0      )
                  (     1          0          0      )

 cart.    s(46) = ( -0.0000000  0.0000000 -1.0000000 )
                  (  1.0000000  0.0000000  0.0000000 )
                  (  0.0000000  1.0000000  0.0000000 )


      isym = 47     inv. 120 deg rotation - cart. axis [1,-1,-1] 

 cryst.   s(47) = (    -1          0          1      )
                  (     0          0          1      )
                  (     0         -1          1      )

 cart.    s(47) = ( -0.0000000 -0.0000000  1.0000000 )
                  (  1.0000000 -0.0000000 -0.0000000 )
                  (  0.0000000 -1.0000000 -0.0000000 )


      isym = 48     inv. 120 deg rotation - cart. axis [-1,-1,1] 

 cryst.   s(48) = (     0          1          0      )
                  (    -1          1          0      )
                  (     0          1         -1      )

 cart.    s(48) = (  0.0000000  0.0000000  1.0000000 )
                  ( -1.0000000  0.0000000 -0.0000000 )
                  ( -0.0000000  1.0000000 -0.0000000 )


   Cartesian axes

     site n.     atom                  positions (alat units)
         1           K   tau(   1) = (   0.3535534   0.3535534   1.0606602  )
         2           K   tau(   2) = (   0.3535534   1.0606602   1.0606602  )
         3           Na  tau(   3) = (   0.7071068   0.0000000   0.0000000  )
         4           Ni  tau(   4) = (   0.0000000   0.0000000   0.0000000  )
         5           F   tau(   5) = (   1.0889444   0.0000000   0.0000000  )
         6           F   tau(   6) = (   0.7071068   0.3818377   0.0000000  )
         7           F   tau(   7) = (  -0.0000000  -0.0000000   1.0889444  )
         8           F   tau(   8) = (   0.7071068  -0.0000000   1.0323759  )
         9           F   tau(   9) = (   0.7071068   1.0323759  -0.0000000  )
        10           F   tau(  10) = (   0.3252691   0.0000000   0.0000000  )

   Crystallographic axes

     site n.     atom                  positions (cryst. coord.)
         1           K   tau(   1) = (  0.7500000  0.7500000 -0.2500000  )
         2           K   tau(   2) = (  1.2500000  0.2500000  0.2500000  )
         3           Na  tau(   3) = ( -0.5000000  0.5000000  0.5000000  )
         4           Ni  tau(   4) = (  0.0000000  0.0000000  0.0000000  )
         5           F   tau(   5) = ( -0.7700000  0.7700000  0.7700000  )
         6           F   tau(   6) = ( -0.2300000  0.2300000  0.7700000  )
         7           F   tau(   7) = (  0.7700000  0.7700000 -0.7700000  )
         8           F   tau(   8) = (  0.2300000  1.2300000 -0.2300000  )
         9           F   tau(   9) = (  0.2300000 -0.2300000  1.2300000  )
        10           F   tau(  10) = ( -0.2300000  0.2300000  0.2300000  )

     number of k points=    35  Marzari-Vanderbilt smearing, width (Ry)=  0.0100
                       cart. coord. in units 2pi/alat
        k(    1) = (   0.0000000   0.0000000   0.0000000), wk =   0.0013717
        k(    2) = (   0.0785674   0.0785674  -0.0785674), wk =   0.0109739
        k(    3) = (   0.1571348   0.1571348  -0.1571348), wk =   0.0109739
        k(    4) = (   0.2357023   0.2357023  -0.2357023), wk =   0.0109739
        k(    5) = (   0.3142697   0.3142697  -0.3142697), wk =   0.0109739
        k(    6) = (   0.1571348   0.0000000  -0.0000000), wk =   0.0082305
        k(    7) = (   0.2357023   0.0785674  -0.0785674), wk =   0.0329218
        k(    8) = (   0.3142697   0.1571348  -0.1571348), wk =   0.0329218
        k(    9) = (   0.3928371   0.2357023  -0.2357023), wk =   0.0329218
        k(   10) = (  -0.2357023  -0.3928371   0.3928371), wk =   0.0329218
        k(   11) = (  -0.1571348  -0.3142697   0.3142697), wk =   0.0329218
        k(   12) = (  -0.0785674  -0.2357023   0.2357023), wk =   0.0329218
        k(   13) = (  -0.0000000  -0.1571348   0.1571348), wk =   0.0164609
        k(   14) = (   0.3142697   0.0000000  -0.0000000), wk =   0.0082305
        k(   15) = (   0.3928371   0.0785674  -0.0785674), wk =   0.0329218
        k(   16) = (   0.4714045   0.1571348  -0.1571348), wk =   0.0329218
        k(   17) = (  -0.1571348  -0.4714045   0.4714045), wk =   0.0329218
        k(   18) = (  -0.0785674  -0.3928371   0.3928371), wk =   0.0329218
        k(   19) = (  -0.0000000  -0.3142697   0.3142697), wk =   0.0164609
        k(   20) = (   0.4714045   0.0000000  -0.0000000), wk =   0.0082305
        k(   21) = (   0.5499719   0.0785674  -0.0785674), wk =   0.0329218
        k(   22) = (  -0.0785674  -0.5499719   0.5499719), wk =   0.0329218
        k(   23) = (  -0.0000000  -0.4714045   0.4714045), wk =   0.0164609
        k(   24) = (   0.6285394   0.0000000  -0.0000000), wk =   0.0082305
        k(   25) = (  -0.0000000  -0.6285394   0.6285394), wk =   0.0164609
        k(   26) = (   0.3142697   0.1571348  -0.0000000), wk =   0.0329218
        k(   27) = (   0.3928371   0.2357023  -0.0785674), wk =   0.0658436
        k(   28) = (  -0.2357023  -0.3928371   0.5499719), wk =   0.0658436
        k(   29) = (   0.4714045   0.1571348  -0.0000000), wk =   0.0329218
        k(   30) = (  -0.1571348  -0.4714045   0.6285394), wk =   0.0658436
        k(   31) = (  -0.0785674  -0.3928371   0.5499719), wk =   0.0658436
        k(   32) = (   0.0000000  -0.3142697   0.4714045), wk =   0.0329218
        k(   33) = (  -0.0785674  -0.5499719   0.7071068), wk =   0.0329218
        k(   34) = (  -0.0000000  -0.4714045   0.6285394), wk =   0.0329218
        k(   35) = (  -0.0785674  -0.3928371   0.7071068), wk =   0.0329218

                       cryst. coord.
        k(    1) = (   0.0000000   0.0000000   0.0000000), wk =   0.0013717
        k(    2) = (  -0.0000000  -0.0000000   0.1111111), wk =   0.0109739
        k(    3) = (  -0.0000000  -0.0000000   0.2222222), wk =   0.0109739
        k(    4) = (   0.0000000   0.0000000   0.3333333), wk =   0.0109739
        k(    5) = (  -0.0000000  -0.0000000   0.4444444), wk =   0.0109739
        k(    6) = (  -0.0000000   0.1111111   0.1111111), wk =   0.0082305
        k(    7) = (   0.0000000   0.1111111   0.2222222), wk =   0.0329218
        k(    8) = (   0.0000000   0.1111111   0.3333333), wk =   0.0329218
        k(    9) = (   0.0000000   0.1111111   0.4444444), wk =   0.0329218
        k(   10) = (  -0.0000000   0.1111111  -0.4444444), wk =   0.0329218
        k(   11) = (  -0.0000000   0.1111111  -0.3333333), wk =   0.0329218
        k(   12) = (  -0.0000000   0.1111111  -0.2222222), wk =   0.0329218
        k(   13) = (   0.0000000   0.1111111  -0.1111111), wk =   0.0164609
        k(   14) = (  -0.0000000   0.2222222   0.2222222), wk =   0.0082305
        k(   15) = (   0.0000000   0.2222222   0.3333333), wk =   0.0329218
        k(   16) = (   0.0000000   0.2222222   0.4444444), wk =   0.0329218
        k(   17) = (  -0.0000000   0.2222222  -0.4444444), wk =   0.0329218
        k(   18) = (  -0.0000000   0.2222222  -0.3333333), wk =   0.0329218
        k(   19) = (   0.0000000   0.2222222  -0.2222222), wk =   0.0164609
        k(   20) = (  -0.0000000   0.3333333   0.3333333), wk =   0.0082305
        k(   21) = (   0.0000000   0.3333333   0.4444444), wk =   0.0329218
        k(   22) = (  -0.0000000   0.3333333  -0.4444444), wk =   0.0329218
        k(   23) = (   0.0000000   0.3333333  -0.3333333), wk =   0.0164609
        k(   24) = (  -0.0000000   0.4444444   0.4444444), wk =   0.0082305
        k(   25) = (   0.0000000   0.4444444  -0.4444444), wk =   0.0164609
        k(   26) = (   0.1111111   0.2222222   0.3333333), wk =   0.0329218
        k(   27) = (   0.1111111   0.2222222   0.4444444), wk =   0.0658436
        k(   28) = (   0.1111111   0.2222222  -0.4444444), wk =   0.0658436
        k(   29) = (   0.1111111   0.3333333   0.4444444), wk =   0.0329218
        k(   30) = (   0.1111111   0.3333333  -0.4444444), wk =   0.0658436
        k(   31) = (   0.1111111   0.3333333  -0.3333333), wk =   0.0658436
        k(   32) = (   0.1111111   0.3333333  -0.2222222), wk =   0.0329218
        k(   33) = (   0.1111111   0.4444444  -0.4444444), wk =   0.0329218
        k(   34) = (   0.1111111   0.4444444  -0.3333333), wk =   0.0329218
        k(   35) = (   0.2222222   0.4444444  -0.3333333), wk =   0.0329218

     Dense  grid:   165807 G-vectors     FFT dimensions: (  80,  80,  80)

     Smooth grid:    58623 G-vectors     FFT dimensions: (  60,  60,  60)

     Dynamical RAM for                 wfc:       5.93 MB

     Dynamical RAM for     wfc (w. buffer):     420.88 MB

     Dynamical RAM for           str. fact:      10.12 MB

     Dynamical RAM for           local pot:       0.00 MB

     Dynamical RAM for          nlocal pot:      12.86 MB

     Dynamical RAM for                qrad:       7.03 MB

     Dynamical RAM for          rho,v,vnew:      38.62 MB

     Dynamical RAM for               rhoin:      12.87 MB

     Dynamical RAM for            rho*nmix:      80.96 MB

     Dynamical RAM for           G-vectors:       9.93 MB

     Dynamical RAM for          h,s,v(r/c):       0.51 MB

     Dynamical RAM for          <psi|beta>:       0.09 MB

     Dynamical RAM for                 psi:      11.86 MB

     Dynamical RAM for                hpsi:      11.86 MB

     Dynamical RAM for                spsi:      11.86 MB

     Dynamical RAM for      wfcinit/wfcrot:      11.92 MB

     Dynamical RAM for           addusdens:     488.29 MB

     Dynamical RAM for          addusforce:     513.64 MB

     Dynamical RAM for         addusstress:     512.33 MB

     Estimated static dynamical RAM per process >     548.41 MB

     Estimated max dynamical RAM per process >       1.12 GB

     Atomic positions and unit cell read from directory:
     ./out/aiida.save/
 

     Check: negative core charge=   -0.000002
     Generating pointlists ...
     new r_m :   0.1342 (alat units)  1.4721 (a.u.) for type    1
     new r_m :   0.2066 (alat units)  2.2666 (a.u.) for type    2
     new r_m :   0.1575 (alat units)  1.7282 (a.u.) for type    3
     new r_m :   0.1342 (alat units)  1.4721 (a.u.) for type    4

     The initial density is read from file :
     ./out/aiida.save/charge-density

     Starting wfcs from file
     Checking if some PAW data can be deallocated... 

     total cpu time spent up to now is        4.9 secs

     per-process dynamical memory:   486.5 Mb

     Self-consistent Calculation
[tb_dev] Currently allocated     7.63E-05 Mbytes, locked:    0 /   2
[tb_pin] Currently allocated     0.00E+00 Mbytes, locked:    0 /   0

     iteration #  1     ecut=    60.00 Ry     beta= 0.10
     Davidson diagonalization with overlap

---- Real-time Memory Report at c_bands before calling an iterative solver
           750 MiB given to the printing process from OS
           486 MiB allocation reported by mallinfo(arena+hblkhd)
         59037 MiB available memory on the node where the printing process lives
     GPU memory used/free/total (MiB): 762 / 15518 / 16280
------------------
     ethr =  1.00E-05,  avg # of iterations =  1.8

     total cpu time spent up to now is       10.3 secs

     total energy              =    -952.86276768 Ry
     estimated scf accuracy    <       0.02503538 Ry

     total magnetization       =     2.02 Bohr mag/cell
     absolute magnetization    =     2.14 Bohr mag/cell
[tb_dev] Currently allocated     1.92E+00 Mbytes, locked:    0 /   6
[tb_pin] Currently allocated     0.00E+00 Mbytes, locked:    0 /   0

     iteration #  2     ecut=    60.00 Ry     beta= 0.10
     Davidson diagonalization with overlap

---- Real-time Memory Report at c_bands before calling an iterative solver
          1676 MiB given to the printing process from OS
          1248 MiB allocation reported by mallinfo(arena+hblkhd)
         57409 MiB available memory on the node where the printing process lives
     GPU memory used/free/total (MiB): 1930 / 14350 / 16280
------------------
     ethr =  2.88E-05,  avg # of iterations =  1.0

     total cpu time spent up to now is       14.2 secs

     total energy              =    -952.86406748 Ry
     estimated scf accuracy    <       0.01042990 Ry

     total magnetization       =     2.13 Bohr mag/cell
     absolute magnetization    =     2.23 Bohr mag/cell
[tb_dev] Currently allocated     1.92E+00 Mbytes, locked:    0 /   6
[tb_pin] Currently allocated     0.00E+00 Mbytes, locked:    0 /   0

     iteration #  3     ecut=    60.00 Ry     beta= 0.10
     Davidson diagonalization with overlap

---- Real-time Memory Report at c_bands before calling an iterative solver
          1810 MiB given to the printing process from OS
          1255 MiB allocation reported by mallinfo(arena+hblkhd)
         57403 MiB available memory on the node where the printing process lives
     GPU memory used/free/total (MiB): 1930 / 14350 / 16280
------------------
     ethr =  1.20E-05,  avg # of iterations =  1.0

     total cpu time spent up to now is       18.2 secs

     total energy              =    -952.85571830 Ry
     estimated scf accuracy    <       0.01627516 Ry

     total magnetization       =     1.87 Bohr mag/cell
     absolute magnetization    =     1.98 Bohr mag/cell
[tb_dev] Currently allocated     1.92E+00 Mbytes, locked:    0 /   6
[tb_pin] Currently allocated     0.00E+00 Mbytes, locked:    0 /   0

     iteration #  4     ecut=    60.00 Ry     beta= 0.10
     Davidson diagonalization with overlap

---- Real-time Memory Report at c_bands before calling an iterative solver
          1942 MiB given to the printing process from OS
          1263 MiB allocation reported by mallinfo(arena+hblkhd)
         57395 MiB available memory on the node where the printing process lives
     GPU memory used/free/total (MiB): 1930 / 14350 / 16280
------------------
     ethr =  1.20E-05,  avg # of iterations =  2.0

     total cpu time spent up to now is       22.6 secs

     total energy              =    -952.85995856 Ry
     estimated scf accuracy    <       0.00164447 Ry

     total magnetization       =     2.99 Bohr mag/cell
     absolute magnetization    =     3.08 Bohr mag/cell
[tb_dev] Currently allocated     1.92E+00 Mbytes, locked:    0 /   6
[tb_pin] Currently allocated     0.00E+00 Mbytes, locked:    0 /   0

     iteration #  5     ecut=    60.00 Ry     beta= 0.10
     Davidson diagonalization with overlap

---- Real-time Memory Report at c_bands before calling an iterative solver
          1999 MiB given to the printing process from OS
          1270 MiB allocation reported by mallinfo(arena+hblkhd)
         57388 MiB available memory on the node where the printing process lives
     GPU memory used/free/total (MiB): 1960 / 14320 / 16280
------------------
     ethr =  1.89E-06,  avg # of iterations =  2.0

     total cpu time spent up to now is       27.0 secs

     total energy              =    -952.86056492 Ry
     estimated scf accuracy    <       0.00215687 Ry

     total magnetization       =     3.13 Bohr mag/cell
     absolute magnetization    =     3.21 Bohr mag/cell
[tb_dev] Currently allocated     1.92E+00 Mbytes, locked:    0 /   6
[tb_pin] Currently allocated     0.00E+00 Mbytes, locked:    0 /   0

     iteration #  6     ecut=    60.00 Ry     beta= 0.10
     Davidson diagonalization with overlap

---- Real-time Memory Report at c_bands before calling an iterative solver
          2047 MiB given to the printing process from OS
          1279 MiB allocation reported by mallinfo(arena+hblkhd)
         57380 MiB available memory on the node where the printing process lives
     GPU memory used/free/total (MiB): 1988 / 14292 / 16280
------------------
     ethr =  1.89E-06,  avg # of iterations =  1.5

     total cpu time spent up to now is       31.2 secs

     total energy              =    -952.85741161 Ry
     estimated scf accuracy    <       0.00512965 Ry

     total magnetization       =     2.82 Bohr mag/cell
     absolute magnetization    =     2.91 Bohr mag/cell
[tb_dev] Currently allocated     1.92E+00 Mbytes, locked:    0 /   6
[tb_pin] Currently allocated     0.00E+00 Mbytes, locked:    0 /   0

     iteration #  7     ecut=    60.00 Ry     beta= 0.10
     Davidson diagonalization with overlap

---- Real-time Memory Report at c_bands before calling an iterative solver
          2095 MiB given to the printing process from OS
          1288 MiB allocation reported by mallinfo(arena+hblkhd)
         57369 MiB available memory on the node where the printing process lives
     GPU memory used/free/total (MiB): 1988 / 14292 / 16280
------------------
     ethr =  1.89E-06,  avg # of iterations =  2.0

     total cpu time spent up to now is       35.7 secs

     total energy              =    -952.86003876 Ry
     estimated scf accuracy    <       0.00876629 Ry

     total magnetization       =     3.20 Bohr mag/cell
     absolute magnetization    =     3.29 Bohr mag/cell
[tb_dev] Currently allocated     1.92E+00 Mbytes, locked:    0 /   6
[tb_pin] Currently allocated     0.00E+00 Mbytes, locked:    0 /   0

     iteration #  8     ecut=    60.00 Ry     beta= 0.10
     Davidson diagonalization with overlap

---- Real-time Memory Report at c_bands before calling an iterative solver
          2143 MiB given to the printing process from OS
          1297 MiB allocation reported by mallinfo(arena+hblkhd)
         57362 MiB available memory on the node where the printing process lives
     GPU memory used/free/total (MiB): 2032 / 14248 / 16280
------------------
     ethr =  1.89E-06,  avg # of iterations =  2.0

     total cpu time spent up to now is       40.1 secs

     total energy              =    -952.85830192 Ry
     estimated scf accuracy    <       0.00393378 Ry

     total magnetization       =     3.08 Bohr mag/cell
     absolute magnetization    =     3.17 Bohr mag/cell
[tb_dev] Currently allocated     1.92E+00 Mbytes, locked:    0 /   6
[tb_pin] Currently allocated     0.00E+00 Mbytes, locked:    0 /   0

     iteration #  9     ecut=    60.00 Ry     beta= 0.10
     Davidson diagonalization with overlap

---- Real-time Memory Report at c_bands before calling an iterative solver
          2190 MiB given to the printing process from OS
          1305 MiB allocation reported by mallinfo(arena+hblkhd)
         57355 MiB available memory on the node where the printing process lives
     GPU memory used/free/total (MiB): 2032 / 14248 / 16280
------------------
     ethr =  1.89E-06,  avg # of iterations =  3.0

     total cpu time spent up to now is       45.2 secs

     total energy              =    -952.86148665 Ry
     estimated scf accuracy    <       0.04599600 Ry

     total magnetization       =     1.44 Bohr mag/cell
     absolute magnetization    =     1.58 Bohr mag/cell
[tb_dev] Currently allocated     1.92E+00 Mbytes, locked:    0 /   6
[tb_pin] Currently allocated     0.00E+00 Mbytes, locked:    0 /   0

     iteration # 10     ecut=    60.00 Ry     beta= 0.10
     Davidson diagonalization with overlap

---- Real-time Memory Report at c_bands before calling an iterative solver
          2213 MiB given to the printing process from OS
          1312 MiB allocation reported by mallinfo(arena+hblkhd)
         57347 MiB available memory on the node where the printing process lives
     GPU memory used/free/total (MiB): 2032 / 14248 / 16280
------------------
     ethr =  1.89E-06,  avg # of iterations =  2.0

     total cpu time spent up to now is       49.6 secs

     total energy              =    -952.86279443 Ry
     estimated scf accuracy    <       0.01928695 Ry

     total magnetization       =     2.13 Bohr mag/cell
     absolute magnetization    =     2.24 Bohr mag/cell
[tb_dev] Currently allocated     1.92E+00 Mbytes, locked:    0 /   6
[tb_pin] Currently allocated     0.00E+00 Mbytes, locked:    0 /   0

     iteration # 11     ecut=    60.00 Ry     beta= 0.10
     Davidson diagonalization with overlap

---- Real-time Memory Report at c_bands before calling an iterative solver
          2220 MiB given to the printing process from OS
          1316 MiB allocation reported by mallinfo(arena+hblkhd)
         57343 MiB available memory on the node where the printing process lives
     GPU memory used/free/total (MiB): 2032 / 14248 / 16280
------------------
     ethr =  1.89E-06,  avg # of iterations =  1.0

     total cpu time spent up to now is       53.5 secs

     total energy              =    -952.86488581 Ry
     estimated scf accuracy    <       0.01955007 Ry

     total magnetization       =     2.12 Bohr mag/cell
     absolute magnetization    =     2.23 Bohr mag/cell
[tb_dev] Currently allocated     1.92E+00 Mbytes, locked:    0 /   6
[tb_pin] Currently allocated     0.00E+00 Mbytes, locked:    0 /   0

     iteration # 12     ecut=    60.00 Ry     beta= 0.10
     Davidson diagonalization with overlap

---- Real-time Memory Report at c_bands before calling an iterative solver
          2223 MiB given to the printing process from OS
          1320 MiB allocation reported by mallinfo(arena+hblkhd)
         57339 MiB available memory on the node where the printing process lives
     GPU memory used/free/total (MiB): 2032 / 14248 / 16280
------------------
     ethr =  1.89E-06,  avg # of iterations =  2.0

     total cpu time spent up to now is       57.9 secs

     total energy              =    -952.86530029 Ry
     estimated scf accuracy    <       0.05492910 Ry

     total magnetization       =     1.27 Bohr mag/cell
     absolute magnetization    =     1.43 Bohr mag/cell
[tb_dev] Currently allocated     1.92E+00 Mbytes, locked:    0 /   6
[tb_pin] Currently allocated     0.00E+00 Mbytes, locked:    0 /   0

     iteration # 13     ecut=    60.00 Ry     beta= 0.10
     Davidson diagonalization with overlap

---- Real-time Memory Report at c_bands before calling an iterative solver
          2227 MiB given to the printing process from OS
          1324 MiB allocation reported by mallinfo(arena+hblkhd)
         57337 MiB available memory on the node where the printing process lives
     GPU memory used/free/total (MiB): 2032 / 14248 / 16280
------------------
     ethr =  1.89E-06,  avg # of iterations =  1.0

     total cpu time spent up to now is       61.8 secs

     total energy              =    -952.86391795 Ry
     estimated scf accuracy    <       0.04673137 Ry

     total magnetization       =     1.50 Bohr mag/cell
     absolute magnetization    =     1.63 Bohr mag/cell
[tb_dev] Currently allocated     1.92E+00 Mbytes, locked:    0 /   6
[tb_pin] Currently allocated     0.00E+00 Mbytes, locked:    0 /   0

     iteration # 14     ecut=    60.00 Ry     beta= 0.10
     Davidson diagonalization with overlap

---- Real-time Memory Report at c_bands before calling an iterative solver
          2231 MiB given to the printing process from OS
          1328 MiB allocation reported by mallinfo(arena+hblkhd)
         57333 MiB available memory on the node where the printing process lives
     GPU memory used/free/total (MiB): 2032 / 14248 / 16280
------------------
     ethr =  1.89E-06,  avg # of iterations =  1.0

     total cpu time spent up to now is       65.8 secs

     total energy              =    -952.86263729 Ry
     estimated scf accuracy    <       0.03358127 Ry

     total magnetization       =     1.77 Bohr mag/cell
     absolute magnetization    =     1.90 Bohr mag/cell
[tb_dev] Currently allocated     1.92E+00 Mbytes, locked:    0 /   6
[tb_pin] Currently allocated     0.00E+00 Mbytes, locked:    0 /   0

     iteration # 15     ecut=    60.00 Ry     beta= 0.10
     Davidson diagonalization with overlap

---- Real-time Memory Report at c_bands before calling an iterative solver
          2234 MiB given to the printing process from OS
          1332 MiB allocation reported by mallinfo(arena+hblkhd)
         57330 MiB available memory on the node where the printing process lives
     GPU memory used/free/total (MiB): 2032 / 14248 / 16280
------------------
     ethr =  1.89E-06,  avg # of iterations =  1.0

     total cpu time spent up to now is       69.7 secs

     total energy              =    -952.86292496 Ry
     estimated scf accuracy    <       0.02081594 Ry

     total magnetization       =     2.09 Bohr mag/cell
     absolute magnetization    =     2.20 Bohr mag/cell
[tb_dev] Currently allocated     1.92E+00 Mbytes, locked:    0 /   6
[tb_pin] Currently allocated     0.00E+00 Mbytes, locked:    0 /   0

     iteration # 16     ecut=    60.00 Ry     beta= 0.10
     Davidson diagonalization with overlap

---- Real-time Memory Report at c_bands before calling an iterative solver
          2241 MiB given to the printing process from OS
          1336 MiB allocation reported by mallinfo(arena+hblkhd)
         57321 MiB available memory on the node where the printing process lives
     GPU memory used/free/total (MiB): 2032 / 14248 / 16280
------------------
     ethr =  1.89E-06,  avg # of iterations =  1.0

     total cpu time spent up to now is       73.7 secs

     total energy              =    -952.85751039 Ry
     estimated scf accuracy    <       0.02160649 Ry

     total magnetization       =     2.08 Bohr mag/cell
     absolute magnetization    =     2.19 Bohr mag/cell
[tb_dev] Currently allocated     1.92E+00 Mbytes, locked:    0 /   6
[tb_pin] Currently allocated     0.00E+00 Mbytes, locked:    0 /   0

     iteration # 17     ecut=    60.00 Ry     beta= 0.10
     Davidson diagonalization with overlap

---- Real-time Memory Report at c_bands before calling an iterative solver
          2244 MiB given to the printing process from OS
          1340 MiB allocation reported by mallinfo(arena+hblkhd)
         57319 MiB available memory on the node where the printing process lives
     GPU memory used/free/total (MiB): 2032 / 14248 / 16280
------------------
     ethr =  1.89E-06,  avg # of iterations =  2.0

     total cpu time spent up to now is       78.2 secs

     total energy              =    -952.85990746 Ry
     estimated scf accuracy    <       0.00165483 Ry

     total magnetization       =     3.04 Bohr mag/cell
     absolute magnetization    =     3.13 Bohr mag/cell
[tb_dev] Currently allocated     1.92E+00 Mbytes, locked:    0 /   6
[tb_pin] Currently allocated     0.00E+00 Mbytes, locked:    0 /   0

     iteration # 18     ecut=    60.00 Ry     beta= 0.10
     Davidson diagonalization with overlap

---- Real-time Memory Report at c_bands before calling an iterative solver
          2248 MiB given to the printing process from OS
          1344 MiB allocation reported by mallinfo(arena+hblkhd)
         57313 MiB available memory on the node where the printing process lives
     GPU memory used/free/total (MiB): 2032 / 14248 / 16280
------------------
     ethr =  1.89E-06,  avg # of iterations =  1.8

     total cpu time spent up to now is       82.4 secs

     total energy              =    -952.86030942 Ry
     estimated scf accuracy    <       0.00197624 Ry

     total magnetization       =     3.16 Bohr mag/cell
     absolute magnetization    =     3.25 Bohr mag/cell
[tb_dev] Currently allocated     1.92E+00 Mbytes, locked:    0 /   6
[tb_pin] Currently allocated     0.00E+00 Mbytes, locked:    0 /   0

     iteration # 19     ecut=    60.00 Ry     beta= 0.10
     Davidson diagonalization with overlap

---- Real-time Memory Report at c_bands before calling an iterative solver
          2253 MiB given to the printing process from OS
          1348 MiB allocation reported by mallinfo(arena+hblkhd)
         57310 MiB available memory on the node where the printing process lives
     GPU memory used/free/total (MiB): 2032 / 14248 / 16280
------------------
     ethr =  1.89E-06,  avg # of iterations =  1.0

     total cpu time spent up to now is       86.4 secs

     total energy              =    -952.85879407 Ry
     estimated scf accuracy    <       0.00143175 Ry

     total magnetization       =     3.07 Bohr mag/cell
     absolute magnetization    =     3.16 Bohr mag/cell
[tb_dev] Currently allocated     1.92E+00 Mbytes, locked:    0 /   6
[tb_pin] Currently allocated     0.00E+00 Mbytes, locked:    0 /   0

     iteration # 20     ecut=    60.00 Ry     beta= 0.10
     Davidson diagonalization with overlap

---- Real-time Memory Report at c_bands before calling an iterative solver
          2256 MiB given to the printing process from OS
          1351 MiB allocation reported by mallinfo(arena+hblkhd)
         57306 MiB available memory on the node where the printing process lives
     GPU memory used/free/total (MiB): 2032 / 14248 / 16280
------------------
     ethr =  1.65E-06,  avg # of iterations =  2.0

     total cpu time spent up to now is       90.8 secs

     total energy              =    -952.86015889 Ry
     estimated scf accuracy    <       0.00562536 Ry

     total magnetization       =     3.20 Bohr mag/cell
     absolute magnetization    =     3.30 Bohr mag/cell
[tb_dev] Currently allocated     1.92E+00 Mbytes, locked:    0 /   6
[tb_pin] Currently allocated     0.00E+00 Mbytes, locked:    0 /   0

     iteration # 21     ecut=    60.00 Ry     beta= 0.10
     Davidson diagonalization with overlap

---- Real-time Memory Report at c_bands before calling an iterative solver
          2260 MiB given to the printing process from OS
          1355 MiB allocation reported by mallinfo(arena+hblkhd)
         57305 MiB available memory on the node where the printing process lives
     GPU memory used/free/total (MiB): 2032 / 14248 / 16280
------------------
     ethr =  1.65E-06,  avg # of iterations =  2.0

     total cpu time spent up to now is       95.1 secs

     total energy              =    -952.86049763 Ry
     estimated scf accuracy    <       0.00320227 Ry

     total magnetization       =     3.07 Bohr mag/cell
     absolute magnetization    =     3.16 Bohr mag/cell
[tb_dev] Currently allocated     1.92E+00 Mbytes, locked:    0 /   6
[tb_pin] Currently allocated     0.00E+00 Mbytes, locked:    0 /   0

     iteration # 22     ecut=    60.00 Ry     beta= 0.10
     Davidson diagonalization with overlap

---- Real-time Memory Report at c_bands before calling an iterative solver
          2264 MiB given to the printing process from OS
          1359 MiB allocation reported by mallinfo(arena+hblkhd)
         57300 MiB available memory on the node where the printing process lives
     GPU memory used/free/total (MiB): 2032 / 14248 / 16280
------------------
     ethr =  1.65E-06,  avg # of iterations =  2.0

     total cpu time spent up to now is       99.7 secs

     total energy              =    -952.86204443 Ry
     estimated scf accuracy    <       0.01229545 Ry

     total magnetization       =     2.39 Bohr mag/cell
     absolute magnetization    =     2.49 Bohr mag/cell
[tb_dev] Currently allocated     1.92E+00 Mbytes, locked:    0 /   6
[tb_pin] Currently allocated     0.00E+00 Mbytes, locked:    0 /   0

     iteration # 23     ecut=    60.00 Ry     beta= 0.10
     Davidson diagonalization with overlap

---- Real-time Memory Report at c_bands before calling an iterative solver
          2268 MiB given to the printing process from OS
          1363 MiB allocation reported by mallinfo(arena+hblkhd)
         57296 MiB available memory on the node where the printing process lives
     GPU memory used/free/total (MiB): 2032 / 14248 / 16280
------------------
     ethr =  1.65E-06,  avg # of iterations =  1.0

     total cpu time spent up to now is      103.6 secs

     total energy              =    -952.86104804 Ry
     estimated scf accuracy    <       0.01292300 Ry

     total magnetization       =     2.36 Bohr mag/cell
     absolute magnetization    =     2.46 Bohr mag/cell
[tb_dev] Currently allocated     1.92E+00 Mbytes, locked:    0 /   6
[tb_pin] Currently allocated     0.00E+00 Mbytes, locked:    0 /   0

     iteration # 24     ecut=    60.00 Ry     beta= 0.10
     Davidson diagonalization with overlap

---- Real-time Memory Report at c_bands before calling an iterative solver
          2272 MiB given to the printing process from OS
          1367 MiB allocation reported by mallinfo(arena+hblkhd)
         57293 MiB available memory on the node where the printing process lives
     GPU memory used/free/total (MiB): 2032 / 14248 / 16280
------------------
     ethr =  1.65E-06,  avg # of iterations =  1.8

     total cpu time spent up to now is      107.8 secs

     total energy              =    -952.86179831 Ry
     estimated scf accuracy    <       0.00773017 Ry

     total magnetization       =     2.65 Bohr mag/cell
     absolute magnetization    =     2.74 Bohr mag/cell
[tb_dev] Currently allocated     1.92E+00 Mbytes, locked:    0 /   6
[tb_pin] Currently allocated     0.00E+00 Mbytes, locked:    0 /   0

     iteration # 25     ecut=    60.00 Ry     beta= 0.10
     Davidson diagonalization with overlap

---- Real-time Memory Report at c_bands before calling an iterative solver
          2277 MiB given to the printing process from OS
          1371 MiB allocation reported by mallinfo(arena+hblkhd)
         57290 MiB available memory on the node where the printing process lives
     GPU memory used/free/total (MiB): 2032 / 14248 / 16280
------------------
     ethr =  1.65E-06,  avg # of iterations =  1.8

     total cpu time spent up to now is      112.0 secs

     total energy              =    -952.86292776 Ry
     estimated scf accuracy    <       0.01247931 Ry

     total magnetization       =     2.36 Bohr mag/cell
     absolute magnetization    =     2.46 Bohr mag/cell
[tb_dev] Currently allocated     1.92E+00 Mbytes, locked:    0 /   6
[tb_pin] Currently allocated     0.00E+00 Mbytes, locked:    0 /   0

     iteration # 26     ecut=    60.00 Ry     beta= 0.10
     Davidson diagonalization with overlap

---- Real-time Memory Report at c_bands before calling an iterative solver
          2281 MiB given to the printing process from OS
          1375 MiB allocation reported by mallinfo(arena+hblkhd)
         57283 MiB available memory on the node where the printing process lives
     GPU memory used/free/total (MiB): 2032 / 14248 / 16280
------------------
     ethr =  1.65E-06,  avg # of iterations =  2.0

     total cpu time spent up to now is      116.3 secs

     total energy              =    -952.85746319 Ry
     estimated scf accuracy    <       0.02431480 Ry

     total magnetization       =     1.98 Bohr mag/cell
     absolute magnetization    =     2.09 Bohr mag/cell
[tb_dev] Currently allocated     1.92E+00 Mbytes, locked:    0 /   6
[tb_pin] Currently allocated     0.00E+00 Mbytes, locked:    0 /   0

     iteration # 27     ecut=    60.00 Ry     beta= 0.10
     Davidson diagonalization with overlap

---- Real-time Memory Report at c_bands before calling an iterative solver
          2286 MiB given to the printing process from OS
          1379 MiB allocation reported by mallinfo(arena+hblkhd)
         57278 MiB available memory on the node where the printing process lives
     GPU memory used/free/total (MiB): 2032 / 14248 / 16280
------------------
     ethr =  1.65E-06,  avg # of iterations =  2.1

     total cpu time spent up to now is      120.8 secs

     total energy              =    -952.86102662 Ry
     estimated scf accuracy    <       0.00258459 Ry

     total magnetization       =     2.98 Bohr mag/cell
     absolute magnetization    =     3.07 Bohr mag/cell
[tb_dev] Currently allocated     1.92E+00 Mbytes, locked:    0 /   6
[tb_pin] Currently allocated     0.00E+00 Mbytes, locked:    0 /   0

     iteration # 28     ecut=    60.00 Ry     beta= 0.10
     Davidson diagonalization with overlap

---- Real-time Memory Report at c_bands before calling an iterative solver
          2289 MiB given to the printing process from OS
          1383 MiB allocation reported by mallinfo(arena+hblkhd)
         57276 MiB available memory on the node where the printing process lives
     GPU memory used/free/total (MiB): 2032 / 14248 / 16280
------------------
     ethr =  1.65E-06,  avg # of iterations =  1.1

     total cpu time spent up to now is      124.7 secs

     total energy              =    -952.86082040 Ry
     estimated scf accuracy    <       0.00925995 Ry

     total magnetization       =     2.58 Bohr mag/cell
     absolute magnetization    =     2.68 Bohr mag/cell
[tb_dev] Currently allocated     1.92E+00 Mbytes, locked:    0 /   6
[tb_pin] Currently allocated     0.00E+00 Mbytes, locked:    0 /   0

     iteration # 29     ecut=    60.00 Ry     beta= 0.10
     Davidson diagonalization with overlap

---- Real-time Memory Report at c_bands before calling an iterative solver
          2293 MiB given to the printing process from OS
          1387 MiB allocation reported by mallinfo(arena+hblkhd)
         57273 MiB available memory on the node where the printing process lives
     GPU memory used/free/total (MiB): 2032 / 14248 / 16280
------------------
     ethr =  1.65E-06,  avg # of iterations =  1.0

     total cpu time spent up to now is      128.7 secs

     total energy              =    -952.85783161 Ry
     estimated scf accuracy    <       0.00532158 Ry

     total magnetization       =     2.80 Bohr mag/cell
     absolute magnetization    =     2.89 Bohr mag/cell
[tb_dev] Currently allocated     1.92E+00 Mbytes, locked:    0 /   6
[tb_pin] Currently allocated     0.00E+00 Mbytes, locked:    0 /   0

     iteration # 30     ecut=    60.00 Ry     beta= 0.10
     Davidson diagonalization with overlap

---- Real-time Memory Report at c_bands before calling an iterative solver
          2297 MiB given to the printing process from OS
          1391 MiB allocation reported by mallinfo(arena+hblkhd)
         57270 MiB available memory on the node where the printing process lives
     GPU memory used/free/total (MiB): 2032 / 14248 / 16280
------------------
     ethr =  1.65E-06,  avg # of iterations =  2.0

     total cpu time spent up to now is      133.1 secs

     total energy              =    -952.85852252 Ry
     estimated scf accuracy    <       0.00578714 Ry

     total magnetization       =     3.20 Bohr mag/cell
     absolute magnetization    =     3.30 Bohr mag/cell
[tb_dev] Currently allocated     1.92E+00 Mbytes, locked:    0 /   6
[tb_pin] Currently allocated     0.00E+00 Mbytes, locked:    0 /   0

     iteration # 31     ecut=    60.00 Ry     beta= 0.10
     Davidson diagonalization with overlap

---- Real-time Memory Report at c_bands before calling an iterative solver
          2303 MiB given to the printing process from OS
          1395 MiB allocation reported by mallinfo(arena+hblkhd)
         57263 MiB available memory on the node where the printing process lives
     GPU memory used/free/total (MiB): 2032 / 14248 / 16280
------------------
     ethr =  1.65E-06,  avg # of iterations =  3.0

     total cpu time spent up to now is      138.2 secs

     total energy              =    -952.86284458 Ry
     estimated scf accuracy    <       0.02280551 Ry

     total magnetization       =     2.00 Bohr mag/cell
     absolute magnetization    =     2.11 Bohr mag/cell
[tb_dev] Currently allocated     1.92E+00 Mbytes, locked:    0 /   6
[tb_pin] Currently allocated     0.00E+00 Mbytes, locked:    0 /   0

     iteration # 32     ecut=    60.00 Ry     beta= 0.10
     Davidson diagonalization with overlap

---- Real-time Memory Report at c_bands before calling an iterative solver
          2307 MiB given to the printing process from OS
          1398 MiB allocation reported by mallinfo(arena+hblkhd)
         57259 MiB available memory on the node where the printing process lives
     GPU memory used/free/total (MiB): 2032 / 14248 / 16280
------------------
     ethr =  1.65E-06,  avg # of iterations =  1.0

     total cpu time spent up to now is      142.1 secs

     total energy              =    -952.86322304 Ry
     estimated scf accuracy    <       0.01918883 Ry

     total magnetization       =     2.10 Bohr mag/cell
     absolute magnetization    =     2.21 Bohr mag/cell
[tb_dev] Currently allocated     1.92E+00 Mbytes, locked:    0 /   6
[tb_pin] Currently allocated     0.00E+00 Mbytes, locked:    0 /   0

     iteration # 33     ecut=    60.00 Ry     beta= 0.10
     Davidson diagonalization with overlap

---- Real-time Memory Report at c_bands before calling an iterative solver
          2310 MiB given to the printing process from OS
          1402 MiB allocation reported by mallinfo(arena+hblkhd)
         57253 MiB available memory on the node where the printing process lives
     GPU memory used/free/total (MiB): 2032 / 14248 / 16280
------------------
     ethr =  1.65E-06,  avg # of iterations =  1.0

     total cpu time spent up to now is      146.3 secs

     total energy              =    -952.86389521 Ry
     estimated scf accuracy    <       0.02268719 Ry

     total magnetization       =     1.99 Bohr mag/cell
     absolute magnetization    =     2.10 Bohr mag/cell
[tb_dev] Currently allocated     1.92E+00 Mbytes, locked:    0 /   6
[tb_pin] Currently allocated     0.00E+00 Mbytes, locked:    0 /   0

     iteration # 34     ecut=    60.00 Ry     beta= 0.10
     Davidson diagonalization with overlap

---- Real-time Memory Report at c_bands before calling an iterative solver
          2316 MiB given to the printing process from OS
          1406 MiB allocation reported by mallinfo(arena+hblkhd)
         57248 MiB available memory on the node where the printing process lives
     GPU memory used/free/total (MiB): 2032 / 14248 / 16280
------------------
     ethr =  1.65E-06,  avg # of iterations =  1.0

     total cpu time spent up to now is      150.2 secs

     total energy              =    -952.86228050 Ry
     estimated scf accuracy    <       0.02841715 Ry

     total magnetization       =     1.81 Bohr mag/cell
     absolute magnetization    =     1.92 Bohr mag/cell
[tb_dev] Currently allocated     1.92E+00 Mbytes, locked:    0 /   6
[tb_pin] Currently allocated     0.00E+00 Mbytes, locked:    0 /   0

     iteration # 35     ecut=    60.00 Ry     beta= 0.10
     Davidson diagonalization with overlap

---- Real-time Memory Report at c_bands before calling an iterative solver
          2321 MiB given to the printing process from OS
          1410 MiB allocation reported by mallinfo(arena+hblkhd)
         57244 MiB available memory on the node where the printing process lives
     GPU memory used/free/total (MiB): 2032 / 14248 / 16280
------------------
     ethr =  1.65E-06,  avg # of iterations =  1.5

     total cpu time spent up to now is      154.3 secs

     total energy              =    -952.86484104 Ry
     estimated scf accuracy    <       0.01617999 Ry

     total magnetization       =     2.17 Bohr mag/cell
     absolute magnetization    =     2.28 Bohr mag/cell
[tb_dev] Currently allocated     1.92E+00 Mbytes, locked:    0 /   6
[tb_pin] Currently allocated     0.00E+00 Mbytes, locked:    0 /   0

     iteration # 36     ecut=    60.00 Ry     beta= 0.10
     Davidson diagonalization with overlap

---- Real-time Memory Report at c_bands before calling an iterative solver
          2326 MiB given to the printing process from OS
          1414 MiB allocation reported by mallinfo(arena+hblkhd)
         57240 MiB available memory on the node where the printing process lives
     GPU memory used/free/total (MiB): 2032 / 14248 / 16280
------------------
     ethr =  1.65E-06,  avg # of iterations =  2.5

     total cpu time spent up to now is      159.1 secs

     total energy              =    -952.86668523 Ry
     estimated scf accuracy    <       0.06537947 Ry

     total magnetization       =     0.92 Bohr mag/cell
     absolute magnetization    =     1.11 Bohr mag/cell
[tb_dev] Currently allocated     1.92E+00 Mbytes, locked:    0 /   6
[tb_pin] Currently allocated     0.00E+00 Mbytes, locked:    0 /   0

     iteration # 37     ecut=    60.00 Ry     beta= 0.10
     Davidson diagonalization with overlap

---- Real-time Memory Report at c_bands before calling an iterative solver
          2330 MiB given to the printing process from OS
          1418 MiB allocation reported by mallinfo(arena+hblkhd)
         57236 MiB available memory on the node where the printing process lives
     GPU memory used/free/total (MiB): 2032 / 14248 / 16280
------------------
     ethr =  1.65E-06,  avg # of iterations =  2.0

     total cpu time spent up to now is      163.4 secs

     total energy              =    -952.86032546 Ry
     estimated scf accuracy    <       0.06079423 Ry

     total magnetization       =     1.22 Bohr mag/cell
     absolute magnetization    =     1.38 Bohr mag/cell
[tb_dev] Currently allocated     1.92E+00 Mbytes, locked:    0 /   6
[tb_pin] Currently allocated     0.00E+00 Mbytes, locked:    0 /   0

     iteration # 38     ecut=    60.00 Ry     beta= 0.10
     Davidson diagonalization with overlap

---- Real-time Memory Report at c_bands before calling an iterative solver
          2334 MiB given to the printing process from OS
          1422 MiB allocation reported by mallinfo(arena+hblkhd)
         57231 MiB available memory on the node where the printing process lives
     GPU memory used/free/total (MiB): 2032 / 14248 / 16280
------------------
     ethr =  1.65E-06,  avg # of iterations =  2.0

     total cpu time spent up to now is      167.8 secs

     total energy              =    -952.85845335 Ry
     estimated scf accuracy    <       0.01795188 Ry

     total magnetization       =     2.16 Bohr mag/cell
     absolute magnetization    =     2.27 Bohr mag/cell
[tb_dev] Currently allocated     1.92E+00 Mbytes, locked:    0 /   6
[tb_pin] Currently allocated     0.00E+00 Mbytes, locked:    0 /   0

     iteration # 39     ecut=    60.00 Ry     beta= 0.10
     Davidson diagonalization with overlap

---- Real-time Memory Report at c_bands before calling an iterative solver
          2338 MiB given to the printing process from OS
          1426 MiB allocation reported by mallinfo(arena+hblkhd)
         57226 MiB available memory on the node where the printing process lives
     GPU memory used/free/total (MiB): 2032 / 14248 / 16280
------------------
     ethr =  1.65E-06,  avg # of iterations =  2.0

     total cpu time spent up to now is      172.2 secs

     total energy              =    -952.86015120 Ry
     estimated scf accuracy    <       0.00152696 Ry

     total magnetization       =     3.00 Bohr mag/cell
     absolute magnetization    =     3.08 Bohr mag/cell
[tb_dev] Currently allocated     1.92E+00 Mbytes, locked:    0 /   6
[tb_pin] Currently allocated     0.00E+00 Mbytes, locked:    0 /   0

     iteration # 40     ecut=    60.00 Ry     beta= 0.10
     Davidson diagonalization with overlap

---- Real-time Memory Report at c_bands before calling an iterative solver
          2344 MiB given to the printing process from OS
          1430 MiB allocation reported by mallinfo(arena+hblkhd)
         57221 MiB available memory on the node where the printing process lives
     GPU memory used/free/total (MiB): 2032 / 14248 / 16280
------------------
     ethr =  1.65E-06,  avg # of iterations =  1.4

     total cpu time spent up to now is      176.3 secs

     total energy              =    -952.86059002 Ry
     estimated scf accuracy    <       0.00138687 Ry

     total magnetization       =     3.11 Bohr mag/cell
     absolute magnetization    =     3.20 Bohr mag/cell
[tb_dev] Currently allocated     1.92E+00 Mbytes, locked:    0 /   6
[tb_pin] Currently allocated     0.00E+00 Mbytes, locked:    0 /   0

     iteration # 41     ecut=    60.00 Ry     beta= 0.10
     Davidson diagonalization with overlap

---- Real-time Memory Report at c_bands before calling an iterative solver
          2347 MiB given to the printing process from OS
          1434 MiB allocation reported by mallinfo(arena+hblkhd)
         57218 MiB available memory on the node where the printing process lives
     GPU memory used/free/total (MiB): 2032 / 14248 / 16280
------------------
     ethr =  1.59E-06,  avg # of iterations =  2.0

     total cpu time spent up to now is      180.7 secs

     total energy              =    -952.86167355 Ry
     estimated scf accuracy    <       0.00293629 Ry

     total magnetization       =     2.77 Bohr mag/cell
     absolute magnetization    =     2.85 Bohr mag/cell
[tb_dev] Currently allocated     1.92E+00 Mbytes, locked:    0 /   6
[tb_pin] Currently allocated     0.00E+00 Mbytes, locked:    0 /   0

     iteration # 42     ecut=    60.00 Ry     beta= 0.10
     Davidson diagonalization with overlap

---- Real-time Memory Report at c_bands before calling an iterative solver
          2353 MiB given to the printing process from OS
          1438 MiB allocation reported by mallinfo(arena+hblkhd)
         57214 MiB available memory on the node where the printing process lives
     GPU memory used/free/total (MiB): 2032 / 14248 / 16280
------------------
     ethr =  1.59E-06,  avg # of iterations =  2.0

     total cpu time spent up to now is      185.0 secs

     total energy              =    -952.86227041 Ry
     estimated scf accuracy    <       0.00998608 Ry

     total magnetization       =     2.29 Bohr mag/cell
     absolute magnetization    =     2.38 Bohr mag/cell
[tb_dev] Currently allocated     1.92E+00 Mbytes, locked:    0 /   6
[tb_pin] Currently allocated     0.00E+00 Mbytes, locked:    0 /   0

     iteration # 43     ecut=    60.00 Ry     beta= 0.10
     Davidson diagonalization with overlap

---- Real-time Memory Report at c_bands before calling an iterative solver
          2357 MiB given to the printing process from OS
          1442 MiB allocation reported by mallinfo(arena+hblkhd)
         57210 MiB available memory on the node where the printing process lives
     GPU memory used/free/total (MiB): 2032 / 14248 / 16280
------------------
     ethr =  1.59E-06,  avg # of iterations =  1.0

     total cpu time spent up to now is      188.9 secs

     total energy              =    -952.86101808 Ry
     estimated scf accuracy    <       0.01094714 Ry

     total magnetization       =     2.30 Bohr mag/cell
     absolute magnetization    =     2.39 Bohr mag/cell
[tb_dev] Currently allocated     1.92E+00 Mbytes, locked:    0 /   6
[tb_pin] Currently allocated     0.00E+00 Mbytes, locked:    0 /   0

     iteration # 44     ecut=    60.00 Ry     beta= 0.10
     Davidson diagonalization with overlap

---- Real-time Memory Report at c_bands before calling an iterative solver
          2361 MiB given to the printing process from OS
          1446 MiB allocation reported by mallinfo(arena+hblkhd)
         57205 MiB available memory on the node where the printing process lives
     GPU memory used/free/total (MiB): 2032 / 14248 / 16280
------------------
     ethr =  1.59E-06,  avg # of iterations =  2.0

     total cpu time spent up to now is      193.2 secs

     total energy              =    -952.86150635 Ry
     estimated scf accuracy    <       0.00548677 Ry

     total magnetization       =     2.63 Bohr mag/cell
     absolute magnetization    =     2.72 Bohr mag/cell
[tb_dev] Currently allocated     1.92E+00 Mbytes, locked:    0 /   6
[tb_pin] Currently allocated     0.00E+00 Mbytes, locked:    0 /   0

     iteration # 45     ecut=    60.00 Ry     beta= 0.10
     Davidson diagonalization with overlap

---- Real-time Memory Report at c_bands before calling an iterative solver
          2365 MiB given to the printing process from OS
          1450 MiB allocation reported by mallinfo(arena+hblkhd)
         57201 MiB available memory on the node where the printing process lives
     GPU memory used/free/total (MiB): 2032 / 14248 / 16280
------------------
     ethr =  1.59E-06,  avg # of iterations =  1.0

     total cpu time spent up to now is      197.2 secs

     total energy              =    -952.86155941 Ry
     estimated scf accuracy    <       0.00636863 Ry

     total magnetization       =     2.58 Bohr mag/cell
     absolute magnetization    =     2.67 Bohr mag/cell
[tb_dev] Currently allocated     1.92E+00 Mbytes, locked:    0 /   6
[tb_pin] Currently allocated     0.00E+00 Mbytes, locked:    0 /   0

     iteration # 46     ecut=    60.00 Ry     beta= 0.10
     Davidson diagonalization with overlap

---- Real-time Memory Report at c_bands before calling an iterative solver
          2368 MiB given to the printing process from OS
          1453 MiB allocation reported by mallinfo(arena+hblkhd)
         57197 MiB available memory on the node where the printing process lives
     GPU memory used/free/total (MiB): 2032 / 14248 / 16280
------------------
     ethr =  1.59E-06,  avg # of iterations =  1.0

     total cpu time spent up to now is      201.1 secs

     total energy              =    -952.86120378 Ry
     estimated scf accuracy    <       0.00611405 Ry

     total magnetization       =     2.56 Bohr mag/cell
     absolute magnetization    =     2.65 Bohr mag/cell
[tb_dev] Currently allocated     1.92E+00 Mbytes, locked:    0 /   6
[tb_pin] Currently allocated     0.00E+00 Mbytes, locked:    0 /   0

     iteration # 47     ecut=    60.00 Ry     beta= 0.10
     Davidson diagonalization with overlap

---- Real-time Memory Report at c_bands before calling an iterative solver
          2372 MiB given to the printing process from OS
          1457 MiB allocation reported by mallinfo(arena+hblkhd)
         57194 MiB available memory on the node where the printing process lives
     GPU memory used/free/total (MiB): 2032 / 14248 / 16280
------------------
     ethr =  1.59E-06,  avg # of iterations =  1.0

     total cpu time spent up to now is      205.2 secs

     total energy              =    -952.86054239 Ry
     estimated scf accuracy    <       0.00633603 Ry

     total magnetization       =     2.66 Bohr mag/cell
     absolute magnetization    =     2.75 Bohr mag/cell
[tb_dev] Currently allocated     1.92E+00 Mbytes, locked:    0 /   6
[tb_pin] Currently allocated     0.00E+00 Mbytes, locked:    0 /   0

     iteration # 48     ecut=    60.00 Ry     beta= 0.10
     Davidson diagonalization with overlap

---- Real-time Memory Report at c_bands before calling an iterative solver
          2379 MiB given to the printing process from OS
          1461 MiB allocation reported by mallinfo(arena+hblkhd)
         57188 MiB available memory on the node where the printing process lives
     GPU memory used/free/total (MiB): 2032 / 14248 / 16280
------------------
     ethr =  1.59E-06,  avg # of iterations =  1.9

     total cpu time spent up to now is      209.5 secs

     total energy              =    -952.85960826 Ry
     estimated scf accuracy    <       0.00354633 Ry

     total magnetization       =     2.90 Bohr mag/cell
     absolute magnetization    =     2.99 Bohr mag/cell
[tb_dev] Currently allocated     1.92E+00 Mbytes, locked:    0 /   6
[tb_pin] Currently allocated     0.00E+00 Mbytes, locked:    0 /   0

     iteration # 49     ecut=    60.00 Ry     beta= 0.10
     Davidson diagonalization with overlap

---- Real-time Memory Report at c_bands before calling an iterative solver
          2382 MiB given to the printing process from OS
          1465 MiB allocation reported by mallinfo(arena+hblkhd)
         57185 MiB available memory on the node where the printing process lives
     GPU memory used/free/total (MiB): 2032 / 14248 / 16280
------------------
     ethr =  1.59E-06,  avg # of iterations =  2.0

     total cpu time spent up to now is      213.9 secs

     total energy              =    -952.85704509 Ry
     estimated scf accuracy    <       0.00286749 Ry

     total magnetization       =     3.15 Bohr mag/cell
     absolute magnetization    =     3.25 Bohr mag/cell
[...]

     total cpu time spent up to now is      277.8 secs

     total energy              =    -952.85879501 Ry
     estimated scf accuracy    <       0.00330615 Ry

     total magnetization       =     2.96 Bohr mag/cell
     absolute magnetization    =     3.06 Bohr mag/cell
[tb_dev] Currently allocated     1.92E+00 Mbytes, locked:    0 /   6
[tb_pin] Currently allocated     0.00E+00 Mbytes, locked:    0 /   0

     iteration # 65     ecut=    60.00 Ry     beta= 0.10
     Davidson diagonalization with overlap

---- Real-time Memory Report at c_bands before calling an iterative solver
          2449 MiB given to the printing process from OS
          1528 MiB allocation reported by mallinfo(arena+hblkhd)
         57120 MiB available memory on the node where the printing process lives
     GPU memory used/free/total (MiB): 2032 / 14248 / 16280
------------------
     ethr =  1.59E-06,  avg # of iterations =  2.0

     total cpu time spent up to now is      282.2 secs

     total energy              =    -952.85966489 Ry
     estimated scf accuracy    <       0.00581543 Ry

     total magnetization       =     3.20 Bohr mag/cell
     absolute magnetization    =     3.30 Bohr mag/cell
[tb_dev] Currently allocated     1.92E+00 Mbytes, locked:    0 /   6
[tb_pin] Currently allocated     0.00E+00 Mbytes, locked:    0 /   0

     iteration # 66     ecut=    60.00 Ry     beta= 0.10
     Davidson diagonalization with overlap

---- Real-time Memory Report at c_bands before calling an iterative solver
          2453 MiB given to the printing process from OS
          1532 MiB allocation reported by mallinfo(arena+hblkhd)
         57115 MiB available memory on the node where the printing process lives
     GPU memory used/free/total (MiB): 2032 / 14248 / 16280
------------------
     ethr =  1.59E-06,  avg # of iterations =  1.0

     total cpu time spent up to now is      286.1 secs

     total energy              =    -952.85934241 Ry
     estimated scf accuracy    <       0.00505927 Ry

     total magnetization       =     3.20 Bohr mag/cell
     absolute magnetization    =     3.30 Bohr mag/cell
[tb_dev] Currently allocated     1.92E+00 Mbytes, locked:    0 /   6
[tb_pin] Currently allocated     0.00E+00 Mbytes, locked:    0 /   0

     iteration # 67     ecut=    60.00 Ry     beta= 0.10
     Davidson diagonalization with overlap

---- Real-time Memory Report at c_bands before calling an iterative solver
          2456 MiB given to the printing process from OS
          1536 MiB allocation reported by mallinfo(arena+hblkhd)
         57110 MiB available memory on the node where the printing process lives
     GPU memory used/free/total (MiB): 2032 / 14248 / 16280
------------------
     ethr =  1.59E-06,  avg # of iterations =  1.0

     total cpu time spent up to now is      290.0 secs

     total energy              =    -952.85984672 Ry
     estimated scf accuracy    <       0.00710372 Ry

     total magnetization       =     3.20 Bohr mag/cell
     absolute magnetization    =     3.31 Bohr mag/cell
[tb_dev] Currently allocated     1.92E+00 Mbytes, locked:    0 /   6
[tb_pin] Currently allocated     0.00E+00 Mbytes, locked:    0 /   0

     iteration # 68     ecut=    60.00 Ry     beta= 0.10
     Davidson diagonalization with overlap

---- Real-time Memory Report at c_bands before calling an iterative solver
          2460 MiB given to the printing process from OS
          1540 MiB allocation reported by mallinfo(arena+hblkhd)
         57105 MiB available memory on the node where the printing process lives
     GPU memory used/free/total (MiB): 2032 / 14248 / 16280
------------------
     ethr =  1.59E-06,  avg # of iterations =  1.0

     total cpu time spent up to now is      294.0 secs

     total energy              =    -952.86003454 Ry
     estimated scf accuracy    <       0.00416298 Ry

     total magnetization       =     3.18 Bohr mag/cell
     absolute magnetization    =     3.28 Bohr mag/cell
[tb_dev] Currently allocated     1.92E+00 Mbytes, locked:    0 /   6
[tb_pin] Currently allocated     0.00E+00 Mbytes, locked:    0 /   0

     iteration # 69     ecut=    60.00 Ry     beta= 0.10
     Davidson diagonalization with overlap

---- Real-time Memory Report at c_bands before calling an iterative solver
          2465 MiB given to the printing process from OS
          1544 MiB allocation reported by mallinfo(arena+hblkhd)
         57102 MiB available memory on the node where the printing process lives
     GPU memory used/free/total (MiB): 2032 / 14248 / 16280
------------------
     ethr =  1.59E-06,  avg # of iterations =  1.0

     total cpu time spent up to now is      297.9 secs

     total energy              =    -952.86042069 Ry
     estimated scf accuracy    <       0.00351824 Ry

     total magnetization       =     3.15 Bohr mag/cell
     absolute magnetization    =     3.25 Bohr mag/cell
[tb_dev] Currently allocated     1.92E+00 Mbytes, locked:    0 /   6
[tb_pin] Currently allocated     0.00E+00 Mbytes, locked:    0 /   0

     iteration # 70     ecut=    60.00 Ry     beta= 0.10
     Davidson diagonalization with overlap

---- Real-time Memory Report at c_bands before calling an iterative solver
          2470 MiB given to the printing process from OS
          1548 MiB allocation reported by mallinfo(arena+hblkhd)
         57098 MiB available memory on the node where the printing process lives
     GPU memory used/free/total (MiB): 2032 / 14248 / 16280
------------------
     ethr =  1.59E-06,  avg # of iterations =  2.0

     total cpu time spent up to now is      302.2 secs

     total energy              =    -952.86098855 Ry
     estimated scf accuracy    <       0.00437295 Ry

     total magnetization       =     2.90 Bohr mag/cell
     absolute magnetization    =     3.00 Bohr mag/cell
[tb_dev] Currently allocated     1.92E+00 Mbytes, locked:    0 /   6
[tb_pin] Currently allocated     0.00E+00 Mbytes, locked:    0 /   0

     iteration # 71     ecut=    60.00 Ry     beta= 0.10
     Davidson diagonalization with overlap

---- Real-time Memory Report at c_bands before calling an iterative solver
          2476 MiB given to the printing process from OS
          1551 MiB allocation reported by mallinfo(arena+hblkhd)
         57091 MiB available memory on the node where the printing process lives
     GPU memory used/free/total (MiB): 2032 / 14248 / 16280
------------------
     ethr =  1.59E-06,  avg # of iterations =  1.0

     total cpu time spent up to now is      306.1 secs

     total energy              =    -952.86011904 Ry
     estimated scf accuracy    <       0.00633878 Ry

     total magnetization       =     2.76 Bohr mag/cell
     absolute magnetization    =     2.86 Bohr mag/cell
[tb_dev] Currently allocated     1.92E+00 Mbytes, locked:    0 /   6
[tb_pin] Currently allocated     0.00E+00 Mbytes, locked:    0 /   0

     iteration # 72     ecut=    60.00 Ry     beta= 0.10
     Davidson diagonalization with overlap

---- Real-time Memory Report at c_bands before calling an iterative solver
          2480 MiB given to the printing process from OS
          1555 MiB allocation reported by mallinfo(arena+hblkhd)
         57088 MiB available memory on the node where the printing process lives
     GPU memory used/free/total (MiB): 2032 / 14248 / 16280
------------------
     ethr =  1.59E-06,  avg # of iterations =  1.9

     total cpu time spent up to now is      310.4 secs

     total energy              =    -952.86002679 Ry
     estimated scf accuracy    <       0.00341061 Ry

     total magnetization       =     3.03 Bohr mag/cell
     absolute magnetization    =     3.13 Bohr mag/cell
[tb_dev] Currently allocated     1.92E+00 Mbytes, locked:    0 /   6
[tb_pin] Currently allocated     0.00E+00 Mbytes, locked:    0 /   0

     iteration # 73     ecut=    60.00 Ry     beta= 0.10
     Davidson diagonalization with overlap

---- Real-time Memory Report at c_bands before calling an iterative solver
          2483 MiB given to the printing process from OS
          1559 MiB allocation reported by mallinfo(arena+hblkhd)
         57081 MiB available memory on the node where the printing process lives
     GPU memory used/free/total (MiB): 2032 / 14248 / 16280
------------------
     ethr =  1.59E-06,  avg # of iterations =  1.0

     total cpu time spent up to now is      314.2 secs

     total energy              =    -952.86023156 Ry
     estimated scf accuracy    <       0.00315795 Ry

     total magnetization       =     3.14 Bohr mag/cell
     absolute magnetization    =     3.24 Bohr mag/cell
[tb_dev] Currently allocated     1.92E+00 Mbytes, locked:    0 /   6
[tb_pin] Currently allocated     0.00E+00 Mbytes, locked:    0 /   0

     iteration # 74     ecut=    60.00 Ry     beta= 0.10
     Davidson diagonalization with overlap

---- Real-time Memory Report at c_bands before calling an iterative solver
          2488 MiB given to the printing process from OS
          1563 MiB allocation reported by mallinfo(arena+hblkhd)
         57077 MiB available memory on the node where the printing process lives
     GPU memory used/free/total (MiB): 2032 / 14248 / 16280
------------------
     ethr =  1.59E-06,  avg # of iterations =  1.0

     total cpu time spent up to now is      318.1 secs

     total energy              =    -952.86034457 Ry
     estimated scf accuracy    <       0.00296870 Ry

     total magnetization       =     3.10 Bohr mag/cell
     absolute magnetization    =     3.20 Bohr mag/cell
[tb_dev] Currently allocated     1.92E+00 Mbytes, locked:    0 /   6
[tb_pin] Currently allocated     0.00E+00 Mbytes, locked:    0 /   0

     iteration # 75     ecut=    60.00 Ry     beta= 0.10
     Davidson diagonalization with overlap

---- Real-time Memory Report at c_bands before calling an iterative solver
          2491 MiB given to the printing process from OS
          1567 MiB allocation reported by mallinfo(arena+hblkhd)
         57075 MiB available memory on the node where the printing process lives
     GPU memory used/free/total (MiB): 2032 / 14248 / 16280
------------------
     ethr =  1.59E-06,  avg # of iterations =  1.0

     total cpu time spent up to now is      322.0 secs

     total energy              =    -952.86009719 Ry
     estimated scf accuracy    <       0.00317859 Ry

     total magnetization       =     3.06 Bohr mag/cell
     absolute magnetization    =     3.16 Bohr mag/cell
[tb_dev] Currently allocated     1.92E+00 Mbytes, locked:    0 /   6
[tb_pin] Currently allocated     0.00E+00 Mbytes, locked:    0 /   0

     iteration # 76     ecut=    60.00 Ry     beta= 0.10
     Davidson diagonalization with overlap

---- Real-time Memory Report at c_bands before calling an iterative solver
          2496 MiB given to the printing process from OS
          1571 MiB allocation reported by mallinfo(arena+hblkhd)
         57072 MiB available memory on the node where the printing process lives
     GPU memory used/free/total (MiB): 2032 / 14248 / 16280
------------------
     ethr =  1.59E-06,  avg # of iterations =  1.0

     total cpu time spent up to now is      325.9 secs

     total energy              =    -952.86005656 Ry
     estimated scf accuracy    <       0.00317986 Ry

     total magnetization       =     3.13 Bohr mag/cell
     absolute magnetization    =     3.23 Bohr mag/cell
[tb_dev] Currently allocated     1.92E+00 Mbytes, locked:    0 /   6
[tb_pin] Currently allocated     0.00E+00 Mbytes, locked:    0 /   0

     iteration # 77     ecut=    60.00 Ry     beta= 0.10
     Davidson diagonalization with overlap

---- Real-time Memory Report at c_bands before calling an iterative solver
          2499 MiB given to the printing process from OS
          1575 MiB allocation reported by mallinfo(arena+hblkhd)
         57069 MiB available memory on the node where the printing process lives
     GPU memory used/free/total (MiB): 2032 / 14248 / 16280
------------------
     ethr =  1.59E-06,  avg # of iterations =  1.0

     total cpu time spent up to now is      329.9 secs

     total energy              =    -952.86043658 Ry
     estimated scf accuracy    <       0.00294725 Ry

     total magnetization       =     3.15 Bohr mag/cell
     absolute magnetization    =     3.25 Bohr mag/cell
[tb_dev] Currently allocated     1.92E+00 Mbytes, locked:    0 /   6
[tb_pin] Currently allocated     0.00E+00 Mbytes, locked:    0 /   0

     iteration # 78     ecut=    60.00 Ry     beta= 0.10
     Davidson diagonalization with overlap

---- Real-time Memory Report at c_bands before calling an iterative solver
          2503 MiB given to the printing process from OS
          1579 MiB allocation reported by mallinfo(arena+hblkhd)
         57062 MiB available memory on the node where the printing process lives
     GPU memory used/free/total (MiB): 2032 / 14248 / 16280
------------------
     ethr =  1.59E-06,  avg # of iterations =  2.0

     total cpu time spent up to now is      334.3 secs

     total energy              =    -952.86095650 Ry
     estimated scf accuracy    <       0.00390068 Ry

     total magnetization       =     2.89 Bohr mag/cell
     absolute magnetization    =     2.99 Bohr mag/cell
[tb_dev] Currently allocated     1.92E+00 Mbytes, locked:    0 /   6
[tb_pin] Currently allocated     0.00E+00 Mbytes, locked:    0 /   0

     iteration # 79     ecut=    60.00 Ry     beta= 0.10
     Davidson diagonalization with overlap

---- Real-time Memory Report at c_bands before calling an iterative solver
          2509 MiB given to the printing process from OS
          1587 MiB allocation reported by mallinfo(arena+hblkhd)
         57056 MiB available memory on the node where the printing process lives
     GPU memory used/free/total (MiB): 2032 / 14248 / 16280
------------------
     ethr =  1.59E-06,  avg # of iterations =  1.0

     total cpu time spent up to now is      338.2 secs

     total energy              =    -952.85801722 Ry
     estimated scf accuracy    <       0.00501557 Ry

     total magnetization       =     2.79 Bohr mag/cell
     absolute magnetization    =     2.88 Bohr mag/cell
[tb_dev] Currently allocated     1.92E+00 Mbytes, locked:    0 /   6
[tb_pin] Currently allocated     0.00E+00 Mbytes, locked:    0 /   0

     iteration # 80     ecut=    60.00 Ry     beta= 0.10
     Davidson diagonalization with overlap

---- Real-time Memory Report at c_bands before calling an iterative solver
          2512 MiB given to the printing process from OS
          1591 MiB allocation reported by mallinfo(arena+hblkhd)
         57054 MiB available memory on the node where the printing process lives
     GPU memory used/free/total (MiB): 2032 / 14248 / 16280
------------------
     ethr =  1.59E-06,  avg # of iterations =  2.1

     total cpu time spent up to now is      342.8 secs

     total energy              =    -952.86005322 Ry
     estimated scf accuracy    <       0.00534674 Ry

     total magnetization       =     3.20 Bohr mag/cell
     absolute magnetization    =     3.30 Bohr mag/cell

     End of self-consistent calculation

     convergence NOT achieved after  80 iterations: stopping

     Writing config to output data dir ./out/aiida.save/
 
     init_run     :     24.42s CPU      3.81s WALL (       1 calls)
     electrons    :   1067.52s CPU    337.92s WALL (       1 calls)

     Called by init_run:
     wfcinit      :      0.30s CPU      0.30s WALL (       1 calls)
                                        0.30s GPU  (       1 calls)
     potinit      :     11.18s CPU      1.15s WALL (       1 calls)
     hinit0       :      7.73s CPU      1.62s WALL (       1 calls)

     Called by electrons:
     c_bands      :    302.30s CPU    221.59s WALL (      80 calls)
     sum_band     :     46.73s CPU     50.80s WALL (      80 calls)
     v_of_rho     :     32.17s CPU      2.95s WALL (      81 calls)
     v_h          :      4.60s CPU      0.40s WALL (      81 calls)
     v_xc         :     27.56s CPU      2.55s WALL (      81 calls)
     newd         :     60.81s CPU      5.87s WALL (      81 calls)
                                        5.87s GPU  (      81 calls)
     PAW_pot      :    591.07s CPU     53.54s WALL (      81 calls)
     mix_rho      :     31.88s CPU      3.12s WALL (      80 calls)

     Called by c_bands:
     init_us_2    :     18.61s CPU     16.71s WALL (   11200 calls)
     init_us_2:gp :     18.36s CPU     16.51s WALL (   11200 calls)
     cegterg      :    253.48s CPU    186.20s WALL (    5600 calls)

     Called by sum_band:
     sum_band:wei :      0.24s CPU      0.24s WALL (      80 calls)
                                        0.24s GPU  (      80 calls)
     sum_band:loo :     38.97s CPU     42.80s WALL (      80 calls)
                                       42.80s GPU  (      80 calls)
     sum_band:buf :      9.65s CPU     10.13s WALL (    5600 calls)
                                       10.10s GPU  (    5600 calls)
     sum_band:ini :      6.96s CPU      8.06s WALL (    5600 calls)
                                        8.03s GPU  (    5600 calls)
     sum_band:cal :      0.16s CPU      1.29s WALL (    5600 calls)
                                        1.04s GPU  (    5600 calls)
     sum_band:bec :      1.66s CPU      1.81s WALL (    5600 calls)
                                        1.78s GPU  (    5600 calls)
     addusdens    :      5.59s CPU      5.81s WALL (      80 calls)
                                        5.81s GPU  (      80 calls)
     addusd:skk   :      0.03s CPU      0.04s WALL (     320 calls)
                                        0.04s GPU  (     320 calls)

     Called by *egterg:
     cdiaghg      :     83.90s CPU     66.37s WALL (   14437 calls)
                                       66.27s GPU  (   14437 calls)
     cegterg:over :      3.76s CPU      2.78s WALL (    8907 calls)
     cegterg:upda :      7.02s CPU      5.22s WALL (    8907 calls)
     cegterg:last :      2.95s CPU      2.24s WALL (    8618 calls)
     h_psi        :    141.14s CPU     99.37s WALL (   14507 calls)
                                       99.17s GPU  (   14507 calls)
     s_psi        :      3.10s CPU      4.49s WALL (   14507 calls)
                                        4.13s GPU  (   14507 calls)
     g_psi        :      0.09s CPU      0.42s WALL (    8907 calls)
                                        0.37s GPU  (    8907 calls)

     Called by h_psi:
     h_psi:calbec :      0.69s CPU      2.80s WALL (   14507 calls)
                                        2.71s GPU  (   14507 calls)
     vloc_psi     :    127.17s CPU     89.84s WALL (   14507 calls)
                                       89.75s GPU  (   14507 calls)
     add_vuspsi   :      4.98s CPU      5.40s WALL (   14507 calls)
                                        5.31s GPU  (   14507 calls)

     General routines
     calbec       :      0.60s CPU      0.45s WALL (   20107 calls)
     fft          :      2.55s CPU      0.51s WALL (    2023 calls)
                                        0.41s GPU  (    1861 calls)
     ffts         :      0.06s CPU      0.05s WALL (     322 calls)
                                        0.01s GPU  (     160 calls)
     fftw         :      3.35s CPU     74.30s WALL (  120066 calls)
                                       73.59s GPU  (  120066 calls)
     interpolate  :      4.35s CPU      0.38s WALL (     162 calls)
     davcio       :      0.52s CPU      0.66s WALL (     158 calls)
 
     Parallel routines

     PAW routines
     PAW_pot      :    591.07s CPU     53.54s WALL (      81 calls)
     PAW_symme    :      1.45s CPU      0.24s WALL (     160 calls)
 
     PWSCF        :  18m15.46s CPU   5m43.30s WALL

 
   This run was terminated on:  21:42: 0  23Oct2023            

=------------------------------------------------------------------------------=
   JOB DONE.
=------------------------------------------------------------------------------=
