
     Program PWSCF v.7.2 starts on 30Nov2023 at  3:59:44 
        Git branch: develop
        Last git commit: 9055681be6fc8200e6fffe76ed5fda34c2696339
        Last git commit date: Wed Nov 8 16:29:39 2023 +0000
        Last git commit subject: Merge branch 'calbec_fix' into 'develop'

     This program is part of the open-source Quantum ESPRESSO suite
     for quantum simulation of materials; please cite
         "P. Giannozzi et al., J. Phys.:Condens. Matter 21 395502 (2009);
         "P. Giannozzi et al., J. Phys.:Condens. Matter 29 465901 (2017);
         "P. Giannozzi et al., J. Chem. Phys. 152 154105 (2020);
          URL http://www.quantum-espresso.org", 
     in publications or presentations arising from this work. More details at
     http://www.quantum-espresso.org/quote

     Parallel version (MPI), running on    56 processors

     MPI processes distributed on     1 nodes
     488016 MiB available memory on the printing compute node when the environment starts

     Reading input from aiida.in

     Current dimensions of program PWSCF are:
     Max number of different atomic species (ntypx) = 10
     Max number of k-points (npk) =  40000
     Max angular momentum in pseudopotentials (lmaxx) =  4
     Message from routine setup:
     using ibrav=0 with symmetry is DISCOURAGED, use correct ibrav instead

     K-points division:     npool     =       7
     R & G space division:  proc/nbgrp/npool/nimage =       8
     Subspace diagonalization in iterative solution of the eigenvalue problem:
     a serial algorithm will be used


     Parallelization info
     --------------------
     sticks:   dense  smooth     PW     G-vecs:    dense   smooth      PW
     Min         191      96     30                 4961     1769     302
     Max         192      97     31                 4964     1771     304
     Sum        1531     769    241                39693    14163    2421

     Using Slab Decomposition



     bravais-lattice index     =            0
     lattice parameter (alat)  =       8.3515  a.u.
     unit-cell volume          =     411.8857 (a.u.)^3
     number of atoms/cell      =            4
     number of atomic types    =            4
     number of electrons       =        42.00
     number of Kohn-Sham states=           29
     kinetic-energy cutoff     =      40.0000  Ry
     charge density cutoff     =     320.0000  Ry
     scf convergence threshold =      8.0E-10
     mixing beta               =       0.4000
     number of iterations used =            8  plain     mixing
     Exchange-correlation= SLA  PW   PSX  PSC
                           (   1   4  10   8   0   0   0)

     celldm(1)=   8.351488  celldm(2)=   0.000000  celldm(3)=   0.000000
     celldm(4)=   0.000000  celldm(5)=   0.000000  celldm(6)=   0.000000

     crystal axes: (cart. coord. in units of alat)
               a(1) = (   0.000000   0.707107   0.707107 )  
               a(2) = (   0.707107   0.000000   0.707107 )  
               a(3) = (   0.707107   0.707107   0.000000 )  

     reciprocal axes: (cart. coord. in units 2 pi/alat)
               b(1) = ( -0.707107  0.707107  0.707107 )  
               b(2) = (  0.707107 -0.707107  0.707107 )  
               b(3) = (  0.707107  0.707107 -0.707107 )  


     PseudoPot. # 1 for Cr read from file:
     ./pseudo/cr_pbesol_v1.5.uspp.F.UPF
     MD5 check sum: a621641e0be27168676a837af8893d0f
     Pseudo is Ultrasoft + core correction, Zval = 14.0
     Generated by new atomic code, or converted to UPF format
     Using radial grid of  857 points,  6 beta functions with: 
                l(1) =   0
                l(2) =   0
                l(3) =   1
                l(4) =   1
                l(5) =   2
                l(6) =   2
     Q(r) pseudized with  8 coefficients,  rinner =    0.950   0.950   0.950
                                                       0.950   0.950

     PseudoPot. # 2 for Si read from file:
     ./pseudo/Si.pbesol-n-rrkjus_psl.1.0.0.UPF
     MD5 check sum: c4212819de858c94c3a1644338846ac9
     Pseudo is Ultrasoft + core correction, Zval =  4.0
     Generated using "atomic" code by A. Dal Corso  v.6.0 svn rev. 13079
     Using radial grid of 1141 points,  6 beta functions with: 
                l(1) =   0
                l(2) =   0
                l(3) =   1
                l(4) =   1
                l(5) =   2
                l(6) =   2
     Q(r) pseudized with 0 coefficients 


     PseudoPot. # 3 for V  read from file:
     ./pseudo/v_pbesol_v1.4.uspp.F.UPF
     MD5 check sum: 72fa7d0034c41d8adc50bbc8c632b9f9
     Pseudo is Ultrasoft + core correction, Zval = 13.0
     Generated by new atomic code, or converted to UPF format
     Using radial grid of  853 points,  6 beta functions with: 
                l(1) =   0
                l(2) =   0
                l(3) =   1
                l(4) =   1
                l(5) =   2
                l(6) =   2
     Q(r) pseudized with  8 coefficients,  rinner =    1.100   1.100   1.100
                                                       1.100   1.100

     PseudoPot. # 4 for Y  read from file:
     ./pseudo/y_pbesol_v1.4.uspp.F.UPF
     MD5 check sum: dac24993bfd4491f22c7b9129ad9e93d
     Pseudo is Ultrasoft + core correction, Zval = 11.0
     Generated by new atomic code, or converted to UPF format
     Using radial grid of  885 points,  6 beta functions with: 
                l(1) =   0
                l(2) =   0
                l(3) =   1
                l(4) =   1
                l(5) =   2
                l(6) =   2
     Q(r) pseudized with  8 coefficients,  rinner =    1.200   1.200   1.200
                                                       1.200   1.200

     atomic species   valence    mass     pseudopotential
     Cr               14.00    51.99610     Cr( 1.00)
     Si                4.00    28.08550     Si( 1.00)
     V                13.00    50.94150     V ( 1.00)
     Y                11.00    88.90585     Y ( 1.00)

     Starting magnetic structure 
     atomic species   magnetization
     Cr              0.357
     Si              0.100
     V               0.385
     Y               0.455

     24 Sym. Ops. (no inversion) found


                                    s                        frac. trans.

      isym =  1     identity                                     

 cryst.   s( 1) = (     1          0          0      )
                  (     0          1          0      )
                  (     0          0          1      )

 cart.    s( 1) = (  1.0000000 -0.0000000  0.0000000 )
                  ( -0.0000000  1.0000000  0.0000000 )
                  ( -0.0000000  0.0000000  1.0000000 )


      isym =  2     180 deg rotation - cart. axis [0,0,1]        

 cryst.   s( 2) = (     0          1         -1      )
                  (     1          0         -1      )
                  (     0          0         -1      )

 cart.    s( 2) = ( -1.0000000  0.0000000  0.0000000 )
                  (  0.0000000 -1.0000000  0.0000000 )
                  (  0.0000000 -0.0000000  1.0000000 )


      isym =  3     180 deg rotation - cart. axis [0,1,0]        

 cryst.   s( 3) = (     0         -1          1      )
                  (     0         -1          0      )
                  (     1         -1          0      )

 cart.    s( 3) = ( -1.0000000 -0.0000000 -0.0000000 )
                  (  0.0000000  1.0000000 -0.0000000 )
                  (  0.0000000  0.0000000 -1.0000000 )


      isym =  4     180 deg rotation - cart. axis [1,0,0]        

 cryst.   s( 4) = (    -1          0          0      )
                  (    -1          0          1      )
                  (    -1          1          0      )

 cart.    s( 4) = (  1.0000000  0.0000000 -0.0000000 )
                  ( -0.0000000 -1.0000000 -0.0000000 )
                  ( -0.0000000 -0.0000000 -1.0000000 )


      isym =  5     120 deg rotation - cart. axis [-1,-1,-1]     

 cryst.   s( 5) = (     0          0          1      )
                  (     1          0          0      )
                  (     0          1          0      )

 cart.    s( 5) = (  0.0000000  1.0000000 -0.0000000 )
                  (  0.0000000 -0.0000000  1.0000000 )
                  (  1.0000000 -0.0000000  0.0000000 )


      isym =  6     120 deg rotation - cart. axis [-1,1,1]       

 cryst.   s( 6) = (     1         -1          0      )
                  (     0         -1          1      )
                  (     0         -1          0      )

 cart.    s( 6) = ( -0.0000000 -1.0000000 -0.0000000 )
                  ( -0.0000000  0.0000000  1.0000000 )
                  ( -1.0000000  0.0000000  0.0000000 )


      isym =  7     120 deg rotation - cart. axis [1,1,-1]       

 cryst.   s( 7) = (    -1          1          0      )
                  (    -1          0          0      )
                  (    -1          0          1      )

 cart.    s( 7) = ( -0.0000000  1.0000000  0.0000000 )
                  ( -0.0000000 -0.0000000 -1.0000000 )
                  ( -1.0000000 -0.0000000 -0.0000000 )


      isym =  8     120 deg rotation - cart. axis [1,-1,1]       

 cryst.   s( 8) = (     0          0         -1      )
                  (     0          1         -1      )
                  (     1          0         -1      )

 cart.    s( 8) = (  0.0000000 -1.0000000  0.0000000 )
                  (  0.0000000  0.0000000 -1.0000000 )
                  (  1.0000000  0.0000000 -0.0000000 )


      isym =  9     120 deg rotation - cart. axis [1,1,1]        

 cryst.   s( 9) = (     0          1          0      )
                  (     0          0          1      )
                  (     1          0          0      )

 cart.    s( 9) = ( -0.0000000  0.0000000  1.0000000 )
                  (  1.0000000  0.0000000 -0.0000000 )
                  (  0.0000000  1.0000000 -0.0000000 )


      isym = 10     120 deg rotation - cart. axis [-1,1,-1]      

 cryst.   s(10) = (    -1          0          1      )
                  (    -1          1          0      )
                  (    -1          0          0      )

 cart.    s(10) = (  0.0000000 -0.0000000  1.0000000 )
                  ( -1.0000000 -0.0000000 -0.0000000 )
                  ( -0.0000000 -1.0000000 -0.0000000 )


      isym = 11     120 deg rotation - cart. axis [1,-1,-1]      

 cryst.   s(11) = (     1          0         -1      )
                  (     0          0         -1      )
                  (     0          1         -1      )

 cart.    s(11) = (  0.0000000  0.0000000 -1.0000000 )
                  ( -1.0000000  0.0000000  0.0000000 )
                  ( -0.0000000  1.0000000  0.0000000 )


      isym = 12     120 deg rotation - cart. axis [-1,-1,1]      

 cryst.   s(12) = (     0         -1          0      )
                  (     1         -1          0      )
                  (     0         -1          1      )

 cart.    s(12) = ( -0.0000000 -0.0000000 -1.0000000 )
                  (  1.0000000 -0.0000000  0.0000000 )
                  (  0.0000000 -1.0000000  0.0000000 )


      isym = 13     inv. 180 deg rotation - cart. axis [1,1,0]   

 cryst.   s(13) = (     1          0         -1      )
                  (     0          1         -1      )
                  (     0          0         -1      )

 cart.    s(13) = (  0.0000000 -1.0000000  0.0000000 )
                  ( -1.0000000  0.0000000  0.0000000 )
                  ( -0.0000000  0.0000000  1.0000000 )


      isym = 14     inv. 180 deg rotation - cart. axis [1,-1,0]  

 cryst.   s(14) = (     0          1          0      )
                  (     1          0          0      )
                  (     0          0          1      )

 cart.    s(14) = ( -0.0000000  1.0000000  0.0000000 )
                  (  1.0000000 -0.0000000  0.0000000 )
                  (  0.0000000 -0.0000000  1.0000000 )


      isym = 15     inv.  90 deg rotation - cart. axis [0,0,-1]  

 cryst.   s(15) = (     0         -1          0      )
                  (     0         -1          1      )
                  (     1         -1          0      )

 cart.    s(15) = ( -0.0000000 -1.0000000 -0.0000000 )
                  (  1.0000000  0.0000000 -0.0000000 )
                  (  0.0000000  0.0000000 -1.0000000 )


      isym = 16     inv.  90 deg rotation - cart. axis [0,0,1]   

 cryst.   s(16) = (    -1          0          1      )
                  (    -1          0          0      )
                  (    -1          1          0      )

 cart.    s(16) = (  0.0000000  1.0000000 -0.0000000 )
                  ( -1.0000000 -0.0000000 -0.0000000 )
                  ( -0.0000000 -0.0000000 -1.0000000 )


      isym = 17     inv. 180 deg rotation - cart. axis [1,0,1]   

 cryst.   s(17) = (     1         -1          0      )
                  (     0         -1          0      )
                  (     0         -1          1      )

 cart.    s(17) = ( -0.0000000 -0.0000000 -1.0000000 )
                  ( -0.0000000  1.0000000  0.0000000 )
                  ( -1.0000000  0.0000000  0.0000000 )


      isym = 18     inv. 180 deg rotation - cart. axis [-1,0,1]  

 cryst.   s(18) = (     0          0          1      )
                  (     0          1          0      )
                  (     1          0          0      )

 cart.    s(18) = (  0.0000000 -0.0000000  1.0000000 )
                  (  0.0000000  1.0000000 -0.0000000 )
                  (  1.0000000  0.0000000 -0.0000000 )


      isym = 19     inv.  90 deg rotation - cart. axis [0,1,0]   

 cryst.   s(19) = (     0          0         -1      )
                  (     1          0         -1      )
                  (     0          1         -1      )

 cart.    s(19) = (  0.0000000  0.0000000 -1.0000000 )
                  (  0.0000000 -1.0000000  0.0000000 )
                  (  1.0000000 -0.0000000  0.0000000 )


      isym = 20     inv.  90 deg rotation - cart. axis [0,-1,0]  

 cryst.   s(20) = (    -1          1          0      )
                  (    -1          0          1      )
                  (    -1          0          0      )

 cart.    s(20) = ( -0.0000000  0.0000000  1.0000000 )
                  ( -0.0000000 -1.0000000 -0.0000000 )
                  ( -1.0000000 -0.0000000 -0.0000000 )


      isym = 21     inv. 180 deg rotation - cart. axis [0,1,1]   

 cryst.   s(21) = (    -1          0          0      )
                  (    -1          1          0      )
                  (    -1          0          1      )

 cart.    s(21) = (  1.0000000 -0.0000000  0.0000000 )
                  ( -0.0000000 -0.0000000 -1.0000000 )
                  ( -0.0000000 -1.0000000 -0.0000000 )


      isym = 22     inv. 180 deg rotation - cart. axis [0,1,-1]  

 cryst.   s(22) = (     1          0          0      )
                  (     0          0          1      )
                  (     0          1          0      )

 cart.    s(22) = (  1.0000000  0.0000000 -0.0000000 )
                  ( -0.0000000  0.0000000  1.0000000 )
                  ( -0.0000000  1.0000000  0.0000000 )


      isym = 23     inv.  90 deg rotation - cart. axis [-1,0,0]  

 cryst.   s(23) = (     0          1         -1      )
                  (     0          0         -1      )
                  (     1          0         -1      )

 cart.    s(23) = ( -1.0000000  0.0000000  0.0000000 )
                  (  0.0000000  0.0000000 -1.0000000 )
                  (  0.0000000  1.0000000 -0.0000000 )


      isym = 24     inv.  90 deg rotation - cart. axis [1,0,0]   

 cryst.   s(24) = (     0         -1          1      )
                  (     1         -1          0      )
                  (     0         -1          0      )

 cart.    s(24) = ( -1.0000000 -0.0000000 -0.0000000 )
                  (  0.0000000 -0.0000000  1.0000000 )
                  (  0.0000000 -1.0000000  0.0000000 )


   Cartesian axes

     site n.     atom                  positions (alat units)
         1        Y      tau(   1) = (   0.3535534   0.3535534   0.3535534  )
         2        V      tau(   2) = (   0.7071068   0.0000000   0.0000000  )
         3        Cr     tau(   3) = (   0.0000000   0.0000000   0.0000000  )
         4        Si     tau(   4) = (   0.3535534   0.3535534   1.0606602  )

   Crystallographic axes

     site n.     atom                  positions (cryst. coord.)
         1        Y      tau(   1) = (  0.2500000  0.2500000  0.2500000  )
         2        V      tau(   2) = ( -0.5000000  0.5000000  0.5000000  )
         3        Cr     tau(   3) = (  0.0000000  0.0000000  0.0000000  )
         4        Si     tau(   4) = (  0.7500000  0.7500000 -0.2500000  )

     number of k points=    72  Marzari-Vanderbilt smearing, width (Ry)=  0.0200
                       cart. coord. in units 2pi/alat
        k(    1) = (   0.0000000   0.0000000   0.0000000), wk =   0.0005787
        k(    2) = (   0.0589256   0.0589256  -0.0589256), wk =   0.0046296
        k(    3) = (   0.1178511   0.1178511  -0.1178511), wk =   0.0046296
        k(    4) = (   0.1767767   0.1767767  -0.1767767), wk =   0.0046296
        k(    5) = (   0.2357023   0.2357023  -0.2357023), wk =   0.0046296
        k(    6) = (   0.2946278   0.2946278  -0.2946278), wk =   0.0046296
        k(    7) = (  -0.3535534  -0.3535534   0.3535534), wk =   0.0023148
        k(    8) = (   0.1178511   0.0000000  -0.0000000), wk =   0.0034722
        k(    9) = (   0.1767767   0.0589256  -0.0589256), wk =   0.0138889
        k(   10) = (   0.2357023   0.1178511  -0.1178511), wk =   0.0138889
        k(   11) = (   0.2946278   0.1767767  -0.1767767), wk =   0.0138889
        k(   12) = (   0.3535534   0.2357023  -0.2357023), wk =   0.0138889
        k(   13) = (  -0.2946278  -0.4124790   0.4124790), wk =   0.0138889
        k(   14) = (  -0.2357023  -0.3535534   0.3535534), wk =   0.0138889
        k(   15) = (  -0.1767767  -0.2946278   0.2946278), wk =   0.0138889
        k(   16) = (  -0.1178511  -0.2357023   0.2357023), wk =   0.0138889
        k(   17) = (  -0.0589256  -0.1767767   0.1767767), wk =   0.0138889
        k(   18) = (  -0.0000000  -0.1178511   0.1178511), wk =   0.0069444
        k(   19) = (   0.2357023   0.0000000  -0.0000000), wk =   0.0034722
        k(   20) = (   0.2946278   0.0589256  -0.0589256), wk =   0.0138889
        k(   21) = (   0.3535534   0.1178511  -0.1178511), wk =   0.0138889
        k(   22) = (   0.4124790   0.1767767  -0.1767767), wk =   0.0138889
        k(   23) = (  -0.2357023  -0.4714045   0.4714045), wk =   0.0138889
        k(   24) = (  -0.1767767  -0.4124790   0.4124790), wk =   0.0138889
        k(   25) = (  -0.1178511  -0.3535534   0.3535534), wk =   0.0138889
        k(   26) = (  -0.0589256  -0.2946278   0.2946278), wk =   0.0138889
        k(   27) = (   0.0000000  -0.2357023   0.2357023), wk =   0.0069444
        k(   28) = (   0.3535534   0.0000000   0.0000000), wk =   0.0034722
        k(   29) = (   0.4124790   0.0589256  -0.0589256), wk =   0.0138889
        k(   30) = (   0.4714045   0.1178511  -0.1178511), wk =   0.0138889
        k(   31) = (  -0.1767767  -0.5303301   0.5303301), wk =   0.0138889
        k(   32) = (  -0.1178511  -0.4714045   0.4714045), wk =   0.0138889
        k(   33) = (  -0.0589256  -0.4124790   0.4124790), wk =   0.0138889
        k(   34) = (   0.0000000  -0.3535534   0.3535534), wk =   0.0069444
        k(   35) = (   0.4714045   0.0000000  -0.0000000), wk =   0.0034722
        k(   36) = (   0.5303301   0.0589256  -0.0589256), wk =   0.0138889
        k(   37) = (  -0.1178511  -0.5892557   0.5892557), wk =   0.0138889
        k(   38) = (  -0.0589256  -0.5303301   0.5303301), wk =   0.0138889
        k(   39) = (  -0.0000000  -0.4714045   0.4714045), wk =   0.0069444
        k(   40) = (   0.5892557   0.0000000  -0.0000000), wk =   0.0034722
        k(   41) = (  -0.0589256  -0.6481812   0.6481812), wk =   0.0138889
        k(   42) = (   0.0000000  -0.5892557   0.5892557), wk =   0.0069444
        k(   43) = (  -0.7071068   0.0000000   0.0000000), wk =   0.0017361
        k(   44) = (   0.2357023   0.1178511   0.0000000), wk =   0.0138889
        k(   45) = (   0.2946278   0.1767767  -0.0589256), wk =   0.0277778
        k(   46) = (   0.3535534   0.2357023  -0.1178511), wk =   0.0277778
        k(   47) = (  -0.2946278  -0.4124790   0.5303301), wk =   0.0277778
        k(   48) = (  -0.2357023  -0.3535534   0.4714045), wk =   0.0138889
        k(   49) = (   0.3535534   0.1178511   0.0000000), wk =   0.0138889
        k(   50) = (   0.4124790   0.1767767  -0.0589256), wk =   0.0277778
        k(   51) = (  -0.2357023  -0.4714045   0.5892557), wk =   0.0277778
        k(   52) = (  -0.1767767  -0.4124790   0.5303301), wk =   0.0277778
        k(   53) = (  -0.1178511  -0.3535534   0.4714045), wk =   0.0277778
        k(   54) = (  -0.0589256  -0.2946278   0.4124790), wk =   0.0277778
        k(   55) = (   0.0000000  -0.2357023   0.3535534), wk =   0.0138889
        k(   56) = (   0.4714045   0.1178511  -0.0000000), wk =   0.0138889
        k(   57) = (  -0.1767767  -0.5303301   0.6481812), wk =   0.0277778
        k(   58) = (  -0.1178511  -0.4714045   0.5892557), wk =   0.0277778
        k(   59) = (  -0.0589256  -0.4124790   0.5303301), wk =   0.0277778
        k(   60) = (  -0.0000000  -0.3535534   0.4714045), wk =   0.0138889
        k(   61) = (  -0.1178511  -0.5892557   0.7071068), wk =   0.0138889
        k(   62) = (  -0.0589256  -0.5303301   0.6481812), wk =   0.0277778
        k(   63) = (  -0.0000000  -0.4714045   0.5892557), wk =   0.0138889
        k(   64) = (  -0.7071068   0.1178511  -0.0000000), wk =   0.0069444
        k(   65) = (  -0.2357023  -0.4714045   0.7071068), wk =   0.0138889
        k(   66) = (  -0.1767767  -0.4124790   0.6481812), wk =   0.0277778
        k(   67) = (  -0.1178511  -0.3535534   0.5892557), wk =   0.0138889
        k(   68) = (  -0.1178511  -0.4714045   0.7071068), wk =   0.0138889
        k(   69) = (  -0.0589256  -0.4124790   0.6481812), wk =   0.0277778
        k(   70) = (   0.0000000  -0.3535534   0.5892557), wk =   0.0138889
        k(   71) = (  -0.7071068   0.2357023   0.0000000), wk =   0.0069444
        k(   72) = (  -0.7071068   0.3535534   0.0000000), wk =   0.0034722

                       cryst. coord.
        k(    1) = (   0.0000000   0.0000000   0.0000000), wk =   0.0005787
        k(    2) = (   0.0000000   0.0000000   0.0833333), wk =   0.0046296
        k(    3) = (   0.0000000   0.0000000   0.1666667), wk =   0.0046296
        k(    4) = (   0.0000000   0.0000000   0.2500000), wk =   0.0046296
        k(    5) = (   0.0000000   0.0000000   0.3333333), wk =   0.0046296
        k(    6) = (  -0.0000000  -0.0000000   0.4166667), wk =   0.0046296
        k(    7) = (  -0.0000000  -0.0000000  -0.5000000), wk =   0.0023148
        k(    8) = (  -0.0000000   0.0833333   0.0833333), wk =   0.0034722
        k(    9) = (   0.0000000   0.0833333   0.1666667), wk =   0.0138889
        k(   10) = (  -0.0000000   0.0833333   0.2500000), wk =   0.0138889
        k(   11) = (   0.0000000   0.0833333   0.3333333), wk =   0.0138889
        k(   12) = (  -0.0000000   0.0833333   0.4166667), wk =   0.0138889
        k(   13) = (  -0.0000000   0.0833333  -0.5000000), wk =   0.0138889
        k(   14) = (   0.0000000   0.0833333  -0.4166667), wk =   0.0138889
        k(   15) = (  -0.0000000   0.0833333  -0.3333333), wk =   0.0138889
        k(   16) = (  -0.0000000   0.0833333  -0.2500000), wk =   0.0138889
        k(   17) = (   0.0000000   0.0833333  -0.1666667), wk =   0.0138889
        k(   18) = (   0.0000000   0.0833333  -0.0833333), wk =   0.0069444
        k(   19) = (  -0.0000000   0.1666667   0.1666667), wk =   0.0034722
        k(   20) = (  -0.0000000   0.1666667   0.2500000), wk =   0.0138889
        k(   21) = (   0.0000000   0.1666667   0.3333333), wk =   0.0138889
        k(   22) = (   0.0000000   0.1666667   0.4166667), wk =   0.0138889
        k(   23) = (  -0.0000000   0.1666667  -0.5000000), wk =   0.0138889
        k(   24) = (  -0.0000000   0.1666667  -0.4166667), wk =   0.0138889
        k(   25) = (  -0.0000000   0.1666667  -0.3333333), wk =   0.0138889
        k(   26) = (   0.0000000   0.1666667  -0.2500000), wk =   0.0138889
        k(   27) = (   0.0000000   0.1666667  -0.1666667), wk =   0.0069444
        k(   28) = (   0.0000000   0.2500000   0.2500000), wk =   0.0034722
        k(   29) = (  -0.0000000   0.2500000   0.3333333), wk =   0.0138889
        k(   30) = (  -0.0000000   0.2500000   0.4166667), wk =   0.0138889
        k(   31) = (   0.0000000   0.2500000  -0.5000000), wk =   0.0138889
        k(   32) = (  -0.0000000   0.2500000  -0.4166667), wk =   0.0138889
        k(   33) = (  -0.0000000   0.2500000  -0.3333333), wk =   0.0138889
        k(   34) = (  -0.0000000   0.2500000  -0.2500000), wk =   0.0069444
        k(   35) = (  -0.0000000   0.3333333   0.3333333), wk =   0.0034722
        k(   36) = (  -0.0000000   0.3333333   0.4166667), wk =   0.0138889
        k(   37) = (   0.0000000   0.3333333  -0.5000000), wk =   0.0138889
        k(   38) = (  -0.0000000   0.3333333  -0.4166667), wk =   0.0138889
        k(   39) = (   0.0000000   0.3333333  -0.3333333), wk =   0.0069444
        k(   40) = (   0.0000000   0.4166667   0.4166667), wk =   0.0034722
        k(   41) = (   0.0000000   0.4166667  -0.5000000), wk =   0.0138889
        k(   42) = (   0.0000000   0.4166667  -0.4166667), wk =   0.0069444
        k(   43) = (   0.0000000  -0.5000000  -0.5000000), wk =   0.0017361
        k(   44) = (   0.0833333   0.1666667   0.2500000), wk =   0.0138889
        k(   45) = (   0.0833333   0.1666667   0.3333333), wk =   0.0277778
        k(   46) = (   0.0833333   0.1666667   0.4166667), wk =   0.0277778
        k(   47) = (   0.0833333   0.1666667  -0.5000000), wk =   0.0277778
        k(   48) = (   0.0833333   0.1666667  -0.4166667), wk =   0.0138889
        k(   49) = (   0.0833333   0.2500000   0.3333333), wk =   0.0138889
        k(   50) = (   0.0833333   0.2500000   0.4166667), wk =   0.0277778
        k(   51) = (   0.0833333   0.2500000  -0.5000000), wk =   0.0277778
        k(   52) = (   0.0833333   0.2500000  -0.4166667), wk =   0.0277778
        k(   53) = (   0.0833333   0.2500000  -0.3333333), wk =   0.0277778
        k(   54) = (   0.0833333   0.2500000  -0.2500000), wk =   0.0277778
        k(   55) = (   0.0833333   0.2500000  -0.1666667), wk =   0.0138889
        k(   56) = (   0.0833333   0.3333333   0.4166667), wk =   0.0138889
        k(   57) = (   0.0833333   0.3333333  -0.5000000), wk =   0.0277778
        k(   58) = (   0.0833333   0.3333333  -0.4166667), wk =   0.0277778
        k(   59) = (   0.0833333   0.3333333  -0.3333333), wk =   0.0277778
        k(   60) = (   0.0833333   0.3333333  -0.2500000), wk =   0.0138889
        k(   61) = (   0.0833333   0.4166667  -0.5000000), wk =   0.0138889
        k(   62) = (   0.0833333   0.4166667  -0.4166667), wk =   0.0277778
        k(   63) = (   0.0833333   0.4166667  -0.3333333), wk =   0.0138889
        k(   64) = (   0.0833333  -0.5000000  -0.4166667), wk =   0.0069444
        k(   65) = (   0.1666667   0.3333333  -0.5000000), wk =   0.0138889
        k(   66) = (   0.1666667   0.3333333  -0.4166667), wk =   0.0277778
        k(   67) = (   0.1666667   0.3333333  -0.3333333), wk =   0.0138889
        k(   68) = (   0.1666667   0.4166667  -0.4166667), wk =   0.0138889
        k(   69) = (   0.1666667   0.4166667  -0.3333333), wk =   0.0277778
        k(   70) = (   0.1666667   0.4166667  -0.2500000), wk =   0.0138889
        k(   71) = (   0.1666667  -0.5000000  -0.3333333), wk =   0.0069444
        k(   72) = (   0.2500000  -0.5000000  -0.2500000), wk =   0.0034722

     Dense  grid:    39693 G-vectors     FFT dimensions: (  48,  48,  48)

     Smooth grid:    14163 G-vectors     FFT dimensions: (  36,  36,  36)

     Dynamical RAM for                 wfc:       0.10 MB

     Dynamical RAM for     wfc (w. buffer):       2.14 MB

     Dynamical RAM for           str. fact:       0.30 MB

     Dynamical RAM for           local pot:       0.00 MB

     Dynamical RAM for          nlocal pot:       0.24 MB

     Dynamical RAM for                qrad:       5.74 MB

     Dynamical RAM for          rho,v,vnew:       1.09 MB

     Dynamical RAM for               rhoin:       0.36 MB

     Dynamical RAM for            rho*nmix:       2.42 MB

     Dynamical RAM for           G-vectors:       0.30 MB

     Dynamical RAM for          h,s,v(r/c):       0.15 MB

     Dynamical RAM for          <psi|beta>:       0.03 MB

     Dynamical RAM for                 phi:       0.39 MB

     Dynamical RAM for                hphi:       0.39 MB

     Dynamical RAM for                sphi:       0.39 MB

     Dynamical RAM for                hpsi:       0.10 MB

     Dynamical RAM for                spsi:       0.10 MB

     Dynamical RAM for                kpsi:       0.10 MB

     Dynamical RAM for               hkpsi:       0.10 MB

     Dynamical RAM for               skpsi:       0.10 MB

     Dynamical RAM for      wfcinit/wfcrot:       0.28 MB

     Dynamical RAM for           addusdens:       2.16 MB

     Dynamical RAM for          addusforce:       2.11 MB

     Dynamical RAM for         addusstress:       2.26 MB

     Estimated static dynamical RAM per process >      11.19 MB

     Estimated max dynamical RAM per process >      15.87 MB

     Estimated total dynamical RAM >     772.20 MB

     Check: negative core charge=   -0.000004
     Generating pointlists ...
     new r_m :   0.2526 (alat units)  2.1096 (a.u.) for type    1
     new r_m :   0.2526 (alat units)  2.1096 (a.u.) for type    2
     new r_m :   0.2526 (alat units)  2.1096 (a.u.) for type    3
     new r_m :   0.2526 (alat units)  2.1096 (a.u.) for type    4

     The initial density is read from file :
     ./out/aiida.save/charge-density


     negative rho (up, down):  2.485E-04 1.581E-03
     Starting wfcs are   37 randomized atomic wfcs

     total cpu time spent up to now is        2.1 secs

     per-process dynamical memory:    23.1 Mb

     Self-consistent Calculation

     iteration #  1     ecut=    40.00 Ry     beta= 0.40
     ParO style diagonalization

---- Real-time Memory Report at c_bands before calling an iterative solver
            60 MiB given to the printing process from OS
            22 MiB allocation reported by mallinfo(arena+hblkhd)
        486792 MiB available memory on the node where the printing process lives
------------------
     ethr =  1.00E-05,  avg # of iterations = 13.0

     negative rho (up, down):  2.594E-04 1.569E-03

     total cpu time spent up to now is        4.1 secs

     total energy              =    -424.30373577 Ry
     estimated scf accuracy    <       0.00042441 Ry

     total magnetization       =     2.71 Bohr mag/cell
     absolute magnetization    =     2.88 Bohr mag/cell

     iteration #  2     ecut=    40.00 Ry     beta= 0.40
     RMM-DIIS diagonalization

---- Real-time Memory Report at c_bands before calling an iterative solver
            65 MiB given to the printing process from OS
            25 MiB allocation reported by mallinfo(arena+hblkhd)
        486615 MiB available memory on the node where the printing process lives
------------------
     ethr =  1.01E-06,  avg # of iterations =  2.7

     negative rho (up, down):  2.613E-04 1.567E-03

     total cpu time spent up to now is        4.5 secs

     total energy              =    -424.30380105 Ry
     estimated scf accuracy    <       0.00490118 Ry

     total magnetization       =     2.55 Bohr mag/cell
     absolute magnetization    =     2.74 Bohr mag/cell

     iteration #  3     ecut=    40.00 Ry     beta= 0.40
     RMM-DIIS diagonalization

---- Real-time Memory Report at c_bands before calling an iterative solver
            65 MiB given to the printing process from OS
            26 MiB allocation reported by mallinfo(arena+hblkhd)
        486611 MiB available memory on the node where the printing process lives
------------------
     ethr =  1.01E-06,  avg # of iterations =  2.5

     negative rho (up, down):  2.576E-04 1.570E-03

     total cpu time spent up to now is        4.9 secs

     total energy              =    -424.30379941 Ry
     estimated scf accuracy    <       0.00071357 Ry

     total magnetization       =     2.58 Bohr mag/cell
     absolute magnetization    =     2.76 Bohr mag/cell

     iteration #  4     ecut=    40.00 Ry     beta= 0.40
     RMM-DIIS diagonalization

---- Real-time Memory Report at c_bands before calling an iterative solver
            65 MiB given to the printing process from OS
            26 MiB allocation reported by mallinfo(arena+hblkhd)
        486609 MiB available memory on the node where the printing process lives
------------------
     ethr =  1.01E-06,  avg # of iterations =  2.5

     negative rho (up, down):  1.882E-04 1.631E-03

     total cpu time spent up to now is        5.2 secs

     total energy              =    -424.29920722 Ry
     estimated scf accuracy    <       0.00070027 Ry

     total magnetization       =     2.60 Bohr mag/cell
     absolute magnetization    =     2.78 Bohr mag/cell

     iteration #  5     ecut=    40.00 Ry     beta= 0.40
     RMM-DIIS diagonalization

---- Real-time Memory Report at c_bands before calling an iterative solver
            66 MiB given to the printing process from OS
            26 MiB allocation reported by mallinfo(arena+hblkhd)
        486609 MiB available memory on the node where the printing process lives
------------------
     ethr =  1.01E-06,  avg # of iterations =  3.4

     negative rho (up, down):  1.560E-04 1.659E-03

     total cpu time spent up to now is        5.7 secs

     total energy              =    -424.30055976 Ry
     estimated scf accuracy    <       0.00063766 Ry

     total magnetization       =     3.10 Bohr mag/cell
     absolute magnetization    =     3.25 Bohr mag/cell

     iteration #  6     ecut=    40.00 Ry     beta= 0.40
     ParO style diagonalization

---- Real-time Memory Report at c_bands before calling an iterative solver
            66 MiB given to the printing process from OS
            26 MiB allocation reported by mallinfo(arena+hblkhd)
        486607 MiB available memory on the node where the printing process lives
------------------
     ethr =  1.01E-06,  avg # of iterations =  7.8

     negative rho (up, down):  1.844E-04 1.635E-03

     total cpu time spent up to now is        7.0 secs

     total energy              =    -424.30149932 Ry
     estimated scf accuracy    <       0.00060360 Ry

     total magnetization       =     3.31 Bohr mag/cell
     absolute magnetization    =     3.47 Bohr mag/cell

     iteration #  7     ecut=    40.00 Ry     beta= 0.40
     RMM-DIIS diagonalization

---- Real-time Memory Report at c_bands before calling an iterative solver
            66 MiB given to the printing process from OS
            26 MiB allocation reported by mallinfo(arena+hblkhd)
        486604 MiB available memory on the node where the printing process lives
------------------
     ethr =  1.01E-06,  avg # of iterations =  2.7

     negative rho (up, down):  4.136E-04 1.443E-03

     total cpu time spent up to now is        7.4 secs

     total energy              =    -424.27962655 Ry
     estimated scf accuracy    <       0.00110689 Ry

     total magnetization       =     3.10 Bohr mag/cell
     absolute magnetization    =     3.27 Bohr mag/cell

     iteration #  8     ecut=    40.00 Ry     beta= 0.40
     RMM-DIIS diagonalization

---- Real-time Memory Report at c_bands before calling an iterative solver
            66 MiB given to the printing process from OS
            26 MiB allocation reported by mallinfo(arena+hblkhd)
        486603 MiB available memory on the node where the printing process lives
------------------
     ethr =  1.01E-06,  avg # of iterations =  4.4

     negative rho (up, down):  1.533E-04 1.662E-03

     total cpu time spent up to now is        7.9 secs

     total energy              =    -424.25166812 Ry
     estimated scf accuracy    <       0.00821125 Ry

     total magnetization       =     1.14 Bohr mag/cell
     absolute magnetization    =     3.09 Bohr mag/cell

     iteration #  9     ecut=    40.00 Ry     beta= 0.40
     RMM-DIIS diagonalization

---- Real-time Memory Report at c_bands before calling an iterative solver
            66 MiB given to the printing process from OS
            26 MiB allocation reported by mallinfo(arena+hblkhd)
        486589 MiB available memory on the node where the printing process lives
------------------
     ethr =  1.01E-06,  avg # of iterations =  4.3

     negative rho (up, down):  1.054E-04 1.702E-03

     total cpu time spent up to now is        8.5 secs

     total energy              =    -424.29845906 Ry
     estimated scf accuracy    <       0.00040831 Ry

     total magnetization       =     3.38 Bohr mag/cell
     absolute magnetization    =     3.53 Bohr mag/cell

     iteration # 10     ecut=    40.00 Ry     beta= 0.40
     RMM-DIIS diagonalization

---- Real-time Memory Report at c_bands before calling an iterative solver
            67 MiB given to the printing process from OS
            26 MiB allocation reported by mallinfo(arena+hblkhd)
        486587 MiB available memory on the node where the printing process lives
------------------
     ethr =  9.72E-07,  avg # of iterations =  3.7

     negative rho (up, down):  7.730E-05 1.725E-03

     total cpu time spent up to now is        9.0 secs

     total energy              =    -424.29841600 Ry
     estimated scf accuracy    <       0.00058460 Ry

     total magnetization       =     3.67 Bohr mag/cell
     absolute magnetization    =     3.82 Bohr mag/cell

     iteration # 11     ecut=    40.00 Ry     beta= 0.40
     ParO style diagonalization

---- Real-time Memory Report at c_bands before calling an iterative solver
            67 MiB given to the printing process from OS
            26 MiB allocation reported by mallinfo(arena+hblkhd)
        486585 MiB available memory on the node where the printing process lives
------------------
     ethr =  9.72E-07,  avg # of iterations =  7.8

     negative rho (up, down):  7.562E-05 1.726E-03

     total cpu time spent up to now is       10.3 secs

     total energy              =    -424.29884450 Ry
     estimated scf accuracy    <       0.00077261 Ry

     total magnetization       =     3.82 Bohr mag/cell
     absolute magnetization    =     3.99 Bohr mag/cell

     iteration # 12     ecut=    40.00 Ry     beta= 0.40
     RMM-DIIS diagonalization

---- Real-time Memory Report at c_bands before calling an iterative solver
            67 MiB given to the printing process from OS
            26 MiB allocation reported by mallinfo(arena+hblkhd)
        486585 MiB available memory on the node where the printing process lives
------------------
     ethr =  9.72E-07,  avg # of iterations =  2.5

     negative rho (up, down):  1.384E-04 1.672E-03

     total cpu time spent up to now is       10.6 secs

     total energy              =    -424.29906998 Ry
     estimated scf accuracy    <       0.00079763 Ry

     total magnetization       =     3.83 Bohr mag/cell
     absolute magnetization    =     4.00 Bohr mag/cell

     iteration # 13     ecut=    40.00 Ry     beta= 0.40
     RMM-DIIS diagonalization

---- Real-time Memory Report at c_bands before calling an iterative solver
            67 MiB given to the printing process from OS
            26 MiB allocation reported by mallinfo(arena+hblkhd)
        486584 MiB available memory on the node where the printing process lives
------------------
     ethr =  9.72E-07,  avg # of iterations =  3.4

     negative rho (up, down):  1.419E-04 1.670E-03

     total cpu time spent up to now is       11.1 secs

     total energy              =    -424.30085923 Ry
     estimated scf accuracy    <       0.00026128 Ry

     total magnetization       =     3.47 Bohr mag/cell
     absolute magnetization    =     3.65 Bohr mag/cell

     iteration # 14     ecut=    40.00 Ry     beta= 0.40
     RMM-DIIS diagonalization

---- Real-time Memory Report at c_bands before calling an iterative solver
            67 MiB given to the printing process from OS
            26 MiB allocation reported by mallinfo(arena+hblkhd)
        486584 MiB available memory on the node where the printing process lives
------------------
     ethr =  6.22E-07,  avg # of iterations =  2.9

     negative rho (up, down):  1.586E-04 1.656E-03

     total cpu time spent up to now is       11.5 secs

     total energy              =    -424.30115061 Ry
     estimated scf accuracy    <       0.00034877 Ry

     total magnetization       =     3.45 Bohr mag/cell
     absolute magnetization    =     3.63 Bohr mag/cell

     iteration # 15     ecut=    40.00 Ry     beta= 0.40
     RMM-DIIS diagonalization

---- Real-time Memory Report at c_bands before calling an iterative solver
            67 MiB given to the printing process from OS
            26 MiB allocation reported by mallinfo(arena+hblkhd)
        486584 MiB available memory on the node where the printing process lives
------------------
     ethr =  6.22E-07,  avg # of iterations =  3.0

     negative rho (up, down):  1.637E-04 1.651E-03

     total cpu time spent up to now is       11.9 secs

     total energy              =    -424.30142765 Ry
     estimated scf accuracy    <       0.00036872 Ry

     total magnetization       =     3.35 Bohr mag/cell
     absolute magnetization    =     3.52 Bohr mag/cell

     iteration # 16     ecut=    40.00 Ry     beta= 0.40
     ParO style diagonalization

---- Real-time Memory Report at c_bands before calling an iterative solver
            67 MiB given to the printing process from OS
            26 MiB allocation reported by mallinfo(arena+hblkhd)
        486583 MiB available memory on the node where the printing process lives
------------------
     ethr =  6.22E-07,  avg # of iterations =  7.5

     negative rho (up, down):  1.579E-04 1.657E-03

     total cpu time spent up to now is       13.2 secs

     total energy              =    -424.30131566 Ry
     estimated scf accuracy    <       0.00063270 Ry

     total magnetization       =     3.31 Bohr mag/cell
     absolute magnetization    =     3.49 Bohr mag/cell

     iteration # 17     ecut=    40.00 Ry     beta= 0.40
     RMM-DIIS diagonalization

---- Real-time Memory Report at c_bands before calling an iterative solver
            67 MiB given to the printing process from OS
            26 MiB allocation reported by mallinfo(arena+hblkhd)
        486583 MiB available memory on the node where the printing process lives
------------------
     ethr =  6.22E-07,  avg # of iterations =  2.5

     negative rho (up, down):  2.931E-04 1.548E-03

     total cpu time spent up to now is       13.5 secs

     total energy              =    -424.29476240 Ry
     estimated scf accuracy    <       0.00067079 Ry

     total magnetization       =     3.36 Bohr mag/cell
     absolute magnetization    =     3.53 Bohr mag/cell

     iteration # 18     ecut=    40.00 Ry     beta= 0.40
     RMM-DIIS diagonalization

---- Real-time Memory Report at c_bands before calling an iterative solver
            67 MiB given to the printing process from OS
            26 MiB allocation reported by mallinfo(arena+hblkhd)
        486582 MiB available memory on the node where the printing process lives
------------------
     ethr =  6.22E-07,  avg # of iterations =  4.3

     negative rho (up, down):  1.199E-04 1.691E-03

     total cpu time spent up to now is       14.1 secs

     total energy              =    -424.28167761 Ry
     estimated scf accuracy    <       0.00134179 Ry

     total magnetization       =     2.35 Bohr mag/cell
     absolute magnetization    =     2.63 Bohr mag/cell

     iteration # 19     ecut=    40.00 Ry     beta= 0.40
     RMM-DIIS diagonalization

---- Real-time Memory Report at c_bands before calling an iterative solver
            67 MiB given to the printing process from OS
            26 MiB allocation reported by mallinfo(arena+hblkhd)
        486582 MiB available memory on the node where the printing process lives
------------------
     ethr =  6.22E-07,  avg # of iterations =  4.4

     negative rho (up, down):  9.033E-05 1.714E-03

     total cpu time spent up to now is       14.6 secs

     total energy              =    -424.29874481 Ry
     estimated scf accuracy    <       0.00074955 Ry

     total magnetization       =     3.60 Bohr mag/cell
     absolute magnetization    =     3.76 Bohr mag/cell

     iteration # 20     ecut=    40.00 Ry     beta= 0.40
     RMM-DIIS diagonalization

---- Real-time Memory Report at c_bands before calling an iterative solver
            68 MiB given to the printing process from OS
            26 MiB allocation reported by mallinfo(arena+hblkhd)
        486572 MiB available memory on the node where the printing process lives
------------------
     ethr =  6.22E-07,  avg # of iterations =  3.7

     negative rho (up, down):  5.357E-05 1.744E-03

     total cpu time spent up to now is       15.1 secs

     total energy              =    -424.29725939 Ry
     estimated scf accuracy    <       0.00060173 Ry

     total magnetization       =     3.75 Bohr mag/cell
     absolute magnetization    =     3.91 Bohr mag/cell

     iteration # 21     ecut=    40.00 Ry     beta= 0.40
     ParO style diagonalization

---- Real-time Memory Report at c_bands before calling an iterative solver
            68 MiB given to the printing process from OS
            26 MiB allocation reported by mallinfo(arena+hblkhd)
        486572 MiB available memory on the node where the printing process lives
------------------
     ethr =  6.22E-07,  avg # of iterations =  8.5

     negative rho (up, down):  5.530E-05 1.744E-03

     total cpu time spent up to now is       16.6 secs

     total energy              =    -424.29804155 Ry
     estimated scf accuracy    <       0.00112176 Ry

     total magnetization       =     3.93 Bohr mag/cell
     absolute magnetization    =     4.10 Bohr mag/cell

     iteration # 22     ecut=    40.00 Ry     beta= 0.40
     RMM-DIIS diagonalization

---- Real-time Memory Report at c_bands before calling an iterative solver
            68 MiB given to the printing process from OS
            26 MiB allocation reported by mallinfo(arena+hblkhd)
        486572 MiB available memory on the node where the printing process lives
------------------
     ethr =  6.22E-07,  avg # of iterations =  2.5

     negative rho (up, down):  7.562E-05 1.721E-03

     total cpu time spent up to now is       16.9 secs

     total energy              =    -424.29870816 Ry
     estimated scf accuracy    <       0.00087634 Ry

     total magnetization       =     3.92 Bohr mag/cell
     absolute magnetization    =     4.10 Bohr mag/cell

     iteration # 23     ecut=    40.00 Ry     beta= 0.40
     RMM-DIIS diagonalization

---- Real-time Memory Report at c_bands before calling an iterative solver
            68 MiB given to the printing process from OS
            26 MiB allocation reported by mallinfo(arena+hblkhd)
        486572 MiB available memory on the node where the printing process lives
------------------
     ethr =  6.22E-07,  avg # of iterations =  2.7

     negative rho (up, down):  1.826E-04 1.633E-03

     total cpu time spent up to now is       17.3 secs

     total energy              =    -424.29659583 Ry
     estimated scf accuracy    <       0.00084822 Ry

     total magnetization       =     3.80 Bohr mag/cell
     absolute magnetization    =     3.97 Bohr mag/cell

     iteration # 24     ecut=    40.00 Ry     beta= 0.40
     RMM-DIIS diagonalization

---- Real-time Memory Report at c_bands before calling an iterative solver
            68 MiB given to the printing process from OS
            26 MiB allocation reported by mallinfo(arena+hblkhd)
        486572 MiB available memory on the node where the printing process lives
------------------
     ethr =  6.22E-07,  avg # of iterations =  4.2

     negative rho (up, down):  3.335E-04 1.515E-03

     total cpu time spent up to now is       17.8 secs

     total energy              =    -424.29256264 Ry
     estimated scf accuracy    <       0.00039751 Ry

     total magnetization       =     3.17 Bohr mag/cell
     absolute magnetization    =     3.35 Bohr mag/cell

     iteration # 25     ecut=    40.00 Ry     beta= 0.40
     RMM-DIIS diagonalization

---- Real-time Memory Report at c_bands before calling an iterative solver
            68 MiB given to the printing process from OS
            26 MiB allocation reported by mallinfo(arena+hblkhd)
        486572 MiB available memory on the node where the printing process lives
------------------
     ethr =  6.22E-07,  avg # of iterations =  4.6

     negative rho (up, down):  8.078E-06 4.216E-03

     total cpu time spent up to now is       18.4 secs

     total energy              =    -424.12047852 Ry
     estimated scf accuracy    <       0.00150157 Ry

     total magnetization       =     1.99 Bohr mag/cell
     absolute magnetization    =     2.49 Bohr mag/cell

     iteration # 26     ecut=    40.00 Ry     beta= 0.40
     ParO style diagonalization

---- Real-time Memory Report at c_bands before calling an iterative solver
            68 MiB given to the printing process from OS
            26 MiB allocation reported by mallinfo(arena+hblkhd)
        486572 MiB available memory on the node where the printing process lives
------------------
     ethr =  6.22E-07,  avg # of iterations = 12.5

     negative rho (up, down):  3.151E-06 3.481E-03

     total cpu time spent up to now is       20.4 secs

     total energy              =    -424.27967881 Ry
     estimated scf accuracy    <       0.01501218 Ry

     total magnetization       =     4.88 Bohr mag/cell
     absolute magnetization    =     5.10 Bohr mag/cell

     iteration # 27     ecut=    40.00 Ry     beta= 0.40
     RMM-DIIS diagonalization

---- Real-time Memory Report at c_bands before calling an iterative solver
            68 MiB given to the printing process from OS
            26 MiB allocation reported by mallinfo(arena+hblkhd)
        486565 MiB available memory on the node where the printing process lives
------------------
     ethr =  6.22E-07,  avg # of iterations =  3.5

     negative rho (up, down):  1.642E-04 1.653E-03

     total cpu time spent up to now is       20.9 secs

     total energy              =    -424.27061696 Ry
     estimated scf accuracy    <       0.01004142 Ry

     total magnetization       =     4.70 Bohr mag/cell
     absolute magnetization    =     4.91 Bohr mag/cell

     iteration # 28     ecut=    40.00 Ry     beta= 0.40
     RMM-DIIS diagonalization

---- Real-time Memory Report at c_bands before calling an iterative solver
            68 MiB given to the printing process from OS
            26 MiB allocation reported by mallinfo(arena+hblkhd)
        486565 MiB available memory on the node where the printing process lives
------------------
     ethr =  6.22E-07,  avg # of iterations =  4.9

     negative rho (up, down):  1.914E-04 1.633E-03

     total cpu time spent up to now is       21.5 secs

     total energy              =    -424.29973497 Ry
     estimated scf accuracy    <       0.00104822 Ry

     total magnetization       =     3.33 Bohr mag/cell
     absolute magnetization    =     3.54 Bohr mag/cell

     iteration # 29     ecut=    40.00 Ry     beta= 0.40
     RMM-DIIS diagonalization

---- Real-time Memory Report at c_bands before calling an iterative solver
            68 MiB given to the printing process from OS
            26 MiB allocation reported by mallinfo(arena+hblkhd)
        486565 MiB available memory on the node where the printing process lives
------------------
     ethr =  6.22E-07,  avg # of iterations =  4.0

     negative rho (up, down):  3.312E-04 1.519E-03

     total cpu time spent up to now is       22.0 secs

     total energy              =    -424.29370056 Ry
     estimated scf accuracy    <       0.00026117 Ry

     total magnetization       =     3.15 Bohr mag/cell
     absolute magnetization    =     3.33 Bohr mag/cell

     iteration # 30     ecut=    40.00 Ry     beta= 0.40
     RMM-DIIS diagonalization

---- Real-time Memory Report at c_bands before calling an iterative solver
            68 MiB given to the printing process from OS
            26 MiB allocation reported by mallinfo(arena+hblkhd)
        486565 MiB available memory on the node where the printing process lives
------------------
     ethr =  6.22E-07,  avg # of iterations =  4.5

     negative rho (up, down):  3.048E-04 1.541E-03

     total cpu time spent up to now is       22.6 secs

     total energy              =    -424.30490807 Ry
     estimated scf accuracy    <       0.00137766 Ry

     total magnetization       =     2.02 Bohr mag/cell
     absolute magnetization    =     2.50 Bohr mag/cell

     iteration # 31     ecut=    40.00 Ry     beta= 0.40
     ParO style diagonalization

---- Real-time Memory Report at c_bands before calling an iterative solver
            68 MiB given to the printing process from OS
            26 MiB allocation reported by mallinfo(arena+hblkhd)
        486565 MiB available memory on the node where the printing process lives
------------------
     ethr =  6.22E-07,  avg # of iterations =  9.7

     negative rho (up, down):  2.054E-04 1.620E-03

     total cpu time spent up to now is       24.1 secs

     total energy              =    -424.29560323 Ry
     estimated scf accuracy    <       0.00146980 Ry

     total magnetization       =     2.26 Bohr mag/cell
     absolute magnetization    =     2.55 Bohr mag/cell

     iteration # 32     ecut=    40.00 Ry     beta= 0.40
     RMM-DIIS diagonalization

---- Real-time Memory Report at c_bands before calling an iterative solver
            68 MiB given to the printing process from OS
            26 MiB allocation reported by mallinfo(arena+hblkhd)
        486564 MiB available memory on the node where the printing process lives
------------------
     ethr =  6.22E-07,  avg # of iterations =  4.0

     negative rho (up, down):  1.531E-04 1.660E-03

     total cpu time spent up to now is       24.6 secs

     total energy              =    -424.29935548 Ry
     estimated scf accuracy    <       0.00039271 Ry

     total magnetization       =     3.04 Bohr mag/cell
     absolute magnetization    =     3.19 Bohr mag/cell

     iteration # 33     ecut=    40.00 Ry     beta= 0.40
     RMM-DIIS diagonalization

---- Real-time Memory Report at c_bands before calling an iterative solver
            68 MiB given to the printing process from OS
            26 MiB allocation reported by mallinfo(arena+hblkhd)
        486564 MiB available memory on the node where the printing process lives
------------------
     ethr =  6.22E-07,  avg # of iterations =  3.9

     negative rho (up, down):  2.349E-06 1.780E-03

     total cpu time spent up to now is       25.2 secs

     total energy              =    -424.28469730 Ry
     estimated scf accuracy    <       0.00032457 Ry

     total magnetization       =     3.38 Bohr mag/cell
     absolute magnetization    =     3.53 Bohr mag/cell

     iteration # 34     ecut=    40.00 Ry     beta= 0.40
     RMM-DIIS diagonalization

---- Real-time Memory Report at c_bands before calling an iterative solver
            68 MiB given to the printing process from OS
            26 MiB allocation reported by mallinfo(arena+hblkhd)
        486564 MiB available memory on the node where the printing process lives
------------------
     ethr =  6.22E-07,  avg # of iterations =  4.6

     negative rho (up, down):  1.716E-04 1.647E-03

     total cpu time spent up to now is       25.8 secs

     total energy              =    -424.29071284 Ry
     estimated scf accuracy    <       0.00197990 Ry

     total magnetization       =     4.15 Bohr mag/cell
     absolute magnetization    =     4.31 Bohr mag/cell

     iteration # 35     ecut=    40.00 Ry     beta= 0.40
     RMM-DIIS diagonalization

---- Real-time Memory Report at c_bands before calling an iterative solver
            68 MiB given to the printing process from OS
            26 MiB allocation reported by mallinfo(arena+hblkhd)
        486564 MiB available memory on the node where the printing process lives
------------------
     ethr =  6.22E-07,  avg # of iterations =  4.2

     negative rho (up, down):  1.335E-04 1.677E-03

     total cpu time spent up to now is       26.3 secs

     total energy              =    -424.29994857 Ry
     estimated scf accuracy    <       0.00032768 Ry

     total magnetization       =     3.27 Bohr mag/cell
     absolute magnetization    =     3.44 Bohr mag/cell

     iteration # 36     ecut=    40.00 Ry     beta= 0.40
     ParO style diagonalization

---- Real-time Memory Report at c_bands before calling an iterative solver
            68 MiB given to the printing process from OS
            26 MiB allocation reported by mallinfo(arena+hblkhd)
        486564 MiB available memory on the node where the printing process lives
------------------
     ethr =  6.22E-07,  avg # of iterations =  7.5

     negative rho (up, down):  1.373E-04 1.674E-03

     total cpu time spent up to now is       27.6 secs

     total energy              =    -424.30073202 Ry
     estimated scf accuracy    <       0.00042326 Ry

     total magnetization       =     3.50 Bohr mag/cell
     absolute magnetization    =     3.66 Bohr mag/cell

     iteration # 37     ecut=    40.00 Ry     beta= 0.40
     RMM-DIIS diagonalization

---- Real-time Memory Report at c_bands before calling an iterative solver
            68 MiB given to the printing process from OS
            26 MiB allocation reported by mallinfo(arena+hblkhd)
        486564 MiB available memory on the node where the printing process lives
------------------
     ethr =  6.22E-07,  avg # of iterations =  2.5

     negative rho (up, down):  1.507E-04 1.663E-03

     total cpu time spent up to now is       28.0 secs

     total energy              =    -424.30098050 Ry
     estimated scf accuracy    <       0.00039513 Ry

     total magnetization       =     3.47 Bohr mag/cell
     absolute magnetization    =     3.64 Bohr mag/cell

     iteration # 38     ecut=    40.00 Ry     beta= 0.40
     RMM-DIIS diagonalization

---- Real-time Memory Report at c_bands before calling an iterative solver
            68 MiB given to the printing process from OS
            26 MiB allocation reported by mallinfo(arena+hblkhd)
        486564 MiB available memory on the node where the printing process lives
------------------
     ethr =  6.22E-07,  avg # of iterations =  2.6

     negative rho (up, down):  1.250E-04 1.684E-03

     total cpu time spent up to now is       28.3 secs

     total energy              =    -424.30010677 Ry
     estimated scf accuracy    <       0.00035711 Ry

     total magnetization       =     3.39 Bohr mag/cell
     absolute magnetization    =     3.56 Bohr mag/cell

     iteration # 39     ecut=    40.00 Ry     beta= 0.40
     RMM-DIIS diagonalization

---- Real-time Memory Report at c_bands before calling an iterative solver
            68 MiB given to the printing process from OS
            26 MiB allocation reported by mallinfo(arena+hblkhd)
        486564 MiB available memory on the node where the printing process lives
------------------
     ethr =  6.22E-07,  avg # of iterations =  2.7

     negative rho (up, down):  2.038E-04 1.621E-03

     total cpu time spent up to now is       28.7 secs

     total energy              =    -424.29925618 Ry
     estimated scf accuracy    <       0.00044312 Ry

     total magnetization       =     3.54 Bohr mag/cell
     absolute magnetization    =     3.71 Bohr mag/cell

     iteration # 40     ecut=    40.00 Ry     beta= 0.40
     RMM-DIIS diagonalization

---- Real-time Memory Report at c_bands before calling an iterative solver
            68 MiB given to the printing process from OS
            26 MiB allocation reported by mallinfo(arena+hblkhd)
        486564 MiB available memory on the node where the printing process lives
------------------
     ethr =  6.22E-07,  avg # of iterations =  3.8

     negative rho (up, down):  2.620E-04 1.573E-03

     total cpu time spent up to now is       29.2 secs

     total energy              =    -424.30169424 Ry
     estimated scf accuracy    <       0.00030183 Ry

     total magnetization       =     3.05 Bohr mag/cell
     absolute magnetization    =     3.22 Bohr mag/cell

     iteration # 41     ecut=    40.00 Ry     beta= 0.40
     ParO style diagonalization

---- Real-time Memory Report at c_bands before calling an iterative solver
            68 MiB given to the printing process from OS
            26 MiB allocation reported by mallinfo(arena+hblkhd)
        486564 MiB available memory on the node where the printing process lives
------------------
     ethr =  6.22E-07,  avg # of iterations =  8.7

     negative rho (up, down):  2.574E-04 1.577E-03

     total cpu time spent up to now is       30.6 secs

     total energy              =    -424.30377372 Ry
     estimated scf accuracy    <       0.00054151 Ry

     total magnetization       =     2.61 Bohr mag/cell
     absolute magnetization    =     2.78 Bohr mag/cell

     iteration # 42     ecut=    40.00 Ry     beta= 0.40
     RMM-DIIS diagonalization

---- Real-time Memory Report at c_bands before calling an iterative solver
            69 MiB given to the printing process from OS
            26 MiB allocation reported by mallinfo(arena+hblkhd)
        486563 MiB available memory on the node where the printing process lives
------------------
     ethr =  6.22E-07,  avg # of iterations =  2.5

     negative rho (up, down):  2.318E-04 1.598E-03

     total cpu time spent up to now is       31.0 secs

     total energy              =    -424.30259088 Ry
     estimated scf accuracy    <       0.00050917 Ry

     total magnetization       =     2.64 Bohr mag/cell
     absolute magnetization    =     2.82 Bohr mag/cell

     iteration # 43     ecut=    40.00 Ry     beta= 0.40
     RMM-DIIS diagonalization

---- Real-time Memory Report at c_bands before calling an iterative solver
            69 MiB given to the printing process from OS
            26 MiB allocation reported by mallinfo(arena+hblkhd)
        486563 MiB available memory on the node where the printing process lives
------------------
     ethr =  6.22E-07,  avg # of iterations =  2.8

     negative rho (up, down):  7.828E-05 1.722E-03

     total cpu time spent up to now is       31.4 secs

     total energy              =    -424.28591847 Ry
     estimated scf accuracy    <       0.00036733 Ry

     total magnetization       =     2.84 Bohr mag/cell
     absolute magnetization    =     3.00 Bohr mag/cell

     iteration # 44     ecut=    40.00 Ry     beta= 0.40
     RMM-DIIS diagonalization

---- Real-time Memory Report at c_bands before calling an iterative solver
            69 MiB given to the printing process from OS
            26 MiB allocation reported by mallinfo(arena+hblkhd)
        486563 MiB available memory on the node where the printing process lives
------------------
     ethr =  6.22E-07,  avg # of iterations =  4.4

     negative rho (up, down):  1.522E-04 1.663E-03

     total cpu time spent up to now is       31.9 secs

     total energy              =    -424.29878217 Ry
     estimated scf accuracy    <       0.00073757 Ry

     total magnetization       =     3.80 Bohr mag/cell
     absolute magnetization    =     3.95 Bohr mag/cell

     iteration # 45     ecut=    40.00 Ry     beta= 0.40
     RMM-DIIS diagonalization

---- Real-time Memory Report at c_bands before calling an iterative solver
            69 MiB given to the printing process from OS
            26 MiB allocation reported by mallinfo(arena+hblkhd)
        486561 MiB available memory on the node where the printing process lives
------------------
     ethr =  6.22E-07,  avg # of iterations =  3.3

     negative rho (up, down):  1.186E-04 1.689E-03

     total cpu time spent up to now is       32.4 secs

     total energy              =    -424.29966510 Ry
     estimated scf accuracy    <       0.00031452 Ry

     total magnetization       =     3.39 Bohr mag/cell
     absolute magnetization    =     3.55 Bohr mag/cell

     iteration # 46     ecut=    40.00 Ry     beta= 0.40
     ParO style diagonalization

---- Real-time Memory Report at c_bands before calling an iterative solver
            69 MiB given to the printing process from OS
            26 MiB allocation reported by mallinfo(arena+hblkhd)
        486561 MiB available memory on the node where the printing process lives
------------------
     ethr =  6.22E-07,  avg # of iterations =  8.0

     negative rho (up, down):  1.811E-04 1.638E-03

     total cpu time spent up to now is       33.7 secs

     total energy              =    -424.29987354 Ry
     estimated scf accuracy    <       0.00050219 Ry

     total magnetization       =     3.59 Bohr mag/cell
     absolute magnetization    =     3.75 Bohr mag/cell

     iteration # 47     ecut=    40.00 Ry     beta= 0.40
     RMM-DIIS diagonalization

---- Real-time Memory Report at c_bands before calling an iterative solver
            69 MiB given to the printing process from OS
            26 MiB allocation reported by mallinfo(arena+hblkhd)
        486561 MiB available memory on the node where the printing process lives
------------------
     ethr =  6.22E-07,  avg # of iterations =  3.6

     negative rho (up, down):  2.081E-04 1.617E-03

     total cpu time spent up to now is       34.2 secs

     total energy              =    -424.30190348 Ry
     estimated scf accuracy    <       0.00029429 Ry

     total magnetization       =     3.20 Bohr mag/cell
     absolute magnetization    =     3.37 Bohr mag/cell

     iteration # 48     ecut=    40.00 Ry     beta= 0.40
     RMM-DIIS diagonalization

---- Real-time Memory Report at c_bands before calling an iterative solver
            69 MiB given to the printing process from OS
            26 MiB allocation reported by mallinfo(arena+hblkhd)
        486561 MiB available memory on the node where the printing process lives
------------------
     ethr =  6.22E-07,  avg # of iterations =  3.3

     negative rho (up, down):  2.776E-04 1.562E-03

     total cpu time spent up to now is       34.7 secs

     total energy              =    -424.30135248 Ry
     estimated scf accuracy    <       0.00028396 Ry

     total magnetization       =     3.02 Bohr mag/cell
     absolute magnetization    =     3.19 Bohr mag/cell

     iteration # 49     ecut=    40.00 Ry     beta= 0.40
     RMM-DIIS diagonalization

---- Real-time Memory Report at c_bands before calling an iterative solver
            69 MiB given to the printing process from OS
            26 MiB allocation reported by mallinfo(arena+hblkhd)
        486561 MiB available memory on the node where the printing process lives
------------------
     ethr =  6.22E-07,  avg # of iterations =  4.0

     negative rho (up, down):  2.632E-04 1.575E-03

     total cpu time spent up to now is       35.2 secs

     total energy              =    -424.30376809 Ry
     estimated scf accuracy    <       0.00052676 Ry

     total magnetization       =     2.49 Bohr mag/cell
     absolute magnetization    =     2.70 Bohr mag/cell

     iteration # 50     ecut=    40.00 Ry     beta= 0.40
     RMM-DIIS diagonalization

---- Real-time Memory Report at c_bands before calling an iterative solver
            69 MiB given to the printing process from OS
            26 MiB allocation reported by mallinfo(arena+hblkhd)
        486561 MiB available memory on the node where the printing process lives
------------------
     ethr =  6.22E-07,  avg # of iterations =  3.0

     negative rho (up, down):  4.718E-04 1.410E-03

     total cpu time spent up to now is       35.6 secs

     total energy              =    -424.28748715 Ry
     estimated scf accuracy    <       0.00046046 Ry

     total magnetization       =     2.61 Bohr mag/cell
     absolute magnetization    =     2.79 Bohr mag/cell

     iteration # 51     ecut=    40.00 Ry     beta= 0.40
     ParO style diagonalization

---- Real-time Memory Report at c_bands before calling an iterative solver
            69 MiB given to the printing process from OS
            26 MiB allocation reported by mallinfo(arena+hblkhd)
        486561 MiB available memory on the node where the printing process lives
------------------
     ethr =  6.22E-07,  avg # of iterations = 10.9

     negative rho (up, down):  3.391E-04 1.515E-03

     total cpu time spent up to now is       37.4 secs

     total energy              =    -424.29232179 Ry
     estimated scf accuracy    <       0.01737044 Ry

     total magnetization       =     0.71 Bohr mag/cell
     absolute magnetization    =     3.79 Bohr mag/cell

     iteration # 52     ecut=    40.00 Ry     beta= 0.40
     RMM-DIIS diagonalization

---- Real-time Memory Report at c_bands before calling an iterative solver
            69 MiB given to the printing process from OS
            26 MiB allocation reported by mallinfo(arena+hblkhd)
        486559 MiB available memory on the node where the printing process lives
------------------
     ethr =  6.22E-07,  avg # of iterations =  4.2

     negative rho (up, down):  2.980E-04 1.548E-03

     total cpu time spent up to now is       37.9 secs

     total energy              =    -424.30367868 Ry
     estimated scf accuracy    <       0.00238601 Ry

     total magnetization       =     1.95 Bohr mag/cell
     absolute magnetization    =     2.48 Bohr mag/cell

     iteration # 53     ecut=    40.00 Ry     beta= 0.40
     RMM-DIIS diagonalization

---- Real-time Memory Report at c_bands before calling an iterative solver
            69 MiB given to the printing process from OS
            26 MiB allocation reported by mallinfo(arena+hblkhd)
        486559 MiB available memory on the node where the printing process lives
------------------
     ethr =  6.22E-07,  avg # of iterations =  3.8

     negative rho (up, down):  0.000E+00 1.790E-03

     total cpu time spent up to now is       38.4 secs

     total energy              =    -424.24130182 Ry
     estimated scf accuracy    <       0.00103385 Ry

     total magnetization       =     2.32 Bohr mag/cell
     absolute magnetization    =     2.57 Bohr mag/cell

     iteration # 54     ecut=    40.00 Ry     beta= 0.40
     RMM-DIIS diagonalization

---- Real-time Memory Report at c_bands before calling an iterative solver
            69 MiB given to the printing process from OS
            26 MiB allocation reported by mallinfo(arena+hblkhd)
        486559 MiB available memory on the node where the printing process lives
------------------
     ethr =  6.22E-07,  avg # of iterations =  4.9

     negative rho (up, down):  0.000E+00 2.170E-03

     total cpu time spent up to now is       39.0 secs

     total energy              =    -424.29045823 Ry
     estimated scf accuracy    <       0.00213120 Ry

     total magnetization       =     4.18 Bohr mag/cell
     absolute magnetization    =     4.33 Bohr mag/cell

     iteration # 55     ecut=    40.00 Ry     beta= 0.40
     RMM-DIIS diagonalization

---- Real-time Memory Report at c_bands before calling an iterative solver
            69 MiB given to the printing process from OS
            26 MiB allocation reported by mallinfo(arena+hblkhd)
        486559 MiB available memory on the node where the printing process lives
------------------
     ethr =  6.22E-07,  avg # of iterations =  4.1

     negative rho (up, down):  0.000E+00 1.785E-03

     total cpu time spent up to now is       39.6 secs

     total energy              =    -424.29443822 Ry
     estimated scf accuracy    <       0.00365911 Ry

     total magnetization       =     4.33 Bohr mag/cell
     absolute magnetization    =     4.50 Bohr mag/cell

     iteration # 56     ecut=    40.00 Ry     beta= 0.40
     ParO style diagonalization

---- Real-time Memory Report at c_bands before calling an iterative solver
            69 MiB given to the printing process from OS
            26 MiB allocation reported by mallinfo(arena+hblkhd)
        486559 MiB available memory on the node where the printing process lives
------------------
     ethr =  6.22E-07,  avg # of iterations =  9.6

     negative rho (up, down):  4.684E-05 1.749E-03

     total cpu time spent up to now is       41.1 secs

     total energy              =    -424.29688780 Ry
     estimated scf accuracy    <       0.00248821 Ry

     total magnetization       =     4.15 Bohr mag/cell
     absolute magnetization    =     4.33 Bohr mag/cell

     iteration # 57     ecut=    40.00 Ry     beta= 0.40
     RMM-DIIS diagonalization

---- Real-time Memory Report at c_bands before calling an iterative solver
            69 MiB given to the printing process from OS
            26 MiB allocation reported by mallinfo(arena+hblkhd)
        486559 MiB available memory on the node where the printing process lives
------------------
     ethr =  6.22E-07,  avg # of iterations =  3.3

     negative rho (up, down):  1.826E-04 1.644E-03

     total cpu time spent up to now is       41.5 secs

     total energy              =    -424.29374442 Ry
     estimated scf accuracy    <       0.00141063 Ry

     total magnetization       =     3.95 Bohr mag/cell
     absolute magnetization    =     4.13 Bohr mag/cell

     iteration # 58     ecut=    40.00 Ry     beta= 0.40
     RMM-DIIS diagonalization

---- Real-time Memory Report at c_bands before calling an iterative solver
            69 MiB given to the printing process from OS
            26 MiB allocation reported by mallinfo(arena+hblkhd)
        486559 MiB available memory on the node where the printing process lives
------------------
     ethr =  6.22E-07,  avg # of iterations =  4.3

     negative rho (up, down):  4.285E-04 1.444E-03

     total cpu time spent up to now is       42.1 secs

     total energy              =    -424.27359006 Ry
     estimated scf accuracy    <       0.00036153 Ry

     total magnetization       =     3.21 Bohr mag/cell
     absolute magnetization    =     3.39 Bohr mag/cell

     iteration # 59     ecut=    40.00 Ry     beta= 0.40
     RMM-DIIS diagonalization

---- Real-time Memory Report at c_bands before calling an iterative solver
            69 MiB given to the printing process from OS
            26 MiB allocation reported by mallinfo(arena+hblkhd)
        486559 MiB available memory on the node where the printing process lives
------------------
     ethr =  6.22E-07,  avg # of iterations =  4.9

     negative rho (up, down):  1.488E-04 1.670E-03

     total cpu time spent up to now is       42.7 secs

     total energy              =    -424.24439204 Ry
     estimated scf accuracy    <       0.00523199 Ry

     total magnetization       =     1.09 Bohr mag/cell
     absolute magnetization    =     3.26 Bohr mag/cell

     iteration # 60     ecut=    40.00 Ry     beta= 0.40
     RMM-DIIS diagonalization

---- Real-time Memory Report at c_bands before calling an iterative solver
            69 MiB given to the printing process from OS
            26 MiB allocation reported by mallinfo(arena+hblkhd)
        486559 MiB available memory on the node where the printing process lives
------------------
     ethr =  6.22E-07,  avg # of iterations =  4.7

     negative rho (up, down):  1.757E-04 1.649E-03

     total cpu time spent up to now is       43.3 secs

     total energy              =    -424.30123774 Ry
     estimated scf accuracy    <       0.00040201 Ry

     total magnetization       =     3.43 Bohr mag/cell
     absolute magnetization    =     3.57 Bohr mag/cell

     iteration # 61     ecut=    40.00 Ry     beta= 0.40
     ParO style diagonalization

---- Real-time Memory Report at c_bands before calling an iterative solver
            69 MiB given to the printing process from OS
            26 MiB allocation reported by mallinfo(arena+hblkhd)
        486559 MiB available memory on the node where the printing process lives
------------------
     ethr =  6.22E-07,  avg # of iterations =  8.0

     negative rho (up, down):  1.782E-04 1.648E-03

     total cpu time spent up to now is       44.7 secs

     total energy              =    -424.30170887 Ry
     estimated scf accuracy    <       0.00032425 Ry

     total magnetization       =     3.26 Bohr mag/cell
     absolute magnetization    =     3.42 Bohr mag/cell

     iteration # 62     ecut=    40.00 Ry     beta= 0.40
     RMM-DIIS diagonalization

---- Real-time Memory Report at c_bands before calling an iterative solver
            69 MiB given to the printing process from OS
            26 MiB allocation reported by mallinfo(arena+hblkhd)
        486554 MiB available memory on the node where the printing process lives
------------------
     ethr =  6.22E-07,  avg # of iterations =  2.5

     negative rho (up, down):  2.375E-04 1.599E-03

     total cpu time spent up to now is       45.1 secs

     total energy              =    -424.30119945 Ry
     estimated scf accuracy    <       0.00039244 Ry

     total magnetization       =     3.25 Bohr mag/cell
     absolute magnetization    =     3.41 Bohr mag/cell

     iteration # 63     ecut=    40.00 Ry     beta= 0.40
     RMM-DIIS diagonalization

---- Real-time Memory Report at c_bands before calling an iterative solver
            69 MiB given to the printing process from OS
            26 MiB allocation reported by mallinfo(arena+hblkhd)
        486554 MiB available memory on the node where the printing process lives
------------------
     ethr =  6.22E-07,  avg # of iterations =  3.5

     negative rho (up, down):  2.088E-04 1.622E-03

     total cpu time spent up to now is       45.5 secs

     total energy              =    -424.30195794 Ry
     estimated scf accuracy    <       0.00035045 Ry

     total magnetization       =     2.82 Bohr mag/cell
     absolute magnetization    =     2.99 Bohr mag/cell

     iteration # 64     ecut=    40.00 Ry     beta= 0.40
     RMM-DIIS diagonalization

---- Real-time Memory Report at c_bands before calling an iterative solver
            69 MiB given to the printing process from OS
            26 MiB allocation reported by mallinfo(arena+hblkhd)
        486554 MiB available memory on the node where the printing process lives
------------------
     ethr =  6.22E-07,  avg # of iterations =  2.6

     negative rho (up, down):  2.031E-04 1.627E-03

     total cpu time spent up to now is       45.9 secs

     total energy              =    -424.30227142 Ry
     estimated scf accuracy    <       0.00034621 Ry

     total magnetization       =     3.03 Bohr mag/cell
     absolute magnetization    =     3.19 Bohr mag/cell

     iteration # 65     ecut=    40.00 Ry     beta= 0.40
     RMM-DIIS diagonalization

---- Real-time Memory Report at c_bands before calling an iterative solver
            69 MiB given to the printing process from OS
            26 MiB allocation reported by mallinfo(arena+hblkhd)
        486554 MiB available memory on the node where the printing process lives
------------------
     ethr =  6.22E-07,  avg # of iterations =  2.5

     negative rho (up, down):  2.013E-04 1.628E-03

     total cpu time spent up to now is       46.2 secs

     total energy              =    -424.30224034 Ry
     estimated scf accuracy    <       0.00035302 Ry

     total magnetization       =     3.07 Bohr mag/cell
     absolute magnetization    =     3.23 Bohr mag/cell

     iteration # 66     ecut=    40.00 Ry     beta= 0.40
[...]

     negative rho (up, down):  1.445E-04 1.669E-03

     total cpu time spent up to now is       54.7 secs

     total energy              =    -424.30057025 Ry
     estimated scf accuracy    <       0.00053574 Ry

     total magnetization       =     3.59 Bohr mag/cell
     absolute magnetization    =     3.75 Bohr mag/cell

     iteration # 80     ecut=    40.00 Ry     beta= 0.40
     RMM-DIIS diagonalization

---- Real-time Memory Report at c_bands before calling an iterative solver
            69 MiB given to the printing process from OS
            26 MiB allocation reported by mallinfo(arena+hblkhd)
        486552 MiB available memory on the node where the printing process lives
------------------
     ethr =  6.22E-07,  avg # of iterations =  2.9

     negative rho (up, down):  2.471E-04 1.589E-03

     total cpu time spent up to now is       55.1 secs

     total energy              =    -424.29771824 Ry
     estimated scf accuracy    <       0.00042260 Ry

     total magnetization       =     3.42 Bohr mag/cell
     absolute magnetization    =     3.59 Bohr mag/cell

     iteration # 81     ecut=    40.00 Ry     beta= 0.40
     ParO style diagonalization

---- Real-time Memory Report at c_bands before calling an iterative solver
            69 MiB given to the printing process from OS
            26 MiB allocation reported by mallinfo(arena+hblkhd)
        486552 MiB available memory on the node where the printing process lives
------------------
     ethr =  6.22E-07,  avg # of iterations =  9.2

     negative rho (up, down):  5.020E-04 1.389E-03

     total cpu time spent up to now is       56.6 secs

     total energy              =    -424.27655525 Ry
     estimated scf accuracy    <       0.00040200 Ry

     total magnetization       =     2.73 Bohr mag/cell
     absolute magnetization    =     2.90 Bohr mag/cell

     iteration # 82     ecut=    40.00 Ry     beta= 0.40
     RMM-DIIS diagonalization

---- Real-time Memory Report at c_bands before calling an iterative solver
            69 MiB given to the printing process from OS
            26 MiB allocation reported by mallinfo(arena+hblkhd)
        486552 MiB available memory on the node where the printing process lives
------------------
     ethr =  6.22E-07,  avg # of iterations =  4.8

     negative rho (up, down):  7.530E-04 1.190E-03

     total cpu time spent up to now is       57.2 secs

     total energy              =    -424.32902111 Ry
     estimated scf accuracy    <       0.01930047 Ry

     total magnetization       =     0.49 Bohr mag/cell
     absolute magnetization    =     4.06 Bohr mag/cell

     iteration # 83     ecut=    40.00 Ry     beta= 0.40
     RMM-DIIS diagonalization

---- Real-time Memory Report at c_bands before calling an iterative solver
            69 MiB given to the printing process from OS
            26 MiB allocation reported by mallinfo(arena+hblkhd)
        486550 MiB available memory on the node where the printing process lives
------------------
     ethr =  6.22E-07,  avg # of iterations =  5.0
     Minimization algorithm failed to find Fermi energy: reverting to bisection
     Possible cause: smearing is larger than the electronic band-gap.

     negative rho (up, down):  3.053E-04 1.545E-03

     total cpu time spent up to now is       57.9 secs

     total energy              =    -424.20875056 Ry
     estimated scf accuracy    <       0.13449535 Ry

     total magnetization       =    -0.03 Bohr mag/cell
     absolute magnetization    =     5.63 Bohr mag/cell

     iteration # 84     ecut=    40.00 Ry     beta= 0.40
     RMM-DIIS diagonalization

---- Real-time Memory Report at c_bands before calling an iterative solver
            69 MiB given to the printing process from OS
            26 MiB allocation reported by mallinfo(arena+hblkhd)
        486550 MiB available memory on the node where the printing process lives
------------------
     ethr =  6.22E-07,  avg # of iterations =  5.0

     negative rho (up, down):  2.068E-04 1.623E-03

     total cpu time spent up to now is       58.5 secs

     total energy              =    -424.29446727 Ry
     estimated scf accuracy    <       0.00220090 Ry

     total magnetization       =     2.28 Bohr mag/cell
     absolute magnetization    =     2.53 Bohr mag/cell

     iteration # 85     ecut=    40.00 Ry     beta= 0.40
     RMM-DIIS diagonalization

---- Real-time Memory Report at c_bands before calling an iterative solver
            69 MiB given to the printing process from OS
            26 MiB allocation reported by mallinfo(arena+hblkhd)
        486549 MiB available memory on the node where the printing process lives
------------------
     ethr =  6.22E-07,  avg # of iterations =  4.3

     negative rho (up, down):  4.846E-05 1.750E-03

     total cpu time spent up to now is       59.0 secs

     total energy              =    -424.28414099 Ry
     estimated scf accuracy    <       0.00050589 Ry

     total magnetization       =     3.05 Bohr mag/cell
     absolute magnetization    =     3.19 Bohr mag/cell

     iteration # 86     ecut=    40.00 Ry     beta= 0.40
     ParO style diagonalization

---- Real-time Memory Report at c_bands before calling an iterative solver
            69 MiB given to the printing process from OS
            26 MiB allocation reported by mallinfo(arena+hblkhd)
        486549 MiB available memory on the node where the printing process lives
------------------
     ethr =  6.22E-07,  avg # of iterations = 10.6

     negative rho (up, down):  4.044E-05 1.757E-03

     total cpu time spent up to now is       60.7 secs

     total energy              =    -424.29734778 Ry
     estimated scf accuracy    <       0.00140139 Ry

     total magnetization       =     3.96 Bohr mag/cell
     absolute magnetization    =     4.14 Bohr mag/cell

     iteration # 87     ecut=    40.00 Ry     beta= 0.40
     RMM-DIIS diagonalization

---- Real-time Memory Report at c_bands before calling an iterative solver
            69 MiB given to the printing process from OS
            26 MiB allocation reported by mallinfo(arena+hblkhd)
        486549 MiB available memory on the node where the printing process lives
------------------
     ethr =  6.22E-07,  avg # of iterations =  2.5

     negative rho (up, down):  1.223E-05 1.780E-03

     total cpu time spent up to now is       61.0 secs

     total energy              =    -424.29559022 Ry
     estimated scf accuracy    <       0.00155333 Ry

     total magnetization       =     4.00 Bohr mag/cell
     absolute magnetization    =     4.17 Bohr mag/cell

     iteration # 88     ecut=    40.00 Ry     beta= 0.40
     RMM-DIIS diagonalization

---- Real-time Memory Report at c_bands before calling an iterative solver
            69 MiB given to the printing process from OS
            26 MiB allocation reported by mallinfo(arena+hblkhd)
        486549 MiB available memory on the node where the printing process lives
------------------
     ethr =  6.22E-07,  avg # of iterations =  2.9

     negative rho (up, down):  1.042E-04 1.707E-03

     total cpu time spent up to now is       61.4 secs

     total energy              =    -424.29675168 Ry
     estimated scf accuracy    <       0.00219922 Ry

     total magnetization       =     4.13 Bohr mag/cell
     absolute magnetization    =     4.30 Bohr mag/cell

     iteration # 89     ecut=    40.00 Ry     beta= 0.40
     RMM-DIIS diagonalization

---- Real-time Memory Report at c_bands before calling an iterative solver
            69 MiB given to the printing process from OS
            26 MiB allocation reported by mallinfo(arena+hblkhd)
        486549 MiB available memory on the node where the printing process lives
------------------
     ethr =  6.22E-07,  avg # of iterations =  3.8

     negative rho (up, down):  1.442E-05 1.779E-03

     total cpu time spent up to now is       61.9 secs

     total energy              =    -424.29292635 Ry
     estimated scf accuracy    <       0.00068890 Ry

     total magnetization       =     3.69 Bohr mag/cell
     absolute magnetization    =     3.87 Bohr mag/cell

     iteration # 90     ecut=    40.00 Ry     beta= 0.40
     RMM-DIIS diagonalization

---- Real-time Memory Report at c_bands before calling an iterative solver
            69 MiB given to the printing process from OS
            26 MiB allocation reported by mallinfo(arena+hblkhd)
        486549 MiB available memory on the node where the printing process lives
------------------
     ethr =  6.22E-07,  avg # of iterations =  3.6

     negative rho (up, down):  2.400E-05 1.770E-03

     total cpu time spent up to now is       62.4 secs

     total energy              =    -424.29650667 Ry
     estimated scf accuracy    <       0.00213613 Ry

     total magnetization       =     4.12 Bohr mag/cell
     absolute magnetization    =     4.29 Bohr mag/cell

     iteration # 91     ecut=    40.00 Ry     beta= 0.40
     ParO style diagonalization

---- Real-time Memory Report at c_bands before calling an iterative solver
            69 MiB given to the printing process from OS
            26 MiB allocation reported by mallinfo(arena+hblkhd)
        486549 MiB available memory on the node where the printing process lives
------------------
     ethr =  6.22E-07,  avg # of iterations =  5.9

     negative rho (up, down):  2.661E-04 1.572E-03

     total cpu time spent up to now is       63.5 secs

     total energy              =    -424.27823396 Ry
     estimated scf accuracy    <       0.00190610 Ry

     total magnetization       =     4.08 Bohr mag/cell
     absolute magnetization    =     4.25 Bohr mag/cell

     iteration # 92     ecut=    40.00 Ry     beta= 0.40
     RMM-DIIS diagonalization

---- Real-time Memory Report at c_bands before calling an iterative solver
            69 MiB given to the printing process from OS
            26 MiB allocation reported by mallinfo(arena+hblkhd)
        486549 MiB available memory on the node where the printing process lives
------------------
     ethr =  6.22E-07,  avg # of iterations =  4.7

     negative rho (up, down):  1.671E-04 1.653E-03

     total cpu time spent up to now is       64.1 secs

     total energy              =    -424.29598647 Ry
     estimated scf accuracy    <       0.00066185 Ry

     total magnetization       =     2.59 Bohr mag/cell
     absolute magnetization    =     2.80 Bohr mag/cell

     iteration # 93     ecut=    40.00 Ry     beta= 0.40
     RMM-DIIS diagonalization

---- Real-time Memory Report at c_bands before calling an iterative solver
            69 MiB given to the printing process from OS
            26 MiB allocation reported by mallinfo(arena+hblkhd)
        486549 MiB available memory on the node where the printing process lives
------------------
     ethr =  6.22E-07,  avg # of iterations =  3.6

     negative rho (up, down):  2.460E-04 1.591E-03

     total cpu time spent up to now is       64.6 secs

     total energy              =    -424.29986490 Ry
     estimated scf accuracy    <       0.00034667 Ry

     total magnetization       =     3.30 Bohr mag/cell
     absolute magnetization    =     3.46 Bohr mag/cell

     iteration # 94     ecut=    40.00 Ry     beta= 0.40
     RMM-DIIS diagonalization

---- Real-time Memory Report at c_bands before calling an iterative solver
            69 MiB given to the printing process from OS
            26 MiB allocation reported by mallinfo(arena+hblkhd)
        486548 MiB available memory on the node where the printing process lives
------------------
     ethr =  6.22E-07,  avg # of iterations =  3.9

     negative rho (up, down):  2.915E-04 1.554E-03

     total cpu time spent up to now is       65.1 secs

     total energy              =    -424.30337871 Ry
     estimated scf accuracy    <       0.00037925 Ry

     total magnetization       =     2.75 Bohr mag/cell
     absolute magnetization    =     2.93 Bohr mag/cell

     iteration # 95     ecut=    40.00 Ry     beta= 0.40
     RMM-DIIS diagonalization

---- Real-time Memory Report at c_bands before calling an iterative solver
            69 MiB given to the printing process from OS
            26 MiB allocation reported by mallinfo(arena+hblkhd)
        486548 MiB available memory on the node where the printing process lives
------------------
     ethr =  6.22E-07,  avg # of iterations =  3.8

     negative rho (up, down):  2.970E-04 1.550E-03

     total cpu time spent up to now is       65.7 secs

     total energy              =    -424.30514778 Ry
     estimated scf accuracy    <       0.00075601 Ry

     total magnetization       =     2.38 Bohr mag/cell
     absolute magnetization    =     2.62 Bohr mag/cell

     iteration # 96     ecut=    40.00 Ry     beta= 0.40
     ParO style diagonalization

---- Real-time Memory Report at c_bands before calling an iterative solver
            69 MiB given to the printing process from OS
            26 MiB allocation reported by mallinfo(arena+hblkhd)
        486548 MiB available memory on the node where the printing process lives
------------------
     ethr =  6.22E-07,  avg # of iterations =  8.6

     negative rho (up, down):  2.647E-04 1.575E-03

     total cpu time spent up to now is       67.1 secs

     total energy              =    -424.30327598 Ry
     estimated scf accuracy    <       0.00098125 Ry

     total magnetization       =     2.33 Bohr mag/cell
     absolute magnetization    =     2.59 Bohr mag/cell

     iteration # 97     ecut=    40.00 Ry     beta= 0.40
     RMM-DIIS diagonalization

---- Real-time Memory Report at c_bands before calling an iterative solver
            69 MiB given to the printing process from OS
            26 MiB allocation reported by mallinfo(arena+hblkhd)
        486548 MiB available memory on the node where the printing process lives
------------------
     ethr =  6.22E-07,  avg # of iterations =  3.0

     negative rho (up, down):  1.926E-04 1.632E-03

     total cpu time spent up to now is       67.5 secs

     total energy              =    -424.29870507 Ry
     estimated scf accuracy    <       0.00059406 Ry

     total magnetization       =     2.60 Bohr mag/cell
     absolute magnetization    =     2.77 Bohr mag/cell

     iteration # 98     ecut=    40.00 Ry     beta= 0.40
     RMM-DIIS diagonalization

---- Real-time Memory Report at c_bands before calling an iterative solver
            69 MiB given to the printing process from OS
            26 MiB allocation reported by mallinfo(arena+hblkhd)
        486548 MiB available memory on the node where the printing process lives
------------------
     ethr =  6.22E-07,  avg # of iterations =  3.8

     negative rho (up, down):  1.031E-04 1.703E-03

     total cpu time spent up to now is       68.0 secs

     total energy              =    -424.29539621 Ry
     estimated scf accuracy    <       0.00031088 Ry

     total magnetization       =     3.13 Bohr mag/cell
     absolute magnetization    =     3.28 Bohr mag/cell

     iteration # 99     ecut=    40.00 Ry     beta= 0.40
     RMM-DIIS diagonalization

---- Real-time Memory Report at c_bands before calling an iterative solver
            69 MiB given to the printing process from OS
            26 MiB allocation reported by mallinfo(arena+hblkhd)
        486548 MiB available memory on the node where the printing process lives
------------------
     ethr =  6.22E-07,  avg # of iterations =  4.2

     negative rho (up, down):  2.287E-04 1.604E-03

     total cpu time spent up to now is       68.6 secs

     total energy              =    -424.29549975 Ry
     estimated scf accuracy    <       0.00056483 Ry

     total magnetization       =     3.67 Bohr mag/cell
     absolute magnetization    =     3.82 Bohr mag/cell

     iteration #100     ecut=    40.00 Ry     beta= 0.40
     RMM-DIIS diagonalization

---- Real-time Memory Report at c_bands before calling an iterative solver
            69 MiB given to the printing process from OS
            26 MiB allocation reported by mallinfo(arena+hblkhd)
        486547 MiB available memory on the node where the printing process lives
------------------
     ethr =  6.22E-07,  avg # of iterations =  3.9

     negative rho (up, down):  1.808E-04 1.643E-03

     total cpu time spent up to now is       69.1 secs

     total energy              =    -424.30051236 Ry
     estimated scf accuracy    <       0.00032201 Ry

     total magnetization       =     2.88 Bohr mag/cell
     absolute magnetization    =     3.05 Bohr mag/cell

     End of self-consistent calculation

     convergence NOT achieved after 100 iterations: stopping

     Writing config to output data dir ./out/aiida.save/ :
     XML data file, charge density

     init_run     :      1.12s CPU      1.28s WALL (       1 calls)
     electrons    :     62.65s CPU     67.06s WALL (       1 calls)

     Called by init_run:
     wfcinit      :      0.16s CPU      0.26s WALL (       1 calls)
     wfcinit:atom :      0.00s CPU      0.00s WALL (      21 calls)
     wfcinit:wfcr :      0.15s CPU      0.24s WALL (      21 calls)
     potinit      :      0.29s CPU      0.33s WALL (       1 calls)
     hinit0       :      0.51s CPU      0.52s WALL (       1 calls)

     Called by electrons:
     c_bands      :     54.00s CPU     57.76s WALL (     100 calls)
     sum_band     :      6.02s CPU      6.39s WALL (     100 calls)
     v_of_rho     :      1.37s CPU      1.43s WALL (     101 calls)
     v_h          :      0.03s CPU      0.04s WALL (     101 calls)
     v_xc         :      1.34s CPU      1.39s WALL (     101 calls)
     newd         :      0.93s CPU      0.94s WALL (     101 calls)
     mix_rho      :      0.22s CPU      0.23s WALL (     100 calls)

     Called by c_bands:
     init_us_2    :      0.43s CPU      0.45s WALL (    4221 calls)
     init_us_2:cp :      0.42s CPU      0.44s WALL (    4221 calls)
     crmmdiagg    :     15.38s CPU     16.26s WALL (    1680 calls)
     wfcrot       :      7.93s CPU      8.72s WALL (    1701 calls)

     Called by sum_band:
     sum_band:wei :      0.14s CPU      0.14s WALL (     100 calls)
     sum_band:loo :      4.30s CPU      4.63s WALL (     100 calls)
     sum_band:buf :      0.03s CPU      0.04s WALL (    2100 calls)
     sum_band:ini :      0.20s CPU      0.22s WALL (    2100 calls)
     sum_band:cal :      0.41s CPU      0.45s WALL (    2100 calls)
     sum_band:bec :      0.03s CPU      0.04s WALL (    2100 calls)
     addusdens    :      1.10s CPU      1.11s WALL (     100 calls)
                                        0.00s GPU  (     100 calls)
     addusd:skk   :      0.00s CPU      0.00s WALL (     400 calls)
                                        0.00s GPU  (     400 calls)

     Called by *rmmdiagg:
     h_psi        :     31.58s CPU     34.03s WALL (   16083 calls)
     s_psi        :      1.50s CPU      1.55s WALL (   16083 calls)
     g_psi        :      0.14s CPU      0.19s WALL (   99498 calls)

     Called by h_psi:
     h_psi:calbec :      1.99s CPU      2.15s WALL (   16083 calls)
     vloc_psi     :     27.90s CPU     30.09s WALL (   16083 calls)
     add_vuspsi   :      1.53s CPU      1.60s WALL (   16083 calls)

     General routines
     calbec       :      2.36s CPU      2.55s WALL (   18183 calls)
     fft          :      0.89s CPU      0.98s WALL (    2523 calls)
     ffts         :      0.32s CPU      0.32s WALL (     402 calls)
     fftw         :     27.26s CPU     29.25s WALL (  523656 calls)
     interpolate  :      0.33s CPU      0.35s WALL (     202 calls)
     davcio       :      0.00s CPU      0.26s WALL (      39 calls)

     Parallel routines

     PWSCF        :   1m 4.20s CPU   1m 9.45s WALL


   This run was terminated on:   4: 0:53  30Nov2023            

=------------------------------------------------------------------------------=
   JOB DONE.
=------------------------------------------------------------------------------=
