
     Program PWSCF v.7.2 starts on 22Oct2023 at 22:35:24 

     This program is part of the open-source Quantum ESPRESSO suite
     for quantum simulation of materials; please cite
         "P. Giannozzi et al., J. Phys.:Condens. Matter 21 395502 (2009);
         "P. Giannozzi et al., J. Phys.:Condens. Matter 29 465901 (2017);
         "P. Giannozzi et al., J. Chem. Phys. 152 154105 (2020);
          URL http://www.quantum-espresso.org", 
     in publications or presentations arising from this work. More details at
     http://www.quantum-espresso.org/quote

     Parallel version (MPI & OpenMP), running on      12 processor cores
     Number of MPI processes:                 1
     Threads/MPI process:                    12

     MPI processes distributed on     1 nodes
     40516 MiB available memory on the printing compute node when the environment starts
 
     Reading input from aiida.in

     Current dimensions of program PWSCF are:
     Max number of different atomic species (ntypx) = 10
     Max number of k-points (npk) =  40000
     Max angular momentum in pseudopotentials (lmaxx) =  4
     Message from routine setup:
     using ibrav=0 with symmetry is DISCOURAGED, use correct ibrav instead
 
     Subspace diagonalization in iterative solution of the eigenvalue problem:
     a serial algorithm will be used

 
     G-vector sticks info
     --------------------
     sticks:   dense  smooth     PW     G-vecs:    dense   smooth      PW
     Sum        1573     793    241                41151    14553    2445
 
     Using Slab Decomposition
 


     bravais-lattice index     =            0
     lattice parameter (alat)  =       8.4584  a.u.
     unit-cell volume          =     427.9054 (a.u.)^3
     number of atoms/cell      =            4
     number of atomic types    =            4
     number of electrons       =        52.00
     number of Kohn-Sham states=           31
     kinetic-energy cutoff     =      40.0000  Ry
     charge density cutoff     =     320.0000  Ry
     scf convergence threshold =      8.0E-10
     mixing beta               =       0.4000
     number of iterations used =            8  plain     mixing
     Exchange-correlation= SLA  PW   PSX  PSC
                           (   1   4  10   8   0   0   0)

     GPU acceleration is ACTIVE.


     GPU used by master process:

        Device Number: 0
        Device name: Tesla P100-PCIE-16GB
        Compute capability : 60
        Ratio of single to double precision performance  : 2
        Memory Clock Rate (KHz): 715000
        Memory Bus Width (bits): 4096
        Peak Memory Bandwidth (GB/s): 732.16

     celldm(1)=   8.458388  celldm(2)=   0.000000  celldm(3)=   0.000000
     celldm(4)=   0.000000  celldm(5)=   0.000000  celldm(6)=   0.000000

     crystal axes: (cart. coord. in units of alat)
               a(1) = (   0.000000   0.707107   0.707107 )  
               a(2) = (   0.707107   0.000000   0.707107 )  
               a(3) = (   0.707107   0.707107   0.000000 )  

     reciprocal axes: (cart. coord. in units 2 pi/alat)
               b(1) = ( -0.707107  0.707107  0.707107 )  
               b(2) = (  0.707107 -0.707107  0.707107 )  
               b(3) = (  0.707107  0.707107 -0.707107 )  


     PseudoPot. # 1 for Cr read from file:
     ./pseudo/cr_pbesol_v1.5.uspp.F.UPF
     MD5 check sum: a621641e0be27168676a837af8893d0f
     Pseudo is Ultrasoft + core correction, Zval = 14.0
     Generated by new atomic code, or converted to UPF format
     Using radial grid of  857 points,  6 beta functions with: 
                l(1) =   0
                l(2) =   0
                l(3) =   1
                l(4) =   1
                l(5) =   2
                l(6) =   2
     Q(r) pseudized with  8 coefficients,  rinner =    0.950   0.950   0.950
                                                       0.950   0.950

     PseudoPot. # 2 for Ge read from file:
     ./pseudo/ge_pbesol_v1.4.uspp.F.UPF
     MD5 check sum: 7bed0412183f5e553a4d27ec7023354d
     Pseudo is Ultrasoft + core correction, Zval = 14.0
     Generated by new atomic code, or converted to UPF format
     Using radial grid of  873 points,  6 beta functions with: 
                l(1) =   0
                l(2) =   0
                l(3) =   1
                l(4) =   1
                l(5) =   2
                l(6) =   2
     Q(r) pseudized with  8 coefficients,  rinner =    1.400   1.400   1.400
                                                       1.400   1.400

     PseudoPot. # 3 for V  read from file:
     ./pseudo/v_pbesol_v1.4.uspp.F.UPF
     MD5 check sum: 72fa7d0034c41d8adc50bbc8c632b9f9
     Pseudo is Ultrasoft + core correction, Zval = 13.0
     Generated by new atomic code, or converted to UPF format
     Using radial grid of  853 points,  6 beta functions with: 
                l(1) =   0
                l(2) =   0
                l(3) =   1
                l(4) =   1
                l(5) =   2
                l(6) =   2
     Q(r) pseudized with  8 coefficients,  rinner =    1.100   1.100   1.100
                                                       1.100   1.100

     PseudoPot. # 4 for Y  read from file:
     ./pseudo/y_pbesol_v1.4.uspp.F.UPF
     MD5 check sum: dac24993bfd4491f22c7b9129ad9e93d
     Pseudo is Ultrasoft + core correction, Zval = 11.0
     Generated by new atomic code, or converted to UPF format
     Using radial grid of  885 points,  6 beta functions with: 
                l(1) =   0
                l(2) =   0
                l(3) =   1
                l(4) =   1
                l(5) =   2
                l(6) =   2
     Q(r) pseudized with  8 coefficients,  rinner =    1.200   1.200   1.200
                                                       1.200   1.200

     atomic species   valence    mass     pseudopotential
        Cr            14.00    51.99610     Cr( 1.00)
        Ge            14.00    72.64000     Ge( 1.00)
        V             13.00    50.94150     V ( 1.00)
        Y             11.00    88.90585     Y ( 1.00)

     Starting magnetic structure 
     atomic species   magnetization
        Cr           0.357
        Ge           0.100
        V            0.385
        Y            0.455

     24 Sym. Ops. (no inversion) found


                                    s                        frac. trans.

      isym =  1     identity                                     

 cryst.   s( 1) = (     1          0          0      )
                  (     0          1          0      )
                  (     0          0          1      )

 cart.    s( 1) = (  1.0000000 -0.0000000  0.0000000 )
                  ( -0.0000000  1.0000000  0.0000000 )
                  ( -0.0000000  0.0000000  1.0000000 )


      isym =  2     180 deg rotation - cart. axis [0,0,1]        

 cryst.   s( 2) = (     0          1         -1      )
                  (     1          0         -1      )
                  (     0          0         -1      )

 cart.    s( 2) = ( -1.0000000  0.0000000  0.0000000 )
                  (  0.0000000 -1.0000000  0.0000000 )
                  (  0.0000000 -0.0000000  1.0000000 )


      isym =  3     180 deg rotation - cart. axis [0,1,0]        

 cryst.   s( 3) = (     0         -1          1      )
                  (     0         -1          0      )
                  (     1         -1          0      )

 cart.    s( 3) = ( -1.0000000 -0.0000000 -0.0000000 )
                  (  0.0000000  1.0000000 -0.0000000 )
                  (  0.0000000  0.0000000 -1.0000000 )


      isym =  4     180 deg rotation - cart. axis [1,0,0]        

 cryst.   s( 4) = (    -1          0          0      )
                  (    -1          0          1      )
                  (    -1          1          0      )

 cart.    s( 4) = (  1.0000000  0.0000000 -0.0000000 )
                  ( -0.0000000 -1.0000000 -0.0000000 )
                  ( -0.0000000 -0.0000000 -1.0000000 )


      isym =  5     120 deg rotation - cart. axis [-1,-1,-1]     

 cryst.   s( 5) = (     0          0          1      )
                  (     1          0          0      )
                  (     0          1          0      )

 cart.    s( 5) = (  0.0000000  1.0000000 -0.0000000 )
                  (  0.0000000 -0.0000000  1.0000000 )
                  (  1.0000000 -0.0000000  0.0000000 )


      isym =  6     120 deg rotation - cart. axis [-1,1,1]       

 cryst.   s( 6) = (     1         -1          0      )
                  (     0         -1          1      )
                  (     0         -1          0      )

 cart.    s( 6) = ( -0.0000000 -1.0000000 -0.0000000 )
                  ( -0.0000000  0.0000000  1.0000000 )
                  ( -1.0000000  0.0000000  0.0000000 )


      isym =  7     120 deg rotation - cart. axis [1,1,-1]       

 cryst.   s( 7) = (    -1          1          0      )
                  (    -1          0          0      )
                  (    -1          0          1      )

 cart.    s( 7) = ( -0.0000000  1.0000000  0.0000000 )
                  ( -0.0000000 -0.0000000 -1.0000000 )
                  ( -1.0000000 -0.0000000 -0.0000000 )


      isym =  8     120 deg rotation - cart. axis [1,-1,1]       

 cryst.   s( 8) = (     0          0         -1      )
                  (     0          1         -1      )
                  (     1          0         -1      )

 cart.    s( 8) = (  0.0000000 -1.0000000  0.0000000 )
                  (  0.0000000  0.0000000 -1.0000000 )
                  (  1.0000000  0.0000000 -0.0000000 )


      isym =  9     120 deg rotation - cart. axis [1,1,1]        

 cryst.   s( 9) = (     0          1          0      )
                  (     0          0          1      )
                  (     1          0          0      )

 cart.    s( 9) = ( -0.0000000  0.0000000  1.0000000 )
                  (  1.0000000  0.0000000 -0.0000000 )
                  (  0.0000000  1.0000000 -0.0000000 )


      isym = 10     120 deg rotation - cart. axis [-1,1,-1]      

 cryst.   s(10) = (    -1          0          1      )
                  (    -1          1          0      )
                  (    -1          0          0      )

 cart.    s(10) = (  0.0000000 -0.0000000  1.0000000 )
                  ( -1.0000000 -0.0000000 -0.0000000 )
                  ( -0.0000000 -1.0000000 -0.0000000 )


      isym = 11     120 deg rotation - cart. axis [1,-1,-1]      

 cryst.   s(11) = (     1          0         -1      )
                  (     0          0         -1      )
                  (     0          1         -1      )

 cart.    s(11) = (  0.0000000  0.0000000 -1.0000000 )
                  ( -1.0000000  0.0000000  0.0000000 )
                  ( -0.0000000  1.0000000  0.0000000 )


      isym = 12     120 deg rotation - cart. axis [-1,-1,1]      

 cryst.   s(12) = (     0         -1          0      )
                  (     1         -1          0      )
                  (     0         -1          1      )

 cart.    s(12) = ( -0.0000000 -0.0000000 -1.0000000 )
                  (  1.0000000 -0.0000000  0.0000000 )
                  (  0.0000000 -1.0000000  0.0000000 )


      isym = 13     inv. 180 deg rotation - cart. axis [1,1,0]   

 cryst.   s(13) = (     1          0         -1      )
                  (     0          1         -1      )
                  (     0          0         -1      )

 cart.    s(13) = (  0.0000000 -1.0000000  0.0000000 )
                  ( -1.0000000  0.0000000  0.0000000 )
                  ( -0.0000000  0.0000000  1.0000000 )


      isym = 14     inv. 180 deg rotation - cart. axis [1,-1,0]  

 cryst.   s(14) = (     0          1          0      )
                  (     1          0          0      )
                  (     0          0          1      )

 cart.    s(14) = ( -0.0000000  1.0000000  0.0000000 )
                  (  1.0000000 -0.0000000  0.0000000 )
                  (  0.0000000 -0.0000000  1.0000000 )


      isym = 15     inv.  90 deg rotation - cart. axis [0,0,-1]  

 cryst.   s(15) = (     0         -1          0      )
                  (     0         -1          1      )
                  (     1         -1          0      )

 cart.    s(15) = ( -0.0000000 -1.0000000 -0.0000000 )
                  (  1.0000000  0.0000000 -0.0000000 )
                  (  0.0000000  0.0000000 -1.0000000 )


      isym = 16     inv.  90 deg rotation - cart. axis [0,0,1]   

 cryst.   s(16) = (    -1          0          1      )
                  (    -1          0          0      )
                  (    -1          1          0      )

 cart.    s(16) = (  0.0000000  1.0000000 -0.0000000 )
                  ( -1.0000000 -0.0000000 -0.0000000 )
                  ( -0.0000000 -0.0000000 -1.0000000 )


      isym = 17     inv. 180 deg rotation - cart. axis [1,0,1]   

 cryst.   s(17) = (     1         -1          0      )
                  (     0         -1          0      )
                  (     0         -1          1      )

 cart.    s(17) = ( -0.0000000 -0.0000000 -1.0000000 )
                  ( -0.0000000  1.0000000  0.0000000 )
                  ( -1.0000000  0.0000000  0.0000000 )


      isym = 18     inv. 180 deg rotation - cart. axis [-1,0,1]  

 cryst.   s(18) = (     0          0          1      )
                  (     0          1          0      )
                  (     1          0          0      )

 cart.    s(18) = (  0.0000000 -0.0000000  1.0000000 )
                  (  0.0000000  1.0000000 -0.0000000 )
                  (  1.0000000  0.0000000 -0.0000000 )


      isym = 19     inv.  90 deg rotation - cart. axis [0,1,0]   

 cryst.   s(19) = (     0          0         -1      )
                  (     1          0         -1      )
                  (     0          1         -1      )

 cart.    s(19) = (  0.0000000  0.0000000 -1.0000000 )
                  (  0.0000000 -1.0000000  0.0000000 )
                  (  1.0000000 -0.0000000  0.0000000 )


      isym = 20     inv.  90 deg rotation - cart. axis [0,-1,0]  

 cryst.   s(20) = (    -1          1          0      )
                  (    -1          0          1      )
                  (    -1          0          0      )

 cart.    s(20) = ( -0.0000000  0.0000000  1.0000000 )
                  ( -0.0000000 -1.0000000 -0.0000000 )
                  ( -1.0000000 -0.0000000 -0.0000000 )


      isym = 21     inv. 180 deg rotation - cart. axis [0,1,1]   

 cryst.   s(21) = (    -1          0          0      )
                  (    -1          1          0      )
                  (    -1          0          1      )

 cart.    s(21) = (  1.0000000 -0.0000000  0.0000000 )
                  ( -0.0000000 -0.0000000 -1.0000000 )
                  ( -0.0000000 -1.0000000 -0.0000000 )


      isym = 22     inv. 180 deg rotation - cart. axis [0,1,-1]  

 cryst.   s(22) = (     1          0          0      )
                  (     0          0          1      )
                  (     0          1          0      )

 cart.    s(22) = (  1.0000000  0.0000000 -0.0000000 )
                  ( -0.0000000  0.0000000  1.0000000 )
                  ( -0.0000000  1.0000000  0.0000000 )


      isym = 23     inv.  90 deg rotation - cart. axis [-1,0,0]  

 cryst.   s(23) = (     0          1         -1      )
                  (     0          0         -1      )
                  (     1          0         -1      )

 cart.    s(23) = ( -1.0000000  0.0000000  0.0000000 )
                  (  0.0000000  0.0000000 -1.0000000 )
                  (  0.0000000  1.0000000 -0.0000000 )


      isym = 24     inv.  90 deg rotation - cart. axis [1,0,0]   

 cryst.   s(24) = (     0         -1          1      )
                  (     1         -1          0      )
                  (     0         -1          0      )

 cart.    s(24) = ( -1.0000000 -0.0000000 -0.0000000 )
                  (  0.0000000 -0.0000000  1.0000000 )
                  (  0.0000000 -1.0000000  0.0000000 )


   Cartesian axes

     site n.     atom                  positions (alat units)
         1           Y   tau(   1) = (   0.3535534   0.3535534   0.3535534  )
         2           V   tau(   2) = (   0.7071068   0.0000000   0.0000000  )
         3           Cr  tau(   3) = (   0.0000000   0.0000000   0.0000000  )
         4           Ge  tau(   4) = (   0.3535534   0.3535534   1.0606602  )

   Crystallographic axes

     site n.     atom                  positions (cryst. coord.)
         1           Y   tau(   1) = (  0.2500000  0.2500000  0.2500000  )
         2           V   tau(   2) = ( -0.5000000  0.5000000  0.5000000  )
         3           Cr  tau(   3) = (  0.0000000  0.0000000  0.0000000  )
         4           Ge  tau(   4) = (  0.7500000  0.7500000 -0.2500000  )

     number of k points=    72  Marzari-Vanderbilt smearing, width (Ry)=  0.0100
                       cart. coord. in units 2pi/alat
        k(    1) = (   0.0000000   0.0000000   0.0000000), wk =   0.0005787
        k(    2) = (   0.0589256   0.0589256  -0.0589256), wk =   0.0046296
        k(    3) = (   0.1178511   0.1178511  -0.1178511), wk =   0.0046296
        k(    4) = (   0.1767767   0.1767767  -0.1767767), wk =   0.0046296
        k(    5) = (   0.2357023   0.2357023  -0.2357023), wk =   0.0046296
        k(    6) = (   0.2946278   0.2946278  -0.2946278), wk =   0.0046296
        k(    7) = (  -0.3535534  -0.3535534   0.3535534), wk =   0.0023148
        k(    8) = (   0.1178511   0.0000000  -0.0000000), wk =   0.0034722
        k(    9) = (   0.1767767   0.0589256  -0.0589256), wk =   0.0138889
        k(   10) = (   0.2357023   0.1178511  -0.1178511), wk =   0.0138889
        k(   11) = (   0.2946278   0.1767767  -0.1767767), wk =   0.0138889
        k(   12) = (   0.3535534   0.2357023  -0.2357023), wk =   0.0138889
        k(   13) = (  -0.2946278  -0.4124790   0.4124790), wk =   0.0138889
        k(   14) = (  -0.2357023  -0.3535534   0.3535534), wk =   0.0138889
        k(   15) = (  -0.1767767  -0.2946278   0.2946278), wk =   0.0138889
        k(   16) = (  -0.1178511  -0.2357023   0.2357023), wk =   0.0138889
        k(   17) = (  -0.0589256  -0.1767767   0.1767767), wk =   0.0138889
        k(   18) = (  -0.0000000  -0.1178511   0.1178511), wk =   0.0069444
        k(   19) = (   0.2357023   0.0000000  -0.0000000), wk =   0.0034722
        k(   20) = (   0.2946278   0.0589256  -0.0589256), wk =   0.0138889
        k(   21) = (   0.3535534   0.1178511  -0.1178511), wk =   0.0138889
        k(   22) = (   0.4124790   0.1767767  -0.1767767), wk =   0.0138889
        k(   23) = (  -0.2357023  -0.4714045   0.4714045), wk =   0.0138889
        k(   24) = (  -0.1767767  -0.4124790   0.4124790), wk =   0.0138889
        k(   25) = (  -0.1178511  -0.3535534   0.3535534), wk =   0.0138889
        k(   26) = (  -0.0589256  -0.2946278   0.2946278), wk =   0.0138889
        k(   27) = (   0.0000000  -0.2357023   0.2357023), wk =   0.0069444
        k(   28) = (   0.3535534   0.0000000   0.0000000), wk =   0.0034722
        k(   29) = (   0.4124790   0.0589256  -0.0589256), wk =   0.0138889
        k(   30) = (   0.4714045   0.1178511  -0.1178511), wk =   0.0138889
        k(   31) = (  -0.1767767  -0.5303301   0.5303301), wk =   0.0138889
        k(   32) = (  -0.1178511  -0.4714045   0.4714045), wk =   0.0138889
        k(   33) = (  -0.0589256  -0.4124790   0.4124790), wk =   0.0138889
        k(   34) = (   0.0000000  -0.3535534   0.3535534), wk =   0.0069444
        k(   35) = (   0.4714045   0.0000000  -0.0000000), wk =   0.0034722
        k(   36) = (   0.5303301   0.0589256  -0.0589256), wk =   0.0138889
        k(   37) = (  -0.1178511  -0.5892557   0.5892557), wk =   0.0138889
        k(   38) = (  -0.0589256  -0.5303301   0.5303301), wk =   0.0138889
        k(   39) = (  -0.0000000  -0.4714045   0.4714045), wk =   0.0069444
        k(   40) = (   0.5892557   0.0000000  -0.0000000), wk =   0.0034722
        k(   41) = (  -0.0589256  -0.6481812   0.6481812), wk =   0.0138889
        k(   42) = (   0.0000000  -0.5892557   0.5892557), wk =   0.0069444
        k(   43) = (  -0.7071068   0.0000000   0.0000000), wk =   0.0017361
        k(   44) = (   0.2357023   0.1178511   0.0000000), wk =   0.0138889
        k(   45) = (   0.2946278   0.1767767  -0.0589256), wk =   0.0277778
        k(   46) = (   0.3535534   0.2357023  -0.1178511), wk =   0.0277778
        k(   47) = (  -0.2946278  -0.4124790   0.5303301), wk =   0.0277778
        k(   48) = (  -0.2357023  -0.3535534   0.4714045), wk =   0.0138889
        k(   49) = (   0.3535534   0.1178511  -0.0000000), wk =   0.0138889
        k(   50) = (   0.4124790   0.1767767  -0.0589256), wk =   0.0277778
        k(   51) = (  -0.2357023  -0.4714045   0.5892557), wk =   0.0277778
        k(   52) = (  -0.1767767  -0.4124790   0.5303301), wk =   0.0277778
        k(   53) = (  -0.1178511  -0.3535534   0.4714045), wk =   0.0277778
        k(   54) = (  -0.0589256  -0.2946278   0.4124790), wk =   0.0277778
        k(   55) = (   0.0000000  -0.2357023   0.3535534), wk =   0.0138889
        k(   56) = (   0.4714045   0.1178511  -0.0000000), wk =   0.0138889
        k(   57) = (  -0.1767767  -0.5303301   0.6481812), wk =   0.0277778
        k(   58) = (  -0.1178511  -0.4714045   0.5892557), wk =   0.0277778
        k(   59) = (  -0.0589256  -0.4124790   0.5303301), wk =   0.0277778
        k(   60) = (   0.0000000  -0.3535534   0.4714045), wk =   0.0138889
        k(   61) = (  -0.1178511  -0.5892557   0.7071068), wk =   0.0138889
        k(   62) = (  -0.0589256  -0.5303301   0.6481812), wk =   0.0277778
        k(   63) = (  -0.0000000  -0.4714045   0.5892557), wk =   0.0138889
        k(   64) = (  -0.7071068   0.1178511  -0.0000000), wk =   0.0069444
        k(   65) = (  -0.2357023  -0.4714045   0.7071068), wk =   0.0138889
        k(   66) = (  -0.1767767  -0.4124790   0.6481812), wk =   0.0277778
        k(   67) = (  -0.1178511  -0.3535534   0.5892557), wk =   0.0138889
        k(   68) = (  -0.1178511  -0.4714045   0.7071068), wk =   0.0138889
        k(   69) = (  -0.0589256  -0.4124790   0.6481812), wk =   0.0277778
        k(   70) = (   0.0000000  -0.3535534   0.5892557), wk =   0.0138889
        k(   71) = (  -0.7071068   0.2357023   0.0000000), wk =   0.0069444
        k(   72) = (  -0.7071068   0.3535534   0.0000000), wk =   0.0034722

                       cryst. coord.
        k(    1) = (   0.0000000   0.0000000   0.0000000), wk =   0.0005787
        k(    2) = (   0.0000000   0.0000000   0.0833333), wk =   0.0046296
        k(    3) = (   0.0000000   0.0000000   0.1666667), wk =   0.0046296
        k(    4) = (   0.0000000   0.0000000   0.2500000), wk =   0.0046296
        k(    5) = (   0.0000000   0.0000000   0.3333333), wk =   0.0046296
        k(    6) = (  -0.0000000  -0.0000000   0.4166667), wk =   0.0046296
        k(    7) = (  -0.0000000  -0.0000000  -0.5000000), wk =   0.0023148
        k(    8) = (  -0.0000000   0.0833333   0.0833333), wk =   0.0034722
        k(    9) = (   0.0000000   0.0833333   0.1666667), wk =   0.0138889
        k(   10) = (  -0.0000000   0.0833333   0.2500000), wk =   0.0138889
        k(   11) = (   0.0000000   0.0833333   0.3333333), wk =   0.0138889
        k(   12) = (  -0.0000000   0.0833333   0.4166667), wk =   0.0138889
        k(   13) = (  -0.0000000   0.0833333  -0.5000000), wk =   0.0138889
        k(   14) = (   0.0000000   0.0833333  -0.4166667), wk =   0.0138889
        k(   15) = (  -0.0000000   0.0833333  -0.3333333), wk =   0.0138889
        k(   16) = (  -0.0000000   0.0833333  -0.2500000), wk =   0.0138889
        k(   17) = (   0.0000000   0.0833333  -0.1666667), wk =   0.0138889
        k(   18) = (   0.0000000   0.0833333  -0.0833333), wk =   0.0069444
        k(   19) = (  -0.0000000   0.1666667   0.1666667), wk =   0.0034722
        k(   20) = (  -0.0000000   0.1666667   0.2500000), wk =   0.0138889
        k(   21) = (   0.0000000   0.1666667   0.3333333), wk =   0.0138889
        k(   22) = (   0.0000000   0.1666667   0.4166667), wk =   0.0138889
        k(   23) = (  -0.0000000   0.1666667  -0.5000000), wk =   0.0138889
        k(   24) = (  -0.0000000   0.1666667  -0.4166667), wk =   0.0138889
        k(   25) = (  -0.0000000   0.1666667  -0.3333333), wk =   0.0138889
        k(   26) = (   0.0000000   0.1666667  -0.2500000), wk =   0.0138889
        k(   27) = (   0.0000000   0.1666667  -0.1666667), wk =   0.0069444
        k(   28) = (   0.0000000   0.2500000   0.2500000), wk =   0.0034722
        k(   29) = (  -0.0000000   0.2500000   0.3333333), wk =   0.0138889
        k(   30) = (  -0.0000000   0.2500000   0.4166667), wk =   0.0138889
        k(   31) = (   0.0000000   0.2500000  -0.5000000), wk =   0.0138889
        k(   32) = (  -0.0000000   0.2500000  -0.4166667), wk =   0.0138889
        k(   33) = (  -0.0000000   0.2500000  -0.3333333), wk =   0.0138889
        k(   34) = (  -0.0000000   0.2500000  -0.2500000), wk =   0.0069444
        k(   35) = (  -0.0000000   0.3333333   0.3333333), wk =   0.0034722
        k(   36) = (  -0.0000000   0.3333333   0.4166667), wk =   0.0138889
        k(   37) = (   0.0000000   0.3333333  -0.5000000), wk =   0.0138889
        k(   38) = (  -0.0000000   0.3333333  -0.4166667), wk =   0.0138889
        k(   39) = (   0.0000000   0.3333333  -0.3333333), wk =   0.0069444
        k(   40) = (   0.0000000   0.4166667   0.4166667), wk =   0.0034722
        k(   41) = (   0.0000000   0.4166667  -0.5000000), wk =   0.0138889
        k(   42) = (   0.0000000   0.4166667  -0.4166667), wk =   0.0069444
        k(   43) = (   0.0000000  -0.5000000  -0.5000000), wk =   0.0017361
        k(   44) = (   0.0833333   0.1666667   0.2500000), wk =   0.0138889
        k(   45) = (   0.0833333   0.1666667   0.3333333), wk =   0.0277778
        k(   46) = (   0.0833333   0.1666667   0.4166667), wk =   0.0277778
        k(   47) = (   0.0833333   0.1666667  -0.5000000), wk =   0.0277778
        k(   48) = (   0.0833333   0.1666667  -0.4166667), wk =   0.0138889
        k(   49) = (   0.0833333   0.2500000   0.3333333), wk =   0.0138889
        k(   50) = (   0.0833333   0.2500000   0.4166667), wk =   0.0277778
        k(   51) = (   0.0833333   0.2500000  -0.5000000), wk =   0.0277778
        k(   52) = (   0.0833333   0.2500000  -0.4166667), wk =   0.0277778
        k(   53) = (   0.0833333   0.2500000  -0.3333333), wk =   0.0277778
        k(   54) = (   0.0833333   0.2500000  -0.2500000), wk =   0.0277778
        k(   55) = (   0.0833333   0.2500000  -0.1666667), wk =   0.0138889
        k(   56) = (   0.0833333   0.3333333   0.4166667), wk =   0.0138889
        k(   57) = (   0.0833333   0.3333333  -0.5000000), wk =   0.0277778
        k(   58) = (   0.0833333   0.3333333  -0.4166667), wk =   0.0277778
        k(   59) = (   0.0833333   0.3333333  -0.3333333), wk =   0.0277778
        k(   60) = (   0.0833333   0.3333333  -0.2500000), wk =   0.0138889
        k(   61) = (   0.0833333   0.4166667  -0.5000000), wk =   0.0138889
        k(   62) = (   0.0833333   0.4166667  -0.4166667), wk =   0.0277778
        k(   63) = (   0.0833333   0.4166667  -0.3333333), wk =   0.0138889
        k(   64) = (   0.0833333  -0.5000000  -0.4166667), wk =   0.0069444
        k(   65) = (   0.1666667   0.3333333  -0.5000000), wk =   0.0138889
        k(   66) = (   0.1666667   0.3333333  -0.4166667), wk =   0.0277778
        k(   67) = (   0.1666667   0.3333333  -0.3333333), wk =   0.0138889
        k(   68) = (   0.1666667   0.4166667  -0.4166667), wk =   0.0138889
        k(   69) = (   0.1666667   0.4166667  -0.3333333), wk =   0.0277778
        k(   70) = (   0.1666667   0.4166667  -0.2500000), wk =   0.0138889
        k(   71) = (   0.1666667  -0.5000000  -0.3333333), wk =   0.0069444
        k(   72) = (   0.2500000  -0.5000000  -0.2500000), wk =   0.0034722

     Dense  grid:    41151 G-vectors     FFT dimensions: (  50,  50,  50)

     Smooth grid:    14553 G-vectors     FFT dimensions: (  36,  36,  36)

     Dynamical RAM for                 wfc:       0.86 MB

     Dynamical RAM for     wfc (w. buffer):     125.38 MB

     Dynamical RAM for           str. fact:       2.51 MB

     Dynamical RAM for           local pot:       0.00 MB

     Dynamical RAM for          nlocal pot:       2.01 MB

     Dynamical RAM for                qrad:       5.74 MB

     Dynamical RAM for          rho,v,vnew:       9.49 MB

     Dynamical RAM for               rhoin:       3.16 MB

     Dynamical RAM for            rho*nmix:      20.09 MB

     Dynamical RAM for           G-vectors:       2.47 MB

     Dynamical RAM for          h,s,v(r/c):       0.18 MB

     Dynamical RAM for          <psi|beta>:       0.03 MB

     Dynamical RAM for                 psi:       1.73 MB

     Dynamical RAM for                hpsi:       1.73 MB

     Dynamical RAM for                spsi:       1.73 MB

     Dynamical RAM for      wfcinit/wfcrot:       2.38 MB

     Dynamical RAM for           addusdens:     118.05 MB

     Dynamical RAM for          addusforce:     118.06 MB

     Dynamical RAM for         addusstress:     127.15 MB

     Estimated static dynamical RAM per process >     159.62 MB

     Estimated max dynamical RAM per process >     306.87 MB

     Check: negative core charge=   -0.000004
     Generating pointlists ...
     new r_m :   0.2526 (alat units)  2.1366 (a.u.) for type    1
     new r_m :   0.2526 (alat units)  2.1366 (a.u.) for type    2
     new r_m :   0.2526 (alat units)  2.1366 (a.u.) for type    3
     new r_m :   0.2526 (alat units)  2.1366 (a.u.) for type    4

     Initial potential from superposition of free atoms

     starting charge      50.9939, renormalised to      52.0000

     negative rho (up, down):  1.127E-03 5.204E-04
     Starting wfcs are   42 randomized atomic wfcs

     total cpu time spent up to now is        4.7 secs

     per-process dynamical memory:   837.1 Mb

     Self-consistent Calculation
[tb_dev] Currently allocated     1.17E+00 Mbytes, locked:    0 /  10
[tb_pin] Currently allocated     0.00E+00 Mbytes, locked:    0 /   0

     iteration #  1     ecut=    40.00 Ry     beta= 0.40
     Davidson diagonalization with overlap

---- Real-time Memory Report at c_bands before calling an iterative solver
           969 MiB given to the printing process from OS
           817 MiB allocation reported by mallinfo(arena+hblkhd)
         39049 MiB available memory on the node where the printing process lives
     GPU memory used/free/total (MiB): 780 / 15500 / 16280
------------------
     ethr =  1.00E-02,  avg # of iterations =  2.2

     negative rho (up, down):  4.759E-04 1.013E-03

     total cpu time spent up to now is        7.3 secs

     total energy              =    -625.30784885 Ry
     estimated scf accuracy    <       1.90712686 Ry

     total magnetization       =     6.47 Bohr mag/cell
     absolute magnetization    =     6.60 Bohr mag/cell
[tb_dev] Currently allocated     1.53E+00 Mbytes, locked:    0 /  11
[tb_pin] Currently allocated     0.00E+00 Mbytes, locked:    0 /   0

     iteration #  2     ecut=    40.00 Ry     beta= 0.40
     Davidson diagonalization with overlap

---- Real-time Memory Report at c_bands before calling an iterative solver
          1019 MiB given to the printing process from OS
           837 MiB allocation reported by mallinfo(arena+hblkhd)
         39038 MiB available memory on the node where the printing process lives
     GPU memory used/free/total (MiB): 954 / 15326 / 16280
------------------
     ethr =  3.67E-03,  avg # of iterations =  6.5

     negative rho (up, down):  4.801E-04 1.019E-03

     total cpu time spent up to now is       12.6 secs

     total energy              =    -624.57335996 Ry
     estimated scf accuracy    <      18.19325521 Ry

     total magnetization       =     1.05 Bohr mag/cell
     absolute magnetization    =     1.49 Bohr mag/cell
[tb_dev] Currently allocated     1.53E+00 Mbytes, locked:    0 /  11
[tb_pin] Currently allocated     0.00E+00 Mbytes, locked:    0 /   0

     iteration #  3     ecut=    40.00 Ry     beta= 0.40
     Davidson diagonalization with overlap

---- Real-time Memory Report at c_bands before calling an iterative solver
          1019 MiB given to the printing process from OS
           837 MiB allocation reported by mallinfo(arena+hblkhd)
         39042 MiB available memory on the node where the printing process lives
     GPU memory used/free/total (MiB): 980 / 15300 / 16280
------------------
     ethr =  3.67E-03,  avg # of iterations =  5.4

     negative rho (up, down):  2.430E-04 1.373E-03

     total cpu time spent up to now is       17.3 secs

     total energy              =    -626.01522331 Ry
     estimated scf accuracy    <       0.39099903 Ry

     total magnetization       =     5.90 Bohr mag/cell
     absolute magnetization    =     6.07 Bohr mag/cell
[tb_dev] Currently allocated     1.53E+00 Mbytes, locked:    0 /  11
[tb_pin] Currently allocated     0.00E+00 Mbytes, locked:    0 /   0

     iteration #  4     ecut=    40.00 Ry     beta= 0.40
     Davidson diagonalization with overlap

---- Real-time Memory Report at c_bands before calling an iterative solver
          1022 MiB given to the printing process from OS
           837 MiB allocation reported by mallinfo(arena+hblkhd)
         39042 MiB available memory on the node where the printing process lives
     GPU memory used/free/total (MiB): 980 / 15300 / 16280
------------------
     ethr =  7.52E-04,  avg # of iterations =  4.6

     negative rho (up, down):  3.960E-05 2.095E-03

     total cpu time spent up to now is       21.3 secs

     total energy              =    -626.09148311 Ry
     estimated scf accuracy    <       0.24926978 Ry

     total magnetization       =     6.01 Bohr mag/cell
     absolute magnetization    =     6.19 Bohr mag/cell
[tb_dev] Currently allocated     1.53E+00 Mbytes, locked:    0 /  11
[tb_pin] Currently allocated     0.00E+00 Mbytes, locked:    0 /   0

     iteration #  5     ecut=    40.00 Ry     beta= 0.40
     Davidson diagonalization with overlap

---- Real-time Memory Report at c_bands before calling an iterative solver
          1023 MiB given to the printing process from OS
           837 MiB allocation reported by mallinfo(arena+hblkhd)
         39042 MiB available memory on the node where the printing process lives
     GPU memory used/free/total (MiB): 980 / 15300 / 16280
------------------
     ethr =  4.79E-04,  avg # of iterations =  2.0

     negative rho (up, down):  0.000E+00 2.919E-03

     total cpu time spent up to now is       23.9 secs

     total energy              =    -626.12814755 Ry
     estimated scf accuracy    <       0.01270339 Ry

     total magnetization       =     5.45 Bohr mag/cell
     absolute magnetization    =     5.65 Bohr mag/cell
[tb_dev] Currently allocated     1.53E+00 Mbytes, locked:    0 /  11
[tb_pin] Currently allocated     0.00E+00 Mbytes, locked:    0 /   0

     iteration #  6     ecut=    40.00 Ry     beta= 0.40
     Davidson diagonalization with overlap

---- Real-time Memory Report at c_bands before calling an iterative solver
          1026 MiB given to the printing process from OS
           837 MiB allocation reported by mallinfo(arena+hblkhd)
         39039 MiB available memory on the node where the printing process lives
     GPU memory used/free/total (MiB): 980 / 15300 / 16280
------------------
     ethr =  2.44E-05,  avg # of iterations =  6.6

     negative rho (up, down):  0.000E+00 2.719E-03

     total cpu time spent up to now is       29.1 secs

     total energy              =    -626.13268554 Ry
     estimated scf accuracy    <       0.01217784 Ry

     total magnetization       =     4.96 Bohr mag/cell
     absolute magnetization    =     5.17 Bohr mag/cell
[tb_dev] Currently allocated     1.53E+00 Mbytes, locked:    0 /  11
[tb_pin] Currently allocated     0.00E+00 Mbytes, locked:    0 /   0

     iteration #  7     ecut=    40.00 Ry     beta= 0.40
     Davidson diagonalization with overlap

---- Real-time Memory Report at c_bands before calling an iterative solver
          1028 MiB given to the printing process from OS
           839 MiB allocation reported by mallinfo(arena+hblkhd)
         39038 MiB available memory on the node where the printing process lives
     GPU memory used/free/total (MiB): 980 / 15300 / 16280
------------------
     ethr =  2.34E-05,  avg # of iterations =  4.6

     negative rho (up, down):  8.740E-06 2.452E-03

     total cpu time spent up to now is       33.0 secs

     total energy              =    -626.13451858 Ry
     estimated scf accuracy    <       0.00231016 Ry

     total magnetization       =     4.89 Bohr mag/cell
     absolute magnetization    =     5.10 Bohr mag/cell
[tb_dev] Currently allocated     1.53E+00 Mbytes, locked:    0 /  11
[tb_pin] Currently allocated     0.00E+00 Mbytes, locked:    0 /   0

     iteration #  8     ecut=    40.00 Ry     beta= 0.40
     Davidson diagonalization with overlap

---- Real-time Memory Report at c_bands before calling an iterative solver
          1030 MiB given to the printing process from OS
           839 MiB allocation reported by mallinfo(arena+hblkhd)
         39005 MiB available memory on the node where the printing process lives
     GPU memory used/free/total (MiB): 980 / 15300 / 16280
------------------
     ethr =  4.44E-06,  avg # of iterations =  5.2

     negative rho (up, down):  4.760E-05 1.912E-03

     total cpu time spent up to now is       37.4 secs

     total energy              =    -626.13620115 Ry
     estimated scf accuracy    <       0.00423855 Ry

     total magnetization       =     4.62 Bohr mag/cell
     absolute magnetization    =     4.83 Bohr mag/cell
[tb_dev] Currently allocated     1.53E+00 Mbytes, locked:    0 /  11
[tb_pin] Currently allocated     0.00E+00 Mbytes, locked:    0 /   0

     iteration #  9     ecut=    40.00 Ry     beta= 0.40
     Davidson diagonalization with overlap

---- Real-time Memory Report at c_bands before calling an iterative solver
          1032 MiB given to the printing process from OS
           849 MiB allocation reported by mallinfo(arena+hblkhd)
         39011 MiB available memory on the node where the printing process lives
     GPU memory used/free/total (MiB): 980 / 15300 / 16280
------------------
     ethr =  4.44E-06,  avg # of iterations =  3.9

     negative rho (up, down):  7.350E-05 1.663E-03

     total cpu time spent up to now is       41.0 secs

     total energy              =    -626.13597217 Ry
     estimated scf accuracy    <       0.00410206 Ry

     total magnetization       =     4.40 Bohr mag/cell
     absolute magnetization    =     4.59 Bohr mag/cell
[tb_dev] Currently allocated     1.53E+00 Mbytes, locked:    0 /  11
[tb_pin] Currently allocated     0.00E+00 Mbytes, locked:    0 /   0

     iteration # 10     ecut=    40.00 Ry     beta= 0.40
     Davidson diagonalization with overlap

---- Real-time Memory Report at c_bands before calling an iterative solver
          1034 MiB given to the printing process from OS
           849 MiB allocation reported by mallinfo(arena+hblkhd)
         39011 MiB available memory on the node where the printing process lives
     GPU memory used/free/total (MiB): 980 / 15300 / 16280
------------------
     ethr =  4.44E-06,  avg # of iterations =  4.9

     negative rho (up, down):  8.657E-05 1.623E-03

     total cpu time spent up to now is       45.4 secs

     total energy              =    -626.13701979 Ry
     estimated scf accuracy    <       0.00202940 Ry

     total magnetization       =     4.34 Bohr mag/cell
     absolute magnetization    =     4.53 Bohr mag/cell
[tb_dev] Currently allocated     1.53E+00 Mbytes, locked:    0 /  11
[tb_pin] Currently allocated     0.00E+00 Mbytes, locked:    0 /   0

     iteration # 11     ecut=    40.00 Ry     beta= 0.40
     Davidson diagonalization with overlap

---- Real-time Memory Report at c_bands before calling an iterative solver
          1035 MiB given to the printing process from OS
           849 MiB allocation reported by mallinfo(arena+hblkhd)
         39016 MiB available memory on the node where the printing process lives
     GPU memory used/free/total (MiB): 980 / 15300 / 16280
------------------
     ethr =  3.90E-06,  avg # of iterations =  1.0

     negative rho (up, down):  1.055E-04 1.594E-03

     total cpu time spent up to now is       47.6 secs

     total energy              =    -626.13702258 Ry
     estimated scf accuracy    <       0.00064050 Ry

     total magnetization       =     4.20 Bohr mag/cell
     absolute magnetization    =     4.39 Bohr mag/cell
[tb_dev] Currently allocated     1.53E+00 Mbytes, locked:    0 /  11
[tb_pin] Currently allocated     0.00E+00 Mbytes, locked:    0 /   0

     iteration # 12     ecut=    40.00 Ry     beta= 0.40
     Davidson diagonalization with overlap

---- Real-time Memory Report at c_bands before calling an iterative solver
          1035 MiB given to the printing process from OS
           849 MiB allocation reported by mallinfo(arena+hblkhd)
         39020 MiB available memory on the node where the printing process lives
     GPU memory used/free/total (MiB): 980 / 15300 / 16280
------------------
     ethr =  1.23E-06,  avg # of iterations =  2.8

     negative rho (up, down):  1.144E-04 1.583E-03

     total cpu time spent up to now is       50.7 secs

     total energy              =    -626.13747426 Ry
     estimated scf accuracy    <       0.00006613 Ry

     total magnetization       =     3.99 Bohr mag/cell
     absolute magnetization    =     4.18 Bohr mag/cell
[tb_dev] Currently allocated     1.53E+00 Mbytes, locked:    0 /  11
[tb_pin] Currently allocated     0.00E+00 Mbytes, locked:    0 /   0

     iteration # 13     ecut=    40.00 Ry     beta= 0.40
     Davidson diagonalization with overlap

---- Real-time Memory Report at c_bands before calling an iterative solver
          1035 MiB given to the printing process from OS
           849 MiB allocation reported by mallinfo(arena+hblkhd)
         39022 MiB available memory on the node where the printing process lives
     GPU memory used/free/total (MiB): 980 / 15300 / 16280
------------------
     ethr =  1.27E-07,  avg # of iterations =  4.9

     negative rho (up, down):  1.284E-04 1.568E-03

     total cpu time spent up to now is       54.9 secs

     total energy              =    -626.13751643 Ry
     estimated scf accuracy    <       0.00011269 Ry

     total magnetization       =     3.90 Bohr mag/cell
     absolute magnetization    =     4.08 Bohr mag/cell
[tb_dev] Currently allocated     1.53E+00 Mbytes, locked:    0 /  11
[tb_pin] Currently allocated     0.00E+00 Mbytes, locked:    0 /   0

     iteration # 14     ecut=    40.00 Ry     beta= 0.40
     Davidson diagonalization with overlap

---- Real-time Memory Report at c_bands before calling an iterative solver
          1035 MiB given to the printing process from OS
           849 MiB allocation reported by mallinfo(arena+hblkhd)
         39025 MiB available memory on the node where the printing process lives
     GPU memory used/free/total (MiB): 980 / 15300 / 16280
------------------
     ethr =  1.27E-07,  avg # of iterations =  5.1

     negative rho (up, down):  1.382E-04 1.560E-03

     total cpu time spent up to now is       59.5 secs

     total energy              =    -626.13762320 Ry
     estimated scf accuracy    <       0.00004571 Ry

     total magnetization       =     3.82 Bohr mag/cell
     absolute magnetization    =     4.00 Bohr mag/cell
[tb_dev] Currently allocated     1.53E+00 Mbytes, locked:    0 /  11
[tb_pin] Currently allocated     0.00E+00 Mbytes, locked:    0 /   0

     iteration # 15     ecut=    40.00 Ry     beta= 0.40
     Davidson diagonalization with overlap

---- Real-time Memory Report at c_bands before calling an iterative solver
          1035 MiB given to the printing process from OS
           849 MiB allocation reported by mallinfo(arena+hblkhd)
         39026 MiB available memory on the node where the printing process lives
     GPU memory used/free/total (MiB): 980 / 15300 / 16280
------------------
     ethr =  8.79E-08,  avg # of iterations =  3.5

     negative rho (up, down):  1.407E-04 1.568E-03

     total cpu time spent up to now is       62.9 secs

     total energy              =    -626.13768756 Ry
     estimated scf accuracy    <       0.00001432 Ry

     total magnetization       =     3.74 Bohr mag/cell
     absolute magnetization    =     3.92 Bohr mag/cell
[tb_dev] Currently allocated     1.53E+00 Mbytes, locked:    0 /  11
[tb_pin] Currently allocated     0.00E+00 Mbytes, locked:    0 /   0

     iteration # 16     ecut=    40.00 Ry     beta= 0.40
     Davidson diagonalization with overlap

---- Real-time Memory Report at c_bands before calling an iterative solver
          1035 MiB given to the printing process from OS
           849 MiB allocation reported by mallinfo(arena+hblkhd)
         39027 MiB available memory on the node where the printing process lives
     GPU memory used/free/total (MiB): 980 / 15300 / 16280
------------------
     ethr =  2.75E-08,  avg # of iterations =  5.4

     negative rho (up, down):  1.622E-04 1.549E-03

     total cpu time spent up to now is       67.6 secs

     total energy              =    -626.13753194 Ry
     estimated scf accuracy    <       0.00001319 Ry

     total magnetization       =     3.75 Bohr mag/cell
     absolute magnetization    =     3.93 Bohr mag/cell
[tb_dev] Currently allocated     1.53E+00 Mbytes, locked:    0 /  11
[tb_pin] Currently allocated     0.00E+00 Mbytes, locked:    0 /   0

     iteration # 17     ecut=    40.00 Ry     beta= 0.40
     Davidson diagonalization with overlap

---- Real-time Memory Report at c_bands before calling an iterative solver
          1035 MiB given to the printing process from OS
           849 MiB allocation reported by mallinfo(arena+hblkhd)
         39028 MiB available memory on the node where the printing process lives
     GPU memory used/free/total (MiB): 980 / 15300 / 16280
------------------
     ethr =  2.54E-08,  avg # of iterations =  6.8

     negative rho (up, down):  1.673E-04 1.550E-03

     total cpu time spent up to now is       73.2 secs

     total energy              =    -626.13777253 Ry
     estimated scf accuracy    <       0.00001775 Ry

     total magnetization       =     3.62 Bohr mag/cell
     absolute magnetization    =     3.79 Bohr mag/cell
[tb_dev] Currently allocated     1.53E+00 Mbytes, locked:    0 /  11
[tb_pin] Currently allocated     0.00E+00 Mbytes, locked:    0 /   0

     iteration # 18     ecut=    40.00 Ry     beta= 0.40
     Davidson diagonalization with overlap

---- Real-time Memory Report at c_bands before calling an iterative solver
          1035 MiB given to the printing process from OS
           849 MiB allocation reported by mallinfo(arena+hblkhd)
         39029 MiB available memory on the node where the printing process lives
     GPU memory used/free/total (MiB): 980 / 15300 / 16280
------------------
     ethr =  2.54E-08,  avg # of iterations =  4.9

     negative rho (up, down):  1.828E-04 1.536E-03

     total cpu time spent up to now is       77.4 secs

     total energy              =    -626.13766784 Ry
     estimated scf accuracy    <       0.00000316 Ry

     total magnetization       =     3.60 Bohr mag/cell
     absolute magnetization    =     3.77 Bohr mag/cell
[tb_dev] Currently allocated     1.53E+00 Mbytes, locked:    0 /  11
[tb_pin] Currently allocated     0.00E+00 Mbytes, locked:    0 /   0

     iteration # 19     ecut=    40.00 Ry     beta= 0.40
     Davidson diagonalization with overlap

---- Real-time Memory Report at c_bands before calling an iterative solver
          1035 MiB given to the printing process from OS
           849 MiB allocation reported by mallinfo(arena+hblkhd)
         39029 MiB available memory on the node where the printing process lives
     GPU memory used/free/total (MiB): 980 / 15300 / 16280
------------------
     ethr =  6.08E-09,  avg # of iterations =  7.2

     negative rho (up, down):  1.913E-04 1.532E-03

     total cpu time spent up to now is       83.2 secs

     total energy              =    -626.13778002 Ry
     estimated scf accuracy    <       0.00001045 Ry

     total magnetization       =     3.49 Bohr mag/cell
     absolute magnetization    =     3.66 Bohr mag/cell
[tb_dev] Currently allocated     1.53E+00 Mbytes, locked:    0 /  11
[tb_pin] Currently allocated     0.00E+00 Mbytes, locked:    0 /   0

     iteration # 20     ecut=    40.00 Ry     beta= 0.40
     Davidson diagonalization with overlap

---- Real-time Memory Report at c_bands before calling an iterative solver
          1035 MiB given to the printing process from OS
           849 MiB allocation reported by mallinfo(arena+hblkhd)
         39030 MiB available memory on the node where the printing process lives
     GPU memory used/free/total (MiB): 980 / 15300 / 16280
------------------
     ethr =  6.08E-09,  avg # of iterations =  6.5

     negative rho (up, down):  1.672E-04 1.551E-03

     total cpu time spent up to now is       88.4 secs

     total energy              =    -626.13741935 Ry
     estimated scf accuracy    <       0.00000456 Ry

     total magnetization       =     3.44 Bohr mag/cell
     absolute magnetization    =     3.61 Bohr mag/cell
[tb_dev] Currently allocated     1.53E+00 Mbytes, locked:    0 /  11
[tb_pin] Currently allocated     0.00E+00 Mbytes, locked:    0 /   0

     iteration # 21     ecut=    40.00 Ry     beta= 0.40
     Davidson diagonalization with overlap

---- Real-time Memory Report at c_bands before calling an iterative solver
          1035 MiB given to the printing process from OS
           849 MiB allocation reported by mallinfo(arena+hblkhd)
         39030 MiB available memory on the node where the printing process lives
     GPU memory used/free/total (MiB): 980 / 15300 / 16280
------------------
     ethr =  6.08E-09,  avg # of iterations =  7.7

     negative rho (up, down):  1.677E-04 1.551E-03

     total cpu time spent up to now is       94.6 secs

     total energy              =    -626.13780041 Ry
     estimated scf accuracy    <       0.00000302 Ry

     total magnetization       =     3.60 Bohr mag/cell
     absolute magnetization    =     3.77 Bohr mag/cell
[tb_dev] Currently allocated     1.53E+00 Mbytes, locked:    0 /  11
[tb_pin] Currently allocated     0.00E+00 Mbytes, locked:    0 /   0

     iteration # 22     ecut=    40.00 Ry     beta= 0.40
     Davidson diagonalization with overlap

---- Real-time Memory Report at c_bands before calling an iterative solver
          1035 MiB given to the printing process from OS
           849 MiB allocation reported by mallinfo(arena+hblkhd)
         39031 MiB available memory on the node where the printing process lives
     GPU memory used/free/total (MiB): 980 / 15300 / 16280
------------------
     ethr =  5.81E-09,  avg # of iterations =  1.1

     negative rho (up, down):  1.968E-04 1.530E-03

     total cpu time spent up to now is       96.8 secs

     total energy              =    -626.13730507 Ry
     estimated scf accuracy    <       0.00000283 Ry

     total magnetization       =     3.60 Bohr mag/cell
     absolute magnetization    =     3.77 Bohr mag/cell
[tb_dev] Currently allocated     1.53E+00 Mbytes, locked:    0 /  11
[tb_pin] Currently allocated     0.00E+00 Mbytes, locked:    0 /   0

     iteration # 23     ecut=    40.00 Ry     beta= 0.40
     Davidson diagonalization with overlap

---- Real-time Memory Report at c_bands before calling an iterative solver
          1035 MiB given to the printing process from OS
           849 MiB allocation reported by mallinfo(arena+hblkhd)
         39030 MiB available memory on the node where the printing process lives
     GPU memory used/free/total (MiB): 980 / 15300 / 16280
------------------
     ethr =  5.44E-09,  avg # of iterations =  8.3

     negative rho (up, down):  1.846E-04 1.538E-03

     total cpu time spent up to now is      103.3 secs

     total energy              =    -626.13772430 Ry
     estimated scf accuracy    <       0.00000510 Ry

     total magnetization       =     3.40 Bohr mag/cell
     absolute magnetization    =     3.57 Bohr mag/cell
[tb_dev] Currently allocated     1.53E+00 Mbytes, locked:    0 /  11
[tb_pin] Currently allocated     0.00E+00 Mbytes, locked:    0 /   0

     iteration # 24     ecut=    40.00 Ry     beta= 0.40
     Davidson diagonalization with overlap

---- Real-time Memory Report at c_bands before calling an iterative solver
          1035 MiB given to the printing process from OS
           849 MiB allocation reported by mallinfo(arena+hblkhd)
         39031 MiB available memory on the node where the printing process lives
     GPU memory used/free/total (MiB): 980 / 15300 / 16280
------------------
     ethr =  5.44E-09,  avg # of iterations =  6.9

     negative rho (up, down):  1.872E-04 1.537E-03

     total cpu time spent up to now is      108.8 secs

     total energy              =    -626.13782206 Ry
     estimated scf accuracy    <       0.00000359 Ry

     total magnetization       =     3.49 Bohr mag/cell
     absolute magnetization    =     3.66 Bohr mag/cell
[tb_dev] Currently allocated     1.53E+00 Mbytes, locked:    0 /  11
[tb_pin] Currently allocated     0.00E+00 Mbytes, locked:    0 /   0

     iteration # 25     ecut=    40.00 Ry     beta= 0.40
     Davidson diagonalization with overlap

---- Real-time Memory Report at c_bands before calling an iterative solver
          1035 MiB given to the printing process from OS
           849 MiB allocation reported by mallinfo(arena+hblkhd)
         39031 MiB available memory on the node where the printing process lives
     GPU memory used/free/total (MiB): 980 / 15300 / 16280
------------------
     ethr =  5.44E-09,  avg # of iterations =  4.0

     negative rho (up, down):  1.692E-04 1.550E-03

     total cpu time spent up to now is      112.5 secs

     total energy              =    -626.13759922 Ry
     estimated scf accuracy    <       0.00000259 Ry

     total magnetization       =     3.47 Bohr mag/cell
     absolute magnetization    =     3.64 Bohr mag/cell
[tb_dev] Currently allocated     1.53E+00 Mbytes, locked:    0 /  11
[tb_pin] Currently allocated     0.00E+00 Mbytes, locked:    0 /   0

     iteration # 26     ecut=    40.00 Ry     beta= 0.40
     Davidson diagonalization with overlap

---- Real-time Memory Report at c_bands before calling an iterative solver
          1035 MiB given to the printing process from OS
           849 MiB allocation reported by mallinfo(arena+hblkhd)
         39031 MiB available memory on the node where the printing process lives
     GPU memory used/free/total (MiB): 980 / 15300 / 16280
------------------
     ethr =  4.98E-09,  avg # of iterations =  7.7

     negative rho (up, down):  1.578E-04 1.558E-03

     total cpu time spent up to now is      118.5 secs

     total energy              =    -626.13769914 Ry
     estimated scf accuracy    <       0.00000256 Ry

     total magnetization       =     3.59 Bohr mag/cell
     absolute magnetization    =     3.76 Bohr mag/cell
[tb_dev] Currently allocated     1.53E+00 Mbytes, locked:    0 /  11
[tb_pin] Currently allocated     0.00E+00 Mbytes, locked:    0 /   0

     iteration # 27     ecut=    40.00 Ry     beta= 0.40
     Davidson diagonalization with overlap

---- Real-time Memory Report at c_bands before calling an iterative solver
          1035 MiB given to the printing process from OS
           849 MiB allocation reported by mallinfo(arena+hblkhd)
         39031 MiB available memory on the node where the printing process lives
     GPU memory used/free/total (MiB): 980 / 15300 / 16280
------------------
     ethr =  4.92E-09,  avg # of iterations =  6.8

     negative rho (up, down):  1.871E-04 1.537E-03

     total cpu time spent up to now is      123.9 secs

     total energy              =    -626.13729751 Ry
     estimated scf accuracy    <       0.00000582 Ry

     total magnetization       =     3.66 Bohr mag/cell
     absolute magnetization    =     3.83 Bohr mag/cell
[tb_dev] Currently allocated     1.53E+00 Mbytes, locked:    0 /  11
[tb_pin] Currently allocated     0.00E+00 Mbytes, locked:    0 /   0

     iteration # 28     ecut=    40.00 Ry     beta= 0.40
     Davidson diagonalization with overlap

---- Real-time Memory Report at c_bands before calling an iterative solver
          1035 MiB given to the printing process from OS
           849 MiB allocation reported by mallinfo(arena+hblkhd)
         39032 MiB available memory on the node where the printing process lives
     GPU memory used/free/total (MiB): 980 / 15300 / 16280
------------------
     ethr =  4.92E-09,  avg # of iterations =  8.6

     negative rho (up, down):  1.959E-04 1.532E-03

     total cpu time spent up to now is      130.6 secs

     total energy              =    -626.13778815 Ry
     estimated scf accuracy    <       0.00000071 Ry

     total magnetization       =     3.47 Bohr mag/cell
     absolute magnetization    =     3.64 Bohr mag/cell
[tb_dev] Currently allocated     1.53E+00 Mbytes, locked:    0 /  11
[tb_pin] Currently allocated     0.00E+00 Mbytes, locked:    0 /   0

     iteration # 29     ecut=    40.00 Ry     beta= 0.40
     Davidson diagonalization with overlap

---- Real-time Memory Report at c_bands before calling an iterative solver
          1035 MiB given to the printing process from OS
           849 MiB allocation reported by mallinfo(arena+hblkhd)
         39033 MiB available memory on the node where the printing process lives
     GPU memory used/free/total (MiB): 980 / 15300 / 16280
------------------
     ethr =  1.37E-09,  avg # of iterations =  7.9

     negative rho (up, down):  1.995E-04 1.529E-03

     total cpu time spent up to now is      136.7 secs

     total energy              =    -626.13783718 Ry
     estimated scf accuracy    <       0.00000175 Ry

     total magnetization       =     3.41 Bohr mag/cell
     absolute magnetization    =     3.58 Bohr mag/cell
[tb_dev] Currently allocated     1.53E+00 Mbytes, locked:    0 /  11
[tb_pin] Currently allocated     0.00E+00 Mbytes, locked:    0 /   0

     iteration # 30     ecut=    40.00 Ry     beta= 0.40
     Davidson diagonalization with overlap

---- Real-time Memory Report at c_bands before calling an iterative solver
          1035 MiB given to the printing process from OS
           849 MiB allocation reported by mallinfo(arena+hblkhd)
         39033 MiB available memory on the node where the printing process lives
     GPU memory used/free/total (MiB): 980 / 15300 / 16280
------------------
     ethr =  1.37E-09,  avg # of iterations =  5.9

     negative rho (up, down):  1.890E-04 1.536E-03

     total cpu time spent up to now is      141.6 secs

     total energy              =    -626.13775495 Ry
     estimated scf accuracy    <       0.00000229 Ry

     total magnetization       =     3.38 Bohr mag/cell
     absolute magnetization    =     3.55 Bohr mag/cell
[tb_dev] Currently allocated     1.53E+00 Mbytes, locked:    0 /  11
[tb_pin] Currently allocated     0.00E+00 Mbytes, locked:    0 /   0

     iteration # 31     ecut=    40.00 Ry     beta= 0.40
     Davidson diagonalization with overlap

---- Real-time Memory Report at c_bands before calling an iterative solver
          1035 MiB given to the printing process from OS
           849 MiB allocation reported by mallinfo(arena+hblkhd)
         39034 MiB available memory on the node where the printing process lives
     GPU memory used/free/total (MiB): 980 / 15300 / 16280
------------------
     ethr =  1.37E-09,  avg # of iterations =  7.9

     negative rho (up, down):  1.710E-04 1.549E-03

     total cpu time spent up to now is      147.7 secs

     total energy              =    -626.13759697 Ry
     estimated scf accuracy    <       0.00000106 Ry

     total magnetization       =     3.46 Bohr mag/cell
     absolute magnetization    =     3.63 Bohr mag/cell
[tb_dev] Currently allocated     1.53E+00 Mbytes, locked:    0 /  11
[tb_pin] Currently allocated     0.00E+00 Mbytes, locked:    0 /   0

     iteration # 32     ecut=    40.00 Ry     beta= 0.40
     Davidson diagonalization with overlap

---- Real-time Memory Report at c_bands before calling an iterative solver
          1035 MiB given to the printing process from OS
           849 MiB allocation reported by mallinfo(arena+hblkhd)
         39034 MiB available memory on the node where the printing process lives
     GPU memory used/free/total (MiB): 980 / 15300 / 16280
------------------
     ethr =  1.37E-09,  avg # of iterations =  9.0

     negative rho (up, down):  1.506E-04 1.563E-03

     total cpu time spent up to now is      154.7 secs

     total energy              =    -626.13750546 Ry
     estimated scf accuracy    <       0.00000187 Ry

     total magnetization       =     3.58 Bohr mag/cell
     absolute magnetization    =     3.75 Bohr mag/cell
[tb_dev] Currently allocated     1.53E+00 Mbytes, locked:    0 /  11
[tb_pin] Currently allocated     0.00E+00 Mbytes, locked:    0 /   0

     iteration # 33     ecut=    40.00 Ry     beta= 0.40
     Davidson diagonalization with overlap

---- Real-time Memory Report at c_bands before calling an iterative solver
          1035 MiB given to the printing process from OS
           849 MiB allocation reported by mallinfo(arena+hblkhd)
         39035 MiB available memory on the node where the printing process lives
     GPU memory used/free/total (MiB): 980 / 15300 / 16280
------------------
     ethr =  1.37E-09,  avg # of iterations =  9.3

     negative rho (up, down):  1.712E-04 1.549E-03

     total cpu time spent up to now is      161.9 secs

     total energy              =    -626.13755119 Ry
     estimated scf accuracy    <       0.00000710 Ry

     total magnetization       =     3.70 Bohr mag/cell
     absolute magnetization    =     3.87 Bohr mag/cell
[tb_dev] Currently allocated     1.53E+00 Mbytes, locked:    0 /  11
[tb_pin] Currently allocated     0.00E+00 Mbytes, locked:    0 /   0

     iteration # 34     ecut=    40.00 Ry     beta= 0.40
     Davidson diagonalization with overlap

---- Real-time Memory Report at c_bands before calling an iterative solver
          1035 MiB given to the printing process from OS
           849 MiB allocation reported by mallinfo(arena+hblkhd)
         39035 MiB available memory on the node where the printing process lives
     GPU memory used/free/total (MiB): 980 / 15300 / 16280
------------------
     ethr =  1.37E-09,  avg # of iterations =  9.1

     negative rho (up, down):  1.752E-04 1.546E-03

     total cpu time spent up to now is      168.9 secs

     total energy              =    -626.13780367 Ry
     estimated scf accuracy    <       0.00000170 Ry

     total magnetization       =     3.57 Bohr mag/cell
     absolute magnetization    =     3.75 Bohr mag/cell
[tb_dev] Currently allocated     1.53E+00 Mbytes, locked:    0 /  11
[tb_pin] Currently allocated     0.00E+00 Mbytes, locked:    0 /   0

     iteration # 35     ecut=    40.00 Ry     beta= 0.40
     Davidson diagonalization with overlap

---- Real-time Memory Report at c_bands before calling an iterative solver
          1035 MiB given to the printing process from OS
           849 MiB allocation reported by mallinfo(arena+hblkhd)
         39035 MiB available memory on the node where the printing process lives
     GPU memory used/free/total (MiB): 980 / 15300 / 16280
------------------
     ethr =  1.37E-09,  avg # of iterations =  6.0

     negative rho (up, down):  1.946E-04 1.532E-03

     total cpu time spent up to now is      173.8 secs

     total energy              =    -626.13759491 Ry
     estimated scf accuracy    <       0.00000120 Ry

     total magnetization       =     3.55 Bohr mag/cell
     absolute magnetization    =     3.72 Bohr mag/cell
[tb_dev] Currently allocated     1.53E+00 Mbytes, locked:    0 /  11
[tb_pin] Currently allocated     0.00E+00 Mbytes, locked:    0 /   0

     iteration # 36     ecut=    40.00 Ry     beta= 0.40
     Davidson diagonalization with overlap

---- Real-time Memory Report at c_bands before calling an iterative solver
          1035 MiB given to the printing process from OS
           849 MiB allocation reported by mallinfo(arena+hblkhd)
         39036 MiB available memory on the node where the printing process lives
     GPU memory used/free/total (MiB): 980 / 15300 / 16280
------------------
     ethr =  1.37E-09,  avg # of iterations =  9.0

     negative rho (up, down):  1.902E-04 1.535E-03

     total cpu time spent up to now is      180.8 secs

     total energy              =    -626.13781860 Ry
     estimated scf accuracy    <       0.00000131 Ry

     total magnetization       =     3.42 Bohr mag/cell
     absolute magnetization    =     3.59 Bohr mag/cell
[tb_dev] Currently allocated     1.53E+00 Mbytes, locked:    0 /  11
[tb_pin] Currently allocated     0.00E+00 Mbytes, locked:    0 /   0

     iteration # 37     ecut=    40.00 Ry     beta= 0.40
     Davidson diagonalization with overlap

---- Real-time Memory Report at c_bands before calling an iterative solver
          1035 MiB given to the printing process from OS
           849 MiB allocation reported by mallinfo(arena+hblkhd)
         39031 MiB available memory on the node where the printing process lives
     GPU memory used/free/total (MiB): 980 / 15300 / 16280
------------------
     ethr =  1.37E-09,  avg # of iterations =  6.1

     negative rho (up, down):  1.899E-04 1.536E-03

     total cpu time spent up to now is      185.8 secs

     total energy              =    -626.13783154 Ry
     estimated scf accuracy    <       0.00000095 Ry

     total magnetization       =     3.45 Bohr mag/cell
     absolute magnetization    =     3.62 Bohr mag/cell
[tb_dev] Currently allocated     1.53E+00 Mbytes, locked:    0 /  11
[tb_pin] Currently allocated     0.00E+00 Mbytes, locked:    0 /   0

     iteration # 38     ecut=    40.00 Ry     beta= 0.40
     Davidson diagonalization with overlap

---- Real-time Memory Report at c_bands before calling an iterative solver
          1035 MiB given to the printing process from OS
           849 MiB allocation reported by mallinfo(arena+hblkhd)
         39033 MiB available memory on the node where the printing process lives
     GPU memory used/free/total (MiB): 980 / 15300 / 16280
------------------
     ethr =  1.37E-09,  avg # of iterations =  1.1

     negative rho (up, down):  1.891E-04 1.536E-03

     total cpu time spent up to now is      188.0 secs

     total energy              =    -626.13783006 Ry
     estimated scf accuracy    <       0.00000094 Ry

     total magnetization       =     3.45 Bohr mag/cell
     absolute magnetization    =     3.62 Bohr mag/cell
[tb_dev] Currently allocated     1.53E+00 Mbytes, locked:    0 /  11
[tb_pin] Currently allocated     0.00E+00 Mbytes, locked:    0 /   0

     iteration # 39     ecut=    40.00 Ry     beta= 0.40
     Davidson diagonalization with overlap

---- Real-time Memory Report at c_bands before calling an iterative solver
          1035 MiB given to the printing process from OS
           849 MiB allocation reported by mallinfo(arena+hblkhd)
         39034 MiB available memory on the node where the printing process lives
     GPU memory used/free/total (MiB): 980 / 15300 / 16280
------------------
     ethr =  1.37E-09,  avg # of iterations =  3.3

     negative rho (up, down):  2.025E-04 1.527E-03

     total cpu time spent up to now is      191.2 secs

     total energy              =    -626.13773070 Ry
     estimated scf accuracy    <       0.00000090 Ry

     total magnetization       =     3.46 Bohr mag/cell
     absolute magnetization    =     3.63 Bohr mag/cell
[tb_dev] Currently allocated     1.53E+00 Mbytes, locked:    0 /  11
[tb_pin] Currently allocated     0.00E+00 Mbytes, locked:    0 /   0

     iteration # 40     ecut=    40.00 Ry     beta= 0.40
     Davidson diagonalization with overlap

---- Real-time Memory Report at c_bands before calling an iterative solver
          1035 MiB given to the printing process from OS
           849 MiB allocation reported by mallinfo(arena+hblkhd)
         39034 MiB available memory on the node where the printing process lives
     GPU memory used/free/total (MiB): 980 / 15300 / 16280
------------------
     ethr =  1.37E-09,  avg # of iterations =  8.1

     negative rho (up, down):  1.994E-04 1.529E-03

     total cpu time spent up to now is      197.5 secs

     total energy              =    -626.13783893 Ry
     estimated scf accuracy    <       0.00000283 Ry

     total magnetization       =     3.36 Bohr mag/cell
     absolute magnetization    =     3.53 Bohr mag/cell
[tb_dev] Currently allocated     1.53E+00 Mbytes, locked:    0 /  11
[tb_pin] Currently allocated     0.00E+00 Mbytes, locked:    0 /   0

     iteration # 41     ecut=    40.00 Ry     beta= 0.40
     Davidson diagonalization with overlap

---- Real-time Memory Report at c_bands before calling an iterative solver
          1035 MiB given to the printing process from OS
           849 MiB allocation reported by mallinfo(arena+hblkhd)
         39035 MiB available memory on the node where the printing process lives
     GPU memory used/free/total (MiB): 980 / 15300 / 16280
------------------
     ethr =  1.37E-09,  avg # of iterations =  5.5

     negative rho (up, down):  1.968E-04 1.531E-03

     total cpu time spent up to now is      202.2 secs

     total energy              =    -626.13783690 Ry
     estimated scf accuracy    <       0.00000202 Ry

     total magnetization       =     3.38 Bohr mag/cell
     absolute magnetization    =     3.55 Bohr mag/cell
[tb_dev] Currently allocated     1.53E+00 Mbytes, locked:    0 /  11
[tb_pin] Currently allocated     0.00E+00 Mbytes, locked:    0 /   0

     iteration # 42     ecut=    40.00 Ry     beta= 0.40
     Davidson diagonalization with overlap

---- Real-time Memory Report at c_bands before calling an iterative solver
          1035 MiB given to the printing process from OS
           849 MiB allocation reported by mallinfo(arena+hblkhd)
         39035 MiB available memory on the node where the printing process lives
     GPU memory used/free/total (MiB): 980 / 15300 / 16280
------------------
     ethr =  1.37E-09,  avg # of iterations =  5.3

     negative rho (up, down):  1.506E-04 1.563E-03

     total cpu time spent up to now is      206.8 secs

     total energy              =    -626.13637202 Ry
     estimated scf accuracy    <       0.00000153 Ry

     total magnetization       =     3.40 Bohr mag/cell
     absolute magnetization    =     3.57 Bohr mag/cell
[tb_dev] Currently allocated     1.53E+00 Mbytes, locked:    0 /  11
[tb_pin] Currently allocated     0.00E+00 Mbytes, locked:    0 /   0

     iteration # 43     ecut=    40.00 Ry     beta= 0.40
     Davidson diagonalization with overlap

---- Real-time Memory Report at c_bands before calling an iterative solver
          1035 MiB given to the printing process from OS
           849 MiB allocation reported by mallinfo(arena+hblkhd)
         39035 MiB available memory on the node where the printing process lives
     GPU memory used/free/total (MiB): 980 / 15300 / 16280
------------------
     ethr =  1.37E-09,  avg # of iterations = 11.7

     negative rho (up, down):  2.086E-04 1.531E-03

     total cpu time spent up to now is      215.4 secs

     total energy              =    -626.13575992 Ry
     estimated scf accuracy    <       0.00000716 Ry

     total magnetization       =     3.70 Bohr mag/cell
     absolute magnetization    =     3.87 Bohr mag/cell
[tb_dev] Currently allocated     1.53E+00 Mbytes, locked:    0 /  11
[tb_pin] Currently allocated     0.00E+00 Mbytes, locked:    0 /   0

     iteration # 44     ecut=    40.00 Ry     beta= 0.40
     Davidson diagonalization with overlap

---- Real-time Memory Report at c_bands before calling an iterative solver
          1035 MiB given to the printing process from OS
           849 MiB allocation reported by mallinfo(arena+hblkhd)
         39035 MiB available memory on the node where the printing process lives
     GPU memory used/free/total (MiB): 980 / 15300 / 16280
------------------
     ethr =  1.37E-09,  avg # of iterations = 12.0

     negative rho (up, down):  1.766E-04 1.545E-03

     total cpu time spent up to now is      224.2 secs

     total energy              =    -626.13710061 Ry
     estimated scf accuracy    <       0.00000580 Ry

     total magnetization       =     3.31 Bohr mag/cell
     absolute magnetization    =     3.48 Bohr mag/cell
[tb_dev] Currently allocated     1.53E+00 Mbytes, locked:    0 /  11
[tb_pin] Currently allocated     0.00E+00 Mbytes, locked:    0 /   0

     iteration # 45     ecut=    40.00 Ry     beta= 0.40
     Davidson diagonalization with overlap

---- Real-time Memory Report at c_bands before calling an iterative solver
          1035 MiB given to the printing process from OS
           849 MiB allocation reported by mallinfo(arena+hblkhd)
         39035 MiB available memory on the node where the printing process lives
     GPU memory used/free/total (MiB): 980 / 15300 / 16280
------------------
     ethr =  1.37E-09,  avg # of iterations = 10.7

     negative rho (up, down):  1.763E-04 1.545E-03

     total cpu time spent up to now is      232.2 secs

     total energy              =    -626.13781485 Ry
     estimated scf accuracy    <       0.00000095 Ry

     total magnetization       =     3.54 Bohr mag/cell
     absolute magnetization    =     3.71 Bohr mag/cell
[tb_dev] Currently allocated     1.53E+00 Mbytes, locked:    0 /  11
[tb_pin] Currently allocated     0.00E+00 Mbytes, locked:    0 /   0

     iteration # 46     ecut=    40.00 Ry     beta= 0.40
     Davidson diagonalization with overlap

---- Real-time Memory Report at c_bands before calling an iterative solver
          1035 MiB given to the printing process from OS
           849 MiB allocation reported by mallinfo(arena+hblkhd)
         39035 MiB available memory on the node where the printing process lives
     GPU memory used/free/total (MiB): 980 / 15300 / 16280
------------------
     ethr =  1.37E-09,  avg # of iterations =  1.3

     negative rho (up, down):  1.996E-04 1.529E-03

     total cpu time spent up to now is      234.5 secs

     total energy              =    -626.13749248 Ry
     estimated scf accuracy    <       0.00000089 Ry

     total magnetization       =     3.54 Bohr mag/cell
     absolute magnetization    =     3.71 Bohr mag/cell
[tb_dev] Currently allocated     1.53E+00 Mbytes, locked:    0 /  11
[tb_pin] Currently allocated     0.00E+00 Mbytes, locked:    0 /   0

     iteration # 47     ecut=    40.00 Ry     beta= 0.40
     Davidson diagonalization with overlap

---- Real-time Memory Report at c_bands before calling an iterative solver
          1035 MiB given to the printing process from OS
           849 MiB allocation reported by mallinfo(arena+hblkhd)
         39035 MiB available memory on the node where the printing process lives
     GPU memory used/free/total (MiB): 980 / 15300 / 16280
------------------
     ethr =  1.37E-09,  avg # of iterations =  9.3

     negative rho (up, down):  2.026E-04 1.527E-03

     total cpu time spent up to now is      241.6 secs

     total energy              =    -626.13784610 Ry
     estimated scf accuracy    <       0.00000217 Ry

     total magnetization       =     3.38 Bohr mag/cell
     absolute magnetization    =     3.55 Bohr mag/cell
[tb_dev] Currently allocated     1.53E+00 Mbytes, locked:    0 /  11
[tb_pin] Currently allocated     0.00E+00 Mbytes, locked:    0 /   0

     iteration # 48     ecut=    40.00 Ry     beta= 0.40
     Davidson diagonalization with overlap

---- Real-time Memory Report at c_bands before calling an iterative solver
          1035 MiB given to the printing process from OS
           849 MiB allocation reported by mallinfo(arena+hblkhd)
         39035 MiB available memory on the node where the printing process lives
     GPU memory used/free/total (MiB): 980 / 15300 / 16280
------------------
     ethr =  1.37E-09,  avg # of iterations =  5.7

     negative rho (up, down):  2.511E-04 1.620E-03

     total cpu time spent up to now is      246.4 secs

     total energy              =    -626.13643289 Ry
     estimated scf accuracy    <       0.00000304 Ry

     total magnetization       =     3.36 Bohr mag/cell
     absolute magnetization    =     3.53 Bohr mag/cell
[tb_dev] Currently allocated     1.53E+00 Mbytes, locked:    0 /  11
[tb_pin] Currently allocated     0.00E+00 Mbytes, locked:    0 /   0

     iteration # 49     ecut=    40.00 Ry     beta= 0.40
     Davidson diagonalization with overlap

---- Real-time Memory Report at c_bands before calling an iterative solver
          1035 MiB given to the printing process from OS
           849 MiB allocation reported by mallinfo(arena+hblkhd)
         39036 MiB available memory on the node where the printing process lives
     GPU memory used/free/total (MiB): 980 / 15300 / 16280
------------------
     ethr =  1.37E-09,  avg # of iterations = 11.7

     negative rho (up, down):  2.111E-04 1.537E-03

     total cpu time spent up to now is      255.0 secs

     total energy              =    -626.13649893 Ry
     estimated scf accuracy    <       0.00021783 Ry

     total magnetization       =     2.91 Bohr mag/cell
     absolute magnetization    =     3.12 Bohr mag/cell
[tb_dev] Currently allocated     1.53E+00 Mbytes, locked:    0 /  11
[tb_pin] Currently allocated     0.00E+00 Mbytes, locked:    0 /   0

     iteration # 50     ecut=    40.00 Ry     beta= 0.40
     Davidson diagonalization with overlap

---- Real-time Memory Report at c_bands before calling an iterative solver
          1035 MiB given to the printing process from OS
           849 MiB allocation reported by mallinfo(arena+hblkhd)
         39035 MiB available memory on the node where the printing process lives
     GPU memory used/free/total (MiB): 980 / 15300 / 16280
------------------
     ethr =  1.37E-09,  avg # of iterations = 11.3

     negative rho (up, down):  1.691E-04 1.550E-03

     total cpu time spent up to now is      263.4 secs

     total energy              =    -626.13658885 Ry
     estimated scf accuracy    <       0.00000839 Ry

     total magnetization       =     3.29 Bohr mag/cell
     absolute magnetization    =     3.46 Bohr mag/cell
[tb_dev] Currently allocated     1.53E+00 Mbytes, locked:    0 /  11
[tb_pin] Currently allocated     0.00E+00 Mbytes, locked:    0 /   0

     iteration # 51     ecut=    40.00 Ry     beta= 0.40
     Davidson diagonalization with overlap

---- Real-time Memory Report at c_bands before calling an iterative solver
          1035 MiB given to the printing process from OS
           849 MiB allocation reported by mallinfo(arena+hblkhd)
         39036 MiB available memory on the node where the printing process lives
     GPU memory used/free/total (MiB): 980 / 15300 / 16280
------------------
     ethr =  1.37E-09,  avg # of iterations = 11.7

     negative rho (up, down):  1.847E-04 1.539E-03

     total cpu time spent up to now is      271.9 secs

     total energy              =    -626.13767404 Ry
     estimated scf accuracy    <       0.00000239 Ry

     total magnetization       =     3.59 Bohr mag/cell
     absolute magnetization    =     3.76 Bohr mag/cell
[tb_dev] Currently allocated     1.53E+00 Mbytes, locked:    0 /  11
[tb_pin] Currently allocated     0.00E+00 Mbytes, locked:    0 /   0

     iteration # 52     ecut=    40.00 Ry     beta= 0.40
     Davidson diagonalization with overlap

---- Real-time Memory Report at c_bands before calling an iterative solver
[...]
------------------
     ethr =  1.37E-09,  avg # of iterations =  8.7

     negative rho (up, down):  2.396E-04 1.596E-03

     total cpu time spent up to now is      360.4 secs

     total energy              =    -626.13271455 Ry
     estimated scf accuracy    <       0.00000791 Ry

     total magnetization       =     3.71 Bohr mag/cell
     absolute magnetization    =     3.88 Bohr mag/cell
[tb_dev] Currently allocated     1.53E+00 Mbytes, locked:    0 /  11
[tb_pin] Currently allocated     0.00E+00 Mbytes, locked:    0 /   0

     iteration # 66     ecut=    40.00 Ry     beta= 0.40
     Davidson diagonalization with overlap

---- Real-time Memory Report at c_bands before calling an iterative solver
          1036 MiB given to the printing process from OS
           849 MiB allocation reported by mallinfo(arena+hblkhd)
         39037 MiB available memory on the node where the printing process lives
     GPU memory used/free/total (MiB): 980 / 15300 / 16280
------------------
     ethr =  1.37E-09,  avg # of iterations = 12.6

     negative rho (up, down):  2.469E-04 1.612E-03

     total cpu time spent up to now is      369.8 secs

     total energy              =    -626.13813776 Ry
     estimated scf accuracy    <       0.00010271 Ry

     total magnetization       =     3.03 Bohr mag/cell
     absolute magnetization    =     3.22 Bohr mag/cell
[tb_dev] Currently allocated     1.53E+00 Mbytes, locked:    0 /  11
[tb_pin] Currently allocated     0.00E+00 Mbytes, locked:    0 /   0

     iteration # 67     ecut=    40.00 Ry     beta= 0.40
     Davidson diagonalization with overlap

---- Real-time Memory Report at c_bands before calling an iterative solver
          1036 MiB given to the printing process from OS
           849 MiB allocation reported by mallinfo(arena+hblkhd)
         39037 MiB available memory on the node where the printing process lives
     GPU memory used/free/total (MiB): 980 / 15300 / 16280
------------------
     ethr =  1.37E-09,  avg # of iterations =  7.5

     negative rho (up, down):  2.468E-04 1.612E-03

     total cpu time spent up to now is      375.7 secs

     total energy              =    -626.13817987 Ry
     estimated scf accuracy    <       0.00016595 Ry

     total magnetization       =     2.95 Bohr mag/cell
     absolute magnetization    =     3.16 Bohr mag/cell
[tb_dev] Currently allocated     1.53E+00 Mbytes, locked:    0 /  11
[tb_pin] Currently allocated     0.00E+00 Mbytes, locked:    0 /   0

     iteration # 68     ecut=    40.00 Ry     beta= 0.40
     Davidson diagonalization with overlap

---- Real-time Memory Report at c_bands before calling an iterative solver
          1036 MiB given to the printing process from OS
           849 MiB allocation reported by mallinfo(arena+hblkhd)
         39037 MiB available memory on the node where the printing process lives
     GPU memory used/free/total (MiB): 980 / 15300 / 16280
------------------
     ethr =  1.37E-09,  avg # of iterations =  1.1

     negative rho (up, down):  2.610E-04 1.642E-03

     total cpu time spent up to now is      377.9 secs

     total energy              =    -626.13826855 Ry
     estimated scf accuracy    <       0.00016399 Ry

     total magnetization       =     2.96 Bohr mag/cell
     absolute magnetization    =     3.16 Bohr mag/cell
[tb_dev] Currently allocated     1.53E+00 Mbytes, locked:    0 /  11
[tb_pin] Currently allocated     0.00E+00 Mbytes, locked:    0 /   0

     iteration # 69     ecut=    40.00 Ry     beta= 0.40
     Davidson diagonalization with overlap

---- Real-time Memory Report at c_bands before calling an iterative solver
          1036 MiB given to the printing process from OS
           849 MiB allocation reported by mallinfo(arena+hblkhd)
         39037 MiB available memory on the node where the printing process lives
     GPU memory used/free/total (MiB): 980 / 15300 / 16280
------------------
     ethr =  1.37E-09,  avg # of iterations =  8.4

     negative rho (up, down):  2.395E-04 1.595E-03

     total cpu time spent up to now is      384.5 secs

     total energy              =    -626.13764887 Ry
     estimated scf accuracy    <       0.00036603 Ry

     total magnetization       =     2.80 Bohr mag/cell
     absolute magnetization    =     3.04 Bohr mag/cell
[tb_dev] Currently allocated     1.53E+00 Mbytes, locked:    0 /  11
[tb_pin] Currently allocated     0.00E+00 Mbytes, locked:    0 /   0

     iteration # 70     ecut=    40.00 Ry     beta= 0.40
     Davidson diagonalization with overlap

---- Real-time Memory Report at c_bands before calling an iterative solver
          1036 MiB given to the printing process from OS
           849 MiB allocation reported by mallinfo(arena+hblkhd)
         39037 MiB available memory on the node where the printing process lives
     GPU memory used/free/total (MiB): 980 / 15300 / 16280
------------------
     ethr =  1.37E-09,  avg # of iterations =  9.4

     negative rho (up, down):  2.164E-04 1.547E-03

     total cpu time spent up to now is      391.8 secs

     total energy              =    -626.13745412 Ry
     estimated scf accuracy    <       0.00009998 Ry

     total magnetization       =     3.03 Bohr mag/cell
     absolute magnetization    =     3.22 Bohr mag/cell
[tb_dev] Currently allocated     1.53E+00 Mbytes, locked:    0 /  11
[tb_pin] Currently allocated     0.00E+00 Mbytes, locked:    0 /   0

     iteration # 71     ecut=    40.00 Ry     beta= 0.40
     Davidson diagonalization with overlap

---- Real-time Memory Report at c_bands before calling an iterative solver
          1036 MiB given to the printing process from OS
           849 MiB allocation reported by mallinfo(arena+hblkhd)
         39006 MiB available memory on the node where the printing process lives
     GPU memory used/free/total (MiB): 980 / 15300 / 16280
------------------
     ethr =  1.37E-09,  avg # of iterations =  9.5

     negative rho (up, down):  2.237E-04 1.561E-03

     total cpu time spent up to now is      399.1 secs

     total energy              =    -626.13789487 Ry
     estimated scf accuracy    <       0.00001342 Ry

     total magnetization       =     3.25 Bohr mag/cell
     absolute magnetization    =     3.42 Bohr mag/cell
[tb_dev] Currently allocated     1.53E+00 Mbytes, locked:    0 /  11
[tb_pin] Currently allocated     0.00E+00 Mbytes, locked:    0 /   0

     iteration # 72     ecut=    40.00 Ry     beta= 0.40
     Davidson diagonalization with overlap

---- Real-time Memory Report at c_bands before calling an iterative solver
          1036 MiB given to the printing process from OS
           849 MiB allocation reported by mallinfo(arena+hblkhd)
         39018 MiB available memory on the node where the printing process lives
     GPU memory used/free/total (MiB): 980 / 15300 / 16280
------------------
     ethr =  1.37E-09,  avg # of iterations =  7.2

     negative rho (up, down):  1.938E-04 1.533E-03

     total cpu time spent up to now is      404.9 secs

     total energy              =    -626.13716598 Ry
     estimated scf accuracy    <       0.00002742 Ry

     total magnetization       =     3.18 Bohr mag/cell
     absolute magnetization    =     3.36 Bohr mag/cell
[tb_dev] Currently allocated     1.53E+00 Mbytes, locked:    0 /  11
[tb_pin] Currently allocated     0.00E+00 Mbytes, locked:    0 /   0

     iteration # 73     ecut=    40.00 Ry     beta= 0.40
     Davidson diagonalization with overlap

---- Real-time Memory Report at c_bands before calling an iterative solver
          1036 MiB given to the printing process from OS
           849 MiB allocation reported by mallinfo(arena+hblkhd)
         39023 MiB available memory on the node where the printing process lives
     GPU memory used/free/total (MiB): 980 / 15300 / 16280
------------------
     ethr =  1.37E-09,  avg # of iterations = 10.3

     negative rho (up, down):  2.387E-04 1.597E-03

     total cpu time spent up to now is      412.7 secs

     total energy              =    -626.13658936 Ry
     estimated scf accuracy    <       0.00000118 Ry

     total magnetization       =     3.42 Bohr mag/cell
     absolute magnetization    =     3.59 Bohr mag/cell
[tb_dev] Currently allocated     1.53E+00 Mbytes, locked:    0 /  11
[tb_pin] Currently allocated     0.00E+00 Mbytes, locked:    0 /   0

     iteration # 74     ecut=    40.00 Ry     beta= 0.40
     Davidson diagonalization with overlap

---- Real-time Memory Report at c_bands before calling an iterative solver
          1036 MiB given to the printing process from OS
           849 MiB allocation reported by mallinfo(arena+hblkhd)
         39027 MiB available memory on the node where the printing process lives
     GPU memory used/free/total (MiB): 980 / 15300 / 16280
------------------
     ethr =  1.37E-09,  avg # of iterations = 11.7

     negative rho (up, down):  1.762E-04 1.545E-03

     total cpu time spent up to now is      421.2 secs

     total energy              =    -626.13479929 Ry
     estimated scf accuracy    <       0.00009643 Ry

     total magnetization       =     3.04 Bohr mag/cell
     absolute magnetization    =     3.23 Bohr mag/cell
[tb_dev] Currently allocated     1.53E+00 Mbytes, locked:    0 /  11
[tb_pin] Currently allocated     0.00E+00 Mbytes, locked:    0 /   0

     iteration # 75     ecut=    40.00 Ry     beta= 0.40
     Davidson diagonalization with overlap

---- Real-time Memory Report at c_bands before calling an iterative solver
          1036 MiB given to the printing process from OS
           849 MiB allocation reported by mallinfo(arena+hblkhd)
         39030 MiB available memory on the node where the printing process lives
     GPU memory used/free/total (MiB): 980 / 15300 / 16280
------------------
     ethr =  1.37E-09,  avg # of iterations = 12.2

     negative rho (up, down):  1.662E-04 1.552E-03

     total cpu time spent up to now is      430.1 secs

     total energy              =    -626.13773581 Ry
     estimated scf accuracy    <       0.00000153 Ry

     total magnetization       =     3.54 Bohr mag/cell
     absolute magnetization    =     3.71 Bohr mag/cell
[tb_dev] Currently allocated     1.53E+00 Mbytes, locked:    0 /  11
[tb_pin] Currently allocated     0.00E+00 Mbytes, locked:    0 /   0

     iteration # 76     ecut=    40.00 Ry     beta= 0.40
     Davidson diagonalization with overlap

---- Real-time Memory Report at c_bands before calling an iterative solver
          1036 MiB given to the printing process from OS
           849 MiB allocation reported by mallinfo(arena+hblkhd)
         39030 MiB available memory on the node where the printing process lives
     GPU memory used/free/total (MiB): 980 / 15300 / 16280
------------------
     ethr =  1.37E-09,  avg # of iterations =  7.8

     negative rho (up, down):  1.562E-04 1.559E-03

     total cpu time spent up to now is      436.2 secs

     total energy              =    -626.13771493 Ry
     estimated scf accuracy    <       0.00000292 Ry

     total magnetization       =     3.61 Bohr mag/cell
     absolute magnetization    =     3.78 Bohr mag/cell
[tb_dev] Currently allocated     1.53E+00 Mbytes, locked:    0 /  11
[tb_pin] Currently allocated     0.00E+00 Mbytes, locked:    0 /   0

     iteration # 77     ecut=    40.00 Ry     beta= 0.40
     Davidson diagonalization with overlap

---- Real-time Memory Report at c_bands before calling an iterative solver
          1036 MiB given to the printing process from OS
           849 MiB allocation reported by mallinfo(arena+hblkhd)
         39031 MiB available memory on the node where the printing process lives
     GPU memory used/free/total (MiB): 980 / 15300 / 16280
------------------
     ethr =  1.37E-09,  avg # of iterations =  7.9

     negative rho (up, down):  1.836E-04 1.540E-03

     total cpu time spent up to now is      442.3 secs

     total energy              =    -626.13736178 Ry
     estimated scf accuracy    <       0.00000566 Ry

     total magnetization       =     3.67 Bohr mag/cell
     absolute magnetization    =     3.84 Bohr mag/cell
[tb_dev] Currently allocated     1.53E+00 Mbytes, locked:    0 /  11
[tb_pin] Currently allocated     0.00E+00 Mbytes, locked:    0 /   0

     iteration # 78     ecut=    40.00 Ry     beta= 0.40
     Davidson diagonalization with overlap

---- Real-time Memory Report at c_bands before calling an iterative solver
          1036 MiB given to the printing process from OS
           849 MiB allocation reported by mallinfo(arena+hblkhd)
         39031 MiB available memory on the node where the printing process lives
     GPU memory used/free/total (MiB): 980 / 15300 / 16280
------------------
     ethr =  1.37E-09,  avg # of iterations = 10.0

     negative rho (up, down):  1.991E-04 1.529E-03

     total cpu time spent up to now is      449.9 secs

     total energy              =    -626.13768597 Ry
     estimated scf accuracy    <       0.00000095 Ry

     total magnetization       =     3.49 Bohr mag/cell
     absolute magnetization    =     3.66 Bohr mag/cell
[tb_dev] Currently allocated     1.53E+00 Mbytes, locked:    0 /  11
[tb_pin] Currently allocated     0.00E+00 Mbytes, locked:    0 /   0

     iteration # 79     ecut=    40.00 Ry     beta= 0.40
     Davidson diagonalization with overlap

---- Real-time Memory Report at c_bands before calling an iterative solver
          1036 MiB given to the printing process from OS
           849 MiB allocation reported by mallinfo(arena+hblkhd)
         39031 MiB available memory on the node where the printing process lives
     GPU memory used/free/total (MiB): 980 / 15300 / 16280
------------------
     ethr =  1.37E-09,  avg # of iterations =  8.7

     negative rho (up, down):  2.117E-04 1.538E-03

     total cpu time spent up to now is      456.6 secs

     total energy              =    -626.13776680 Ry
     estimated scf accuracy    <       0.00000208 Ry

     total magnetization       =     3.38 Bohr mag/cell
     absolute magnetization    =     3.55 Bohr mag/cell
[tb_dev] Currently allocated     1.53E+00 Mbytes, locked:    0 /  11
[tb_pin] Currently allocated     0.00E+00 Mbytes, locked:    0 /   0

     iteration # 80     ecut=    40.00 Ry     beta= 0.40
     Davidson diagonalization with overlap

---- Real-time Memory Report at c_bands before calling an iterative solver
          1036 MiB given to the printing process from OS
           849 MiB allocation reported by mallinfo(arena+hblkhd)
         39032 MiB available memory on the node where the printing process lives
     GPU memory used/free/total (MiB): 980 / 15300 / 16280
------------------
     ethr =  1.37E-09,  avg # of iterations =  8.2

     negative rho (up, down):  2.115E-04 1.537E-03

     total cpu time spent up to now is      463.0 secs

     total energy              =    -626.13787752 Ry
     estimated scf accuracy    <       0.00000829 Ry

     total magnetization       =     3.29 Bohr mag/cell
     absolute magnetization    =     3.46 Bohr mag/cell

     End of self-consistent calculation

     convergence NOT achieved after  80 iterations: stopping

     Writing config to output data dir ./out/aiida.save/
 
     init_run     :     10.40s CPU      3.51s WALL (       1 calls)
     electrons    :    568.63s CPU    458.24s WALL (       1 calls)

     Called by init_run:
     wfcinit      :      1.27s CPU      1.94s WALL (       1 calls)
                                        1.94s GPU  (       1 calls)
     wfcinit:atom :      0.05s CPU      0.05s WALL (     144 calls)
                                        0.05s GPU  (     144 calls)
     wfcinit:wfcr :      0.85s CPU      1.41s WALL (     144 calls)
                                        1.41s GPU  (     144 calls)
     potinit      :      0.37s CPU      0.04s WALL (       1 calls)
     hinit0       :      6.57s CPU      1.04s WALL (       1 calls)

     Called by electrons:
     c_bands      :    498.57s CPU    421.70s WALL (      80 calls)
     sum_band     :     26.68s CPU     32.45s WALL (      80 calls)
     v_of_rho     :      8.77s CPU      0.78s WALL (      81 calls)
     v_h          :      1.17s CPU      0.11s WALL (      81 calls)
     v_xc         :      7.60s CPU      0.68s WALL (      81 calls)
     newd         :     25.09s CPU      2.56s WALL (      81 calls)
                                        2.56s GPU  (      81 calls)
     mix_rho      :      8.14s CPU      0.80s WALL (      80 calls)

     Called by c_bands:
     init_us_2    :     26.42s CPU     26.25s WALL (   23184 calls)
     init_us_2:gp :     26.00s CPU     25.87s WALL (   23184 calls)
     cegterg      :    467.45s CPU    395.96s WALL (   11520 calls)

     Called by sum_band:
     sum_band:wei :      0.33s CPU      0.34s WALL (      80 calls)
                                        0.34s GPU  (      80 calls)
     sum_band:loo :     23.28s CPU     28.69s WALL (      80 calls)
                                       28.69s GPU  (      80 calls)
     sum_band:buf :      2.79s CPU      3.42s WALL (   11520 calls)
                                        3.35s GPU  (   11520 calls)
     sum_band:ini :     10.09s CPU     12.94s WALL (   11520 calls)
                                       12.88s GPU  (   11520 calls)
     sum_band:cal :      0.34s CPU      0.78s WALL (   11520 calls)
                                        0.72s GPU  (   11520 calls)
     sum_band:bec :      2.09s CPU      2.61s WALL (   11520 calls)
                                        2.53s GPU  (   11520 calls)
     addusdens    :      2.60s CPU      2.94s WALL (      80 calls)
                                        2.94s GPU  (      80 calls)
     addusd:skk   :      0.01s CPU      0.02s WALL (     320 calls)
                                        0.01s GPU  (     320 calls)

     Called by *egterg:
     cdiaghg      :    269.00s CPU    234.12s WALL (   93568 calls)
                                      233.50s GPU  (   93568 calls)
     cegterg:over :     11.47s CPU      9.56s WALL (   82048 calls)
     cegterg:upda :     25.23s CPU     21.16s WALL (   82048 calls)
     cegterg:last :      4.86s CPU      4.25s WALL (   40080 calls)
     h_psi        :    114.82s CPU     94.80s WALL (   93712 calls)
                                       94.29s GPU  (   93712 calls)
     s_psi        :      9.20s CPU     11.10s WALL (   93712 calls)
                                       10.46s GPU  (   93712 calls)
     g_psi        :      0.71s CPU      1.62s WALL (   82048 calls)
                                        1.10s GPU  (   82048 calls)

     Called by h_psi:
     h_psi:calbec :      3.68s CPU      7.34s WALL (   93712 calls)
                                        6.78s GPU  (   93712 calls)
     vloc_psi     :     83.65s CPU     69.44s WALL (   93712 calls)
                                       68.89s GPU  (   93712 calls)
     add_vuspsi   :     12.33s CPU     12.41s WALL (   93712 calls)
                                       11.87s GPU  (   93712 calls)

     General routines
     calbec       :      3.04s CPU      2.59s WALL (  105232 calls)
     fft          :      2.67s CPU      0.30s WALL (    2023 calls)
                                        0.23s GPU  (    1861 calls)
     ffts         :      0.19s CPU      0.03s WALL (     322 calls)
                                        0.00s GPU  (     160 calls)
     fftw         :      6.49s CPU     37.44s WALL (  276954 calls)
                                       35.93s GPU  (  276954 calls)
     interpolate  :      1.70s CPU      0.15s WALL (     162 calls)
     davcio       :      0.97s CPU      0.09s WALL (     162 calls)
 
     Parallel routines
 
     PWSCF        :   9m43.33s CPU   7m43.10s WALL

 
   This run was terminated on:  22:43: 7  22Oct2023            

=------------------------------------------------------------------------------=
   JOB DONE.
=------------------------------------------------------------------------------=
