
     Program PWSCF v.7.2 starts on 28Nov2023 at 20:49: 8 
        Git branch: develop
        Last git commit: 9055681be6fc8200e6fffe76ed5fda34c2696339
        Last git commit date: Wed Nov 8 16:29:39 2023 +0000
        Last git commit subject: Merge branch 'calbec_fix' into 'develop'

     This program is part of the open-source Quantum ESPRESSO suite
     for quantum simulation of materials; please cite
         "P. Giannozzi et al., J. Phys.:Condens. Matter 21 395502 (2009);
         "P. Giannozzi et al., J. Phys.:Condens. Matter 29 465901 (2017);
         "P. Giannozzi et al., J. Chem. Phys. 152 154105 (2020);
          URL http://www.quantum-espresso.org", 
     in publications or presentations arising from this work. More details at
     http://www.quantum-espresso.org/quote

     Parallel version (MPI), running on    56 processors

     MPI processes distributed on     1 nodes
     491108 MiB available memory on the printing compute node when the environment starts

     Reading input from aiida.in

     Current dimensions of program PWSCF are:
     Max number of different atomic species (ntypx) = 10
     Max number of k-points (npk) =  40000
     Max angular momentum in pseudopotentials (lmaxx) =  4
     file Fe.pbesol-spn-kjpaw_psl.0.2.1.UPF: wavefunction(s)  3D renormalized
     Message from routine setup:
     using ibrav=0 with symmetry is DISCOURAGED, use correct ibrav instead

     K-points division:     npool     =       8
     R & G space division:  proc/nbgrp/npool/nimage =       7
     Subspace diagonalization in iterative solution of the eigenvalue problem:
     a serial algorithm will be used


     Parallelization info
     --------------------
     sticks:   dense  smooth     PW     G-vecs:    dense   smooth      PW
     Min        1023     340     98                55813    10731    1663
     Max        1024     341     99                55814    10732    1666
     Sum        7163    2385    691               390693    75123   11649

     Using Slab Decomposition



     bravais-lattice index     =            0
     lattice parameter (alat)  =       9.9588  a.u.
     unit-cell volume          =     651.7263 (a.u.)^3
     number of atoms/cell      =            8
     number of atomic types    =            3
     number of electrons       =        76.00
     number of Kohn-Sham states=           46
     kinetic-energy cutoff     =      90.0000  Ry
     charge density cutoff     =    1080.0000  Ry
     scf convergence threshold =      1.6E-09
     mixing beta               =       0.4000
     number of iterations used =            8  plain     mixing
     Exchange-correlation= SLA  PW   PSX  PSC
                           (   1   4  10   8   0   0   0)

     celldm(1)=   9.958819  celldm(2)=   0.000000  celldm(3)=   0.000000
     celldm(4)=   0.000000  celldm(5)=   0.000000  celldm(6)=   0.000000

     crystal axes: (cart. coord. in units of alat)
               a(1) = (   0.477924   0.275930   0.833937 )  
               a(2) = (  -0.477924   0.275930   0.833937 )  
               a(3) = (  -0.000000  -0.551859   0.833937 )  

     reciprocal axes: (cart. coord. in units 2 pi/alat)
               b(1) = (  1.046191  0.604019  0.399710 )  
               b(2) = ( -1.046191  0.604019  0.399710 )  
               b(3) = (  0.000000 -1.208038  0.399710 )  


     PseudoPot. # 1 for F  read from file:
     ./pseudo/f_pbesol_v1.4.uspp.F.UPF
     MD5 check sum: d2815ecb49b17b99c5724ffd2f9bbd8d
     Pseudo is Ultrasoft, Zval =  7.0
     Generated by new atomic code, or converted to UPF format
     Using radial grid of  799 points,  4 beta functions with: 
                l(1) =   0
                l(2) =   0
                l(3) =   1
                l(4) =   1
     Q(r) pseudized with  8 coefficients,  rinner =    0.950   0.950   0.950


     PseudoPot. # 2 for Fe read from file:
     ./pseudo/Fe.pbesol-spn-kjpaw_psl.0.2.1.UPF
     MD5 check sum: 4d7ec5aa2156491519a4322664fbbf52
     Pseudo is Projector augmented-wave + core cor, Zval = 16.0
     Generated using "atomic" code by A. Dal Corso  v.6.0 svn rev. 13079
     Shape of augmentation charge: PSQ
     Using radial grid of 1191 points,  6 beta functions with: 
                l(1) =   0
                l(2) =   0
                l(3) =   1
                l(4) =   1
                l(5) =   2
                l(6) =   2
     Q(r) pseudized with 0 coefficients 


     PseudoPot. # 3 for Ni read from file:
     ./pseudo/ni_pbesol_v1.4.uspp.F.UPF
     MD5 check sum: de937c0c8ae4b350e69c02b76d8a83cb
     Pseudo is Ultrasoft + core correction, Zval = 18.0
     Generated by new atomic code, or converted to UPF format
     Using radial grid of  865 points,  6 beta functions with: 
                l(1) =   0
                l(2) =   0
                l(3) =   1
                l(4) =   1
                l(5) =   2
                l(6) =   2
     Q(r) pseudized with 10 coefficients,  rinner =    0.980   0.980   0.980
                                                       0.980   0.980

     atomic species   valence    mass     pseudopotential
     F                 7.00    18.99840     F ( 1.00)
     Fe               16.00    55.84500     Fe( 1.00)
     Ni               18.00    58.69340     Ni( 1.00)

     Starting magnetic structure 
     atomic species   magnetization
     F               0.100
     Fe              0.312
     Ni              0.278

      6 Sym. Ops., with inversion, found


                                    s                        frac. trans.

      isym =  1     identity                                     

 cryst.   s( 1) = (     1          0          0      )
                  (     0          1          0      )
                  (     0          0          1      )

 cart.    s( 1) = (  1.0000000  0.0000000 -0.0000000 )
                  (  0.0000000  1.0000000  0.0000000 )
                  ( -0.0000000  0.0000000  1.0000000 )


      isym =  2     120 deg rotation - cryst. axis [0,0,1]       

 cryst.   s( 2) = (     0          1          0      )
                  (     0          0          1      )
                  (     1          0          0      )

 cart.    s( 2) = ( -0.5000000 -0.8660254 -0.0000000 )
                  (  0.8660254 -0.5000000  0.0000000 )
                  ( -0.0000000 -0.0000000  1.0000000 )


      isym =  3     120 deg rotation - cryst. axis [0,0,-1]      

 cryst.   s( 3) = (     0          0          1      )
                  (     1          0          0      )
                  (     0          1          0      )

 cart.    s( 3) = ( -0.5000000  0.8660254 -0.0000000 )
                  ( -0.8660254 -0.5000000  0.0000000 )
                  (  0.0000000  0.0000000  1.0000000 )


      isym =  4     inversion                                    

 cryst.   s( 4) = (    -1          0          0      )
                  (     0         -1          0      )
                  (     0          0         -1      )

 cart.    s( 4) = ( -1.0000000 -0.0000000  0.0000000 )
                  ( -0.0000000 -1.0000000 -0.0000000 )
                  (  0.0000000 -0.0000000 -1.0000000 )


      isym =  5     inv. 120 deg rotation - cryst. axis [0,0,1]  

 cryst.   s( 5) = (     0         -1          0      )
                  (     0          0         -1      )
                  (    -1          0          0      )

 cart.    s( 5) = (  0.5000000  0.8660254  0.0000000 )
                  ( -0.8660254  0.5000000 -0.0000000 )
                  (  0.0000000  0.0000000 -1.0000000 )


      isym =  6     inv. 120 deg rotation - cryst. axis [0,0,-1] 

 cryst.   s( 6) = (     0          0         -1      )
                  (    -1          0          0      )
                  (     0         -1          0      )

 cart.    s( 6) = (  0.5000000 -0.8660254  0.0000000 )
                  (  0.8660254  0.5000000 -0.0000000 )
                  ( -0.0000000 -0.0000000 -1.0000000 )


   Cartesian axes

     site n.     atom                  positions (alat units)
         1        Fe     tau(   1) = (  -0.0000000   0.5518591   0.4169687  )
         2        Ni     tau(   2) = (   0.0000000   0.0000000   0.0000000  )
         3        F      tau(   3) = (  -0.2998495   0.6087558   0.1998948  )
         4        F      tau(   4) = (   0.3772732   0.0121961   0.6340426  )
         5        F      tau(   5) = (   0.7566493   0.3206301   0.6340426  )
         6        F      tau(   6) = (   0.2998495   0.4949624   0.6340426  )
         7        F      tau(   7) = (   0.1006508   0.2637335   0.1998948  )
         8        F      tau(   8) = (   0.1991987   0.7830881   0.1998948  )

   Crystallographic axes

     site n.     atom                  positions (cryst. coord.)
         1        Fe     tau(   1) = (  0.5000000  0.5000000 -0.5000000  )
         2        Ni     tau(   2) = (  0.0000000  0.0000000  0.0000000  )
         3        F      tau(   3) = (  0.1339000  0.7613000 -0.6555000  )
         4        F      tau(   4) = (  0.6555000 -0.1339000  0.2387000  )
         5        F      tau(   5) = (  1.2387000 -0.3445000 -0.1339000  )
         6        F      tau(   6) = (  0.8661000  0.2387000 -0.3445000  )
         7        F      tau(   7) = (  0.3445000  0.1339000 -0.2387000  )
         8        F      tau(   8) = (  0.7613000  0.3445000 -0.8661000  )

     number of k points=   226  Marzari-Vanderbilt smearing, width (Ry)=  0.0200
                       cart. coord. in units 2pi/alat
        k(    1) = (   0.0000000   0.0000000   0.0000000), wk =   0.0007513
        k(    2) = (   0.0000000  -0.1098216   0.0363373), wk =   0.0045079
        k(    3) = (   0.0000000  -0.2196432   0.0726746), wk =   0.0045079
        k(    4) = (   0.0000000  -0.3294649   0.1090119), wk =   0.0045079
        k(    5) = (   0.0000000  -0.4392865   0.1453492), wk =   0.0045079
        k(    6) = (   0.0000000  -0.5491081   0.1816865), wk =   0.0045079
        k(    7) = (  -0.0951083  -0.0549108   0.0726746), wk =   0.0045079
        k(    8) = (  -0.0951083  -0.1647324   0.1090119), wk =   0.0045079
        k(    9) = (  -0.0951083  -0.2745540   0.1453492), wk =   0.0045079
        k(   10) = (  -0.0951083  -0.3843757   0.1816865), wk =   0.0045079
        k(   11) = (  -0.0951083  -0.4941973   0.2180238), wk =   0.0045079
        k(   12) = (  -0.0951083   0.6040189  -0.1453492), wk =   0.0045079
        k(   13) = (  -0.0951083   0.4941973  -0.1090119), wk =   0.0045079
        k(   14) = (  -0.0951083   0.3843757  -0.0726746), wk =   0.0045079
        k(   15) = (  -0.0951083   0.2745540  -0.0363373), wk =   0.0045079
        k(   16) = (  -0.0951083   0.1647324  -0.0000000), wk =   0.0045079
        k(   17) = (  -0.1902166  -0.1098216   0.1453492), wk =   0.0045079
        k(   18) = (  -0.1902166  -0.2196432   0.1816865), wk =   0.0045079
        k(   19) = (  -0.1902166  -0.3294649   0.2180238), wk =   0.0045079
        k(   20) = (  -0.1902166  -0.4392865   0.2543611), wk =   0.0045079
        k(   21) = (  -0.1902166   0.6589297  -0.1090119), wk =   0.0045079
        k(   22) = (  -0.1902166   0.5491081  -0.0726746), wk =   0.0045079
        k(   23) = (  -0.1902166   0.4392865  -0.0363373), wk =   0.0045079
        k(   24) = (  -0.1902166   0.3294649   0.0000000), wk =   0.0045079
        k(   25) = (  -0.2853249  -0.1647324   0.2180238), wk =   0.0045079
        k(   26) = (  -0.2853249  -0.2745540   0.2543611), wk =   0.0045079
        k(   27) = (  -0.2853249  -0.3843757   0.2906984), wk =   0.0045079
        k(   28) = (  -0.2853249   0.7138405  -0.0726746), wk =   0.0045079
        k(   29) = (  -0.2853249   0.6040189  -0.0363373), wk =   0.0045079
        k(   30) = (  -0.2853249   0.4941973   0.0000000), wk =   0.0045079
        k(   31) = (  -0.3804332  -0.2196432   0.2906984), wk =   0.0045079
        k(   32) = (  -0.3804332  -0.3294649   0.3270357), wk =   0.0045079
        k(   33) = (  -0.3804332   0.7687513  -0.0363373), wk =   0.0045079
        k(   34) = (  -0.3804332   0.6589297  -0.0000000), wk =   0.0045079
        k(   35) = (  -0.4755416  -0.2745540   0.3633730), wk =   0.0045079
        k(   36) = (  -0.4755416   0.8236621  -0.0000000), wk =   0.0045079
        k(   37) = (  -0.0000000  -0.0000000   0.1090119), wk =   0.0015026
        k(   38) = (  -0.0000000  -0.1098216   0.1453492), wk =   0.0045079
        k(   39) = (  -0.0000000  -0.2196432   0.1816865), wk =   0.0045079
        k(   40) = (  -0.0000000  -0.3294649   0.2180238), wk =   0.0045079
        k(   41) = (  -0.0000000  -0.4392865   0.2543611), wk =   0.0045079
        k(   42) = (  -0.0000000   0.6589297  -0.1090119), wk =   0.0045079
        k(   43) = (  -0.0000000   0.5491081  -0.0726746), wk =   0.0045079
        k(   44) = (  -0.0000000   0.4392865  -0.0363373), wk =   0.0045079
        k(   45) = (  -0.0000000   0.3294649   0.0000000), wk =   0.0045079
        k(   46) = (  -0.0000000   0.2196432   0.0363373), wk =   0.0045079
        k(   47) = (  -0.0951083  -0.0549108   0.1816865), wk =   0.0045079
        k(   48) = (  -0.0951083  -0.1647324   0.2180238), wk =   0.0045079
        k(   49) = (  -0.0951083  -0.2745540   0.2543611), wk =   0.0045079
        k(   50) = (  -0.0951083  -0.3843757   0.2906984), wk =   0.0045079
        k(   51) = (  -0.0951083   0.7138405  -0.0726746), wk =   0.0045079
        k(   52) = (  -0.0951083   0.6040189  -0.0363373), wk =   0.0045079
        k(   53) = (  -0.0951083   0.4941973   0.0000000), wk =   0.0045079
        k(   54) = (  -0.0951083   0.3843757   0.0363373), wk =   0.0045079
        k(   55) = (  -0.0951083   0.2745540   0.0726746), wk =   0.0045079
        k(   56) = (  -0.1902166  -0.1098216   0.2543611), wk =   0.0045079
        k(   57) = (  -0.1902166  -0.2196432   0.2906984), wk =   0.0045079
        k(   58) = (  -0.1902166  -0.3294649   0.3270357), wk =   0.0045079
        k(   59) = (  -0.1902166   0.7687513  -0.0363373), wk =   0.0045079
        k(   60) = (  -0.1902166   0.6589297  -0.0000000), wk =   0.0045079
        k(   61) = (  -0.1902166   0.5491081   0.0363373), wk =   0.0045079
        k(   62) = (  -0.1902166   0.4392865   0.0726746), wk =   0.0045079
        k(   63) = (  -0.1902166   0.3294649   0.1090119), wk =   0.0045079
        k(   64) = (  -0.2853249  -0.1647324   0.3270357), wk =   0.0045079
        k(   65) = (  -0.2853249  -0.2745540   0.3633730), wk =   0.0045079
        k(   66) = (  -0.2853249   0.8236621  -0.0000000), wk =   0.0045079
        k(   67) = (  -0.2853249   0.7138405   0.0363373), wk =   0.0045079
        k(   68) = (  -0.2853249   0.6040189   0.0726746), wk =   0.0045079
        k(   69) = (  -0.2853249   0.4941973   0.1090119), wk =   0.0045079
        k(   70) = (  -0.2853249   0.3843757   0.1453492), wk =   0.0045079
        k(   71) = (  -0.3804332  -0.2196432   0.3997103), wk =   0.0045079
        k(   72) = (  -0.3804332   0.8785730   0.0363373), wk =   0.0045079
        k(   73) = (  -0.3804332   0.7687513   0.0726746), wk =   0.0045079
        k(   74) = (  -0.3804332   0.6589297   0.1090119), wk =   0.0045079
        k(   75) = (  -0.3804332   0.5491081   0.1453492), wk =   0.0045079
        k(   76) = (  -0.3804332   0.4392865   0.1816865), wk =   0.0045079
        k(   77) = (   0.5706499   0.3294649  -0.3270357), wk =   0.0045079
        k(   78) = (   0.5706499   0.2196432  -0.2906984), wk =   0.0045079
        k(   79) = (   0.5706499   0.1098216  -0.2543611), wk =   0.0045079
        k(   80) = (   0.5706499  -0.0000000  -0.2180238), wk =   0.0045079
        k(   81) = (   0.4755416   0.2745540  -0.2543611), wk =   0.0045079
        k(   82) = (   0.4755416   0.1647324  -0.2180238), wk =   0.0045079
        k(   83) = (   0.4755416   0.0549108  -0.1816865), wk =   0.0045079
        k(   84) = (   0.3804332   0.2196432  -0.1816865), wk =   0.0045079
        k(   85) = (   0.3804332   0.1098216  -0.1453492), wk =   0.0045079
        k(   86) = (   0.2853249   0.1647324  -0.1090119), wk =   0.0045079
        k(   87) = (  -0.0000000  -0.0000000   0.2180238), wk =   0.0015026
        k(   88) = (  -0.0000000  -0.1098216   0.2543611), wk =   0.0045079
        k(   89) = (  -0.0000000  -0.2196432   0.2906984), wk =   0.0045079
        k(   90) = (  -0.0000000  -0.3294649   0.3270357), wk =   0.0045079
        k(   91) = (  -0.0000000   0.7687513  -0.0363373), wk =   0.0045079
        k(   92) = (  -0.0000000   0.6589297  -0.0000000), wk =   0.0045079
        k(   93) = (  -0.0000000   0.5491081   0.0363373), wk =   0.0045079
        k(   94) = (  -0.0000000   0.4392865   0.0726746), wk =   0.0045079
        k(   95) = (  -0.0951083  -0.0549108   0.2906984), wk =   0.0045079
        k(   96) = (  -0.0951083  -0.1647324   0.3270357), wk =   0.0045079
        k(   97) = (  -0.0951083  -0.2745540   0.3633730), wk =   0.0045079
        k(   98) = (  -0.0951083   0.8236621  -0.0000000), wk =   0.0045079
        k(   99) = (  -0.0951083   0.7138405   0.0363373), wk =   0.0045079
        k(  100) = (  -0.0951083   0.6040189   0.0726746), wk =   0.0045079
        k(  101) = (  -0.0951083   0.4941973   0.1090119), wk =   0.0045079
        k(  102) = (  -0.1902166  -0.1098216   0.3633730), wk =   0.0045079
        k(  103) = (  -0.1902166  -0.2196432   0.3997103), wk =   0.0045079
        k(  104) = (  -0.1902166   0.8785730   0.0363373), wk =   0.0045079
        k(  105) = (  -0.1902166   0.7687513   0.0726746), wk =   0.0045079
        k(  106) = (  -0.1902166   0.6589297   0.1090119), wk =   0.0045079
        k(  107) = (  -0.1902166   0.5491081   0.1453492), wk =   0.0045079
        k(  108) = (  -0.2853249  -0.1647324   0.4360476), wk =   0.0045079
        k(  109) = (  -0.2853249   0.9334838   0.0726746), wk =   0.0045079
        k(  110) = (  -0.2853249   0.8236621   0.1090119), wk =   0.0045079
        k(  111) = (  -0.2853249   0.7138405   0.1453492), wk =   0.0045079
        k(  112) = (  -0.2853249   0.6040189   0.1816865), wk =   0.0045079
        k(  113) = (   0.6657582   0.3843757  -0.2906984), wk =   0.0045079
        k(  114) = (   0.6657582   0.2745540  -0.2543611), wk =   0.0045079
        k(  115) = (   0.6657582   0.1647324  -0.2180238), wk =   0.0045079
        k(  116) = (   0.5706499   0.3294649  -0.2180238), wk =   0.0045079
        k(  117) = (   0.5706499   0.2196432  -0.1816865), wk =   0.0045079
        k(  118) = (   0.4755416   0.2745540  -0.1453492), wk =   0.0045079
        k(  119) = (  -0.0000000   0.0000000   0.3270357), wk =   0.0015026
        k(  120) = (  -0.0000000  -0.1098216   0.3633730), wk =   0.0045079
        k(  121) = (  -0.0000000  -0.2196432   0.3997103), wk =   0.0045079
        k(  122) = (  -0.0000000   0.8785730   0.0363373), wk =   0.0045079
        k(  123) = (  -0.0000000   0.7687513   0.0726746), wk =   0.0045079
        k(  124) = (  -0.0000000   0.6589297   0.1090119), wk =   0.0045079
        k(  125) = (  -0.0951083  -0.0549108   0.3997103), wk =   0.0045079
        k(  126) = (  -0.0951083  -0.1647324   0.4360476), wk =   0.0045079
        k(  127) = (  -0.0951083   0.9334838   0.0726746), wk =   0.0045079
        k(  128) = (  -0.0951083   0.8236621   0.1090119), wk =   0.0045079
        k(  129) = (  -0.0951083   0.7138405   0.1453492), wk =   0.0045079
        k(  130) = (  -0.1902166  -0.1098216   0.4723849), wk =   0.0045079
        k(  131) = (  -0.1902166   0.9883946   0.1090119), wk =   0.0045079
        k(  132) = (  -0.1902166   0.8785730   0.1453492), wk =   0.0045079
        k(  133) = (  -0.1902166   0.7687513   0.1816865), wk =   0.0045079
        k(  134) = (   0.7608665   0.4392865  -0.2543611), wk =   0.0045079
        k(  135) = (   0.7608665   0.3294649  -0.2180238), wk =   0.0045079
        k(  136) = (   0.6657582   0.3843757  -0.1816865), wk =   0.0045079
        k(  137) = (  -0.0000000  -0.0000000   0.4360476), wk =   0.0015026
        k(  138) = (  -0.0000000  -0.1098216   0.4723849), wk =   0.0045079
        k(  139) = (  -0.0000000   0.9883946   0.1090119), wk =   0.0045079
        k(  140) = (  -0.0000000   0.8785730   0.1453492), wk =   0.0045079
        k(  141) = (  -0.0951083  -0.0549108   0.5087222), wk =   0.0045079
        k(  142) = (  -0.0951083   1.0433054   0.1453492), wk =   0.0045079
        k(  143) = (  -0.0951083   0.9334838   0.1816865), wk =   0.0045079
        k(  144) = (   0.8559748   0.4941973  -0.2180238), wk =   0.0045079
        k(  145) = (   0.0000000   0.0000000   0.5450595), wk =   0.0015026
        k(  146) = (   0.0000000   1.0982162   0.1816865), wk =   0.0045079
        k(  147) = (  -0.0951083   0.1647324  -0.1090119), wk =   0.0045079
        k(  148) = (  -0.0951083   0.2745540  -0.1453492), wk =   0.0045079
        k(  149) = (  -0.0951083   0.3843757  -0.1816865), wk =   0.0045079
        k(  150) = (  -0.0951083   0.4941973  -0.2180238), wk =   0.0045079
        k(  151) = (  -0.0951083  -0.6040189   0.1453492), wk =   0.0045079
        k(  152) = (  -0.0951083  -0.4941973   0.1090119), wk =   0.0045079
        k(  153) = (  -0.0951083  -0.3843757   0.0726746), wk =   0.0045079
        k(  154) = (  -0.0951083  -0.2745540   0.0363373), wk =   0.0045079
        k(  155) = (  -0.1902166   0.2196432  -0.1816865), wk =   0.0045079
        k(  156) = (  -0.1902166   0.3294649  -0.2180238), wk =   0.0045079
        k(  157) = (  -0.1902166   0.4392865  -0.2543611), wk =   0.0045079
        k(  158) = (  -0.1902166  -0.6589297   0.1090119), wk =   0.0045079
        k(  159) = (  -0.1902166  -0.5491081   0.0726746), wk =   0.0045079
        k(  160) = (  -0.1902166  -0.4392865   0.0363373), wk =   0.0045079
        k(  161) = (  -0.2853249   0.2745540  -0.2543611), wk =   0.0045079
        k(  162) = (  -0.2853249   0.3843757  -0.2906984), wk =   0.0045079
        k(  163) = (  -0.2853249  -0.7138405   0.0726746), wk =   0.0045079
        k(  164) = (  -0.2853249  -0.6040189   0.0363373), wk =   0.0045079
        k(  165) = (  -0.3804332   0.3294649  -0.3270357), wk =   0.0045079
        k(  166) = (  -0.3804332  -0.7687513   0.0363373), wk =   0.0045079
        k(  167) = (  -0.0951083   0.1647324  -0.2180238), wk =   0.0045079
        k(  168) = (  -0.0951083   0.2745540  -0.2543611), wk =   0.0045079
        k(  169) = (  -0.0951083   0.3843757  -0.2906984), wk =   0.0045079
        k(  170) = (  -0.0951083  -0.7138405   0.0726746), wk =   0.0045079
        k(  171) = (  -0.0951083  -0.6040189   0.0363373), wk =   0.0045079
        k(  172) = (  -0.0951083  -0.4941973  -0.0000000), wk =   0.0045079
        k(  173) = (  -0.0951083  -0.3843757  -0.0363373), wk =   0.0045079
        k(  174) = (  -0.0951083  -0.2745540  -0.0726746), wk =   0.0045079
        k(  175) = (  -0.1902166   0.2196432  -0.2906984), wk =   0.0045079
        k(  176) = (  -0.1902166   0.3294649  -0.3270357), wk =   0.0045079
        k(  177) = (  -0.1902166  -0.7687513   0.0363373), wk =   0.0045079
        k(  178) = (  -0.1902166  -0.6589297  -0.0000000), wk =   0.0045079
        k(  179) = (  -0.1902166  -0.5491081  -0.0363373), wk =   0.0045079
        k(  180) = (  -0.1902166  -0.4392865  -0.0726746), wk =   0.0045079
        k(  181) = (  -0.1902166  -0.3294649  -0.1090119), wk =   0.0045079
        k(  182) = (  -0.2853249   0.2745540  -0.3633730), wk =   0.0045079
        k(  183) = (  -0.2853249  -0.8236621   0.0000000), wk =   0.0045079
        k(  184) = (  -0.2853249  -0.7138405  -0.0363373), wk =   0.0045079
        k(  185) = (  -0.2853249  -0.6040189  -0.0726746), wk =   0.0045079
        k(  186) = (  -0.2853249  -0.4941973  -0.1090119), wk =   0.0045079
        k(  187) = (  -0.2853249  -0.3843757  -0.1453492), wk =   0.0045079
        k(  188) = (  -0.3804332  -0.8785730  -0.0363373), wk =   0.0045079
        k(  189) = (  -0.3804332  -0.7687513  -0.0726746), wk =   0.0045079
        k(  190) = (  -0.3804332  -0.6589297  -0.1090119), wk =   0.0045079
        k(  191) = (  -0.3804332  -0.5491081  -0.1453492), wk =   0.0045079
        k(  192) = (  -0.3804332  -0.4392865  -0.1816865), wk =   0.0045079
        k(  193) = (   0.5706499  -0.2196432   0.2906984), wk =   0.0045079
        k(  194) = (   0.5706499  -0.1098216   0.2543611), wk =   0.0045079
        k(  195) = (   0.5706499   0.0000000   0.2180238), wk =   0.0045079
        k(  196) = (   0.4755416  -0.1647324   0.2180238), wk =   0.0045079
        k(  197) = (   0.4755416  -0.0549108   0.1816865), wk =   0.0045079
        k(  198) = (   0.3804332  -0.1098216   0.1453492), wk =   0.0045079
        k(  199) = (  -0.0951083   0.1647324  -0.3270357), wk =   0.0045079
        k(  200) = (  -0.0951083   0.2745540  -0.3633730), wk =   0.0045079
        k(  201) = (  -0.0951083  -0.8236621  -0.0000000), wk =   0.0045079
        k(  202) = (  -0.0951083  -0.7138405  -0.0363373), wk =   0.0045079
        k(  203) = (  -0.0951083  -0.6040189  -0.0726746), wk =   0.0045079
        k(  204) = (  -0.0951083  -0.4941973  -0.1090119), wk =   0.0045079
        k(  205) = (  -0.1902166   0.2196432  -0.3997103), wk =   0.0045079
        k(  206) = (  -0.1902166  -0.8785730  -0.0363373), wk =   0.0045079
        k(  207) = (  -0.1902166  -0.7687513  -0.0726746), wk =   0.0045079
        k(  208) = (  -0.1902166  -0.6589297  -0.1090119), wk =   0.0045079
        k(  209) = (  -0.1902166  -0.5491081  -0.1453492), wk =   0.0045079
        k(  210) = (  -0.2853249  -0.9334838  -0.0726746), wk =   0.0045079
        k(  211) = (  -0.2853249  -0.8236621  -0.1090119), wk =   0.0045079
        k(  212) = (  -0.2853249  -0.7138405  -0.1453492), wk =   0.0045079
        k(  213) = (  -0.2853249  -0.6040189  -0.1816865), wk =   0.0045079
        k(  214) = (   0.6657582  -0.2745540   0.2543611), wk =   0.0045079
        k(  215) = (   0.6657582  -0.1647324   0.2180238), wk =   0.0045079
        k(  216) = (   0.5706499  -0.2196432   0.1816865), wk =   0.0045079
        k(  217) = (  -0.0951083   0.1647324  -0.4360476), wk =   0.0045079
        k(  218) = (  -0.0951083  -0.9334838  -0.0726746), wk =   0.0045079
        k(  219) = (  -0.0951083  -0.8236621  -0.1090119), wk =   0.0045079
        k(  220) = (  -0.0951083  -0.7138405  -0.1453492), wk =   0.0045079
        k(  221) = (  -0.1902166  -0.9883946  -0.1090119), wk =   0.0045079
        k(  222) = (  -0.1902166  -0.8785730  -0.1453492), wk =   0.0045079
        k(  223) = (  -0.1902166  -0.7687513  -0.1816865), wk =   0.0045079
        k(  224) = (   0.7608665  -0.3294649   0.2180238), wk =   0.0045079
        k(  225) = (  -0.0951083  -1.0433054  -0.1453492), wk =   0.0045079
        k(  226) = (  -0.0951083  -0.9334838  -0.1816865), wk =   0.0045079

                       cryst. coord.
        k(    1) = (   0.0000000   0.0000000   0.0000000), wk =   0.0007513
        k(    2) = (   0.0000000   0.0000000   0.0909091), wk =   0.0045079
        k(    3) = (   0.0000000   0.0000000   0.1818182), wk =   0.0045079
        k(    4) = (   0.0000000   0.0000000   0.2727273), wk =   0.0045079
        k(    5) = (   0.0000000   0.0000000   0.3636364), wk =   0.0045079
        k(    6) = (   0.0000000   0.0000000   0.4545455), wk =   0.0045079
        k(    7) = (  -0.0000000   0.0909091   0.0909091), wk =   0.0045079
        k(    8) = (  -0.0000000   0.0909091   0.1818182), wk =   0.0045079
        k(    9) = (   0.0000000   0.0909091   0.2727273), wk =   0.0045079
        k(   10) = (  -0.0000000   0.0909091   0.3636364), wk =   0.0045079
        k(   11) = (  -0.0000000   0.0909091   0.4545455), wk =   0.0045079
        k(   12) = (  -0.0000000   0.0909091  -0.4545455), wk =   0.0045079
        k(   13) = (  -0.0000000   0.0909091  -0.3636364), wk =   0.0045079
        k(   14) = (  -0.0000000   0.0909091  -0.2727273), wk =   0.0045079
        k(   15) = (  -0.0000000   0.0909091  -0.1818182), wk =   0.0045079
        k(   16) = (  -0.0000000   0.0909091  -0.0909091), wk =   0.0045079
        k(   17) = (  -0.0000000   0.1818182   0.1818182), wk =   0.0045079
        k(   18) = (   0.0000000   0.1818182   0.2727273), wk =   0.0045079
        k(   19) = (  -0.0000000   0.1818182   0.3636364), wk =   0.0045079
        k(   20) = (   0.0000000   0.1818182   0.4545455), wk =   0.0045079
        k(   21) = (  -0.0000000   0.1818182  -0.4545455), wk =   0.0045079
        k(   22) = (  -0.0000000   0.1818182  -0.3636364), wk =   0.0045079
        k(   23) = (  -0.0000000   0.1818182  -0.2727273), wk =   0.0045079
        k(   24) = (  -0.0000000   0.1818182  -0.1818182), wk =   0.0045079
        k(   25) = (   0.0000000   0.2727273   0.2727273), wk =   0.0045079
        k(   26) = (   0.0000000   0.2727273   0.3636364), wk =   0.0045079
        k(   27) = (   0.0000000   0.2727273   0.4545455), wk =   0.0045079
        k(   28) = (  -0.0000000   0.2727273  -0.4545455), wk =   0.0045079
        k(   29) = (  -0.0000000   0.2727273  -0.3636364), wk =   0.0045079
        k(   30) = (   0.0000000   0.2727273  -0.2727273), wk =   0.0045079
        k(   31) = (  -0.0000000   0.3636364   0.3636364), wk =   0.0045079
        k(   32) = (  -0.0000000   0.3636364   0.4545455), wk =   0.0045079
        k(   33) = (  -0.0000000   0.3636364  -0.4545455), wk =   0.0045079
        k(   34) = (  -0.0000000   0.3636364  -0.3636364), wk =   0.0045079
        k(   35) = (   0.0000000   0.4545455   0.4545455), wk =   0.0045079
        k(   36) = (  -0.0000000   0.4545455  -0.4545455), wk =   0.0045079
        k(   37) = (   0.0909091   0.0909091   0.0909091), wk =   0.0015026
        k(   38) = (   0.0909091   0.0909091   0.1818182), wk =   0.0045079
        k(   39) = (   0.0909091   0.0909091   0.2727273), wk =   0.0045079
        k(   40) = (   0.0909091   0.0909091   0.3636364), wk =   0.0045079
        k(   41) = (   0.0909091   0.0909091   0.4545455), wk =   0.0045079
        k(   42) = (   0.0909091   0.0909091  -0.4545455), wk =   0.0045079
        k(   43) = (   0.0909091   0.0909091  -0.3636364), wk =   0.0045079
        k(   44) = (   0.0909091   0.0909091  -0.2727273), wk =   0.0045079
        k(   45) = (   0.0909091   0.0909091  -0.1818182), wk =   0.0045079
        k(   46) = (   0.0909091   0.0909091  -0.0909091), wk =   0.0045079
        k(   47) = (   0.0909091   0.1818182   0.1818182), wk =   0.0045079
        k(   48) = (   0.0909091   0.1818182   0.2727273), wk =   0.0045079
        k(   49) = (   0.0909091   0.1818182   0.3636364), wk =   0.0045079
        k(   50) = (   0.0909091   0.1818182   0.4545455), wk =   0.0045079
        k(   51) = (   0.0909091   0.1818182  -0.4545455), wk =   0.0045079
        k(   52) = (   0.0909091   0.1818182  -0.3636364), wk =   0.0045079
        k(   53) = (   0.0909091   0.1818182  -0.2727273), wk =   0.0045079
        k(   54) = (   0.0909091   0.1818182  -0.1818182), wk =   0.0045079
        k(   55) = (   0.0909091   0.1818182  -0.0909091), wk =   0.0045079
        k(   56) = (   0.0909091   0.2727273   0.2727273), wk =   0.0045079
        k(   57) = (   0.0909091   0.2727273   0.3636364), wk =   0.0045079
        k(   58) = (   0.0909091   0.2727273   0.4545455), wk =   0.0045079
        k(   59) = (   0.0909091   0.2727273  -0.4545455), wk =   0.0045079
        k(   60) = (   0.0909091   0.2727273  -0.3636364), wk =   0.0045079
        k(   61) = (   0.0909091   0.2727273  -0.2727273), wk =   0.0045079
        k(   62) = (   0.0909091   0.2727273  -0.1818182), wk =   0.0045079
        k(   63) = (   0.0909091   0.2727273  -0.0909091), wk =   0.0045079
        k(   64) = (   0.0909091   0.3636364   0.3636364), wk =   0.0045079
        k(   65) = (   0.0909091   0.3636364   0.4545455), wk =   0.0045079
        k(   66) = (   0.0909091   0.3636364  -0.4545455), wk =   0.0045079
        k(   67) = (   0.0909091   0.3636364  -0.3636364), wk =   0.0045079
        k(   68) = (   0.0909091   0.3636364  -0.2727273), wk =   0.0045079
        k(   69) = (   0.0909091   0.3636364  -0.1818182), wk =   0.0045079
        k(   70) = (   0.0909091   0.3636364  -0.0909091), wk =   0.0045079
        k(   71) = (   0.0909091   0.4545455   0.4545455), wk =   0.0045079
        k(   72) = (   0.0909091   0.4545455  -0.4545455), wk =   0.0045079
        k(   73) = (   0.0909091   0.4545455  -0.3636364), wk =   0.0045079
        k(   74) = (   0.0909091   0.4545455  -0.2727273), wk =   0.0045079
        k(   75) = (   0.0909091   0.4545455  -0.1818182), wk =   0.0045079
        k(   76) = (   0.0909091   0.4545455  -0.0909091), wk =   0.0045079
        k(   77) = (   0.0909091  -0.4545455  -0.4545455), wk =   0.0045079
        k(   78) = (   0.0909091  -0.4545455  -0.3636364), wk =   0.0045079
        k(   79) = (   0.0909091  -0.4545455  -0.2727273), wk =   0.0045079
        k(   80) = (   0.0909091  -0.4545455  -0.1818182), wk =   0.0045079
        k(   81) = (   0.0909091  -0.3636364  -0.3636364), wk =   0.0045079
        k(   82) = (   0.0909091  -0.3636364  -0.2727273), wk =   0.0045079
        k(   83) = (   0.0909091  -0.3636364  -0.1818182), wk =   0.0045079
        k(   84) = (   0.0909091  -0.2727273  -0.2727273), wk =   0.0045079
        k(   85) = (   0.0909091  -0.2727273  -0.1818182), wk =   0.0045079
        k(   86) = (   0.0909091  -0.1818182  -0.1818182), wk =   0.0045079
        k(   87) = (   0.1818182   0.1818182   0.1818182), wk =   0.0015026
        k(   88) = (   0.1818182   0.1818182   0.2727273), wk =   0.0045079
        k(   89) = (   0.1818182   0.1818182   0.3636364), wk =   0.0045079
        k(   90) = (   0.1818182   0.1818182   0.4545455), wk =   0.0045079
        k(   91) = (   0.1818182   0.1818182  -0.4545455), wk =   0.0045079
        k(   92) = (   0.1818182   0.1818182  -0.3636364), wk =   0.0045079
        k(   93) = (   0.1818182   0.1818182  -0.2727273), wk =   0.0045079
        k(   94) = (   0.1818182   0.1818182  -0.1818182), wk =   0.0045079
        k(   95) = (   0.1818182   0.2727273   0.2727273), wk =   0.0045079
        k(   96) = (   0.1818182   0.2727273   0.3636364), wk =   0.0045079
        k(   97) = (   0.1818182   0.2727273   0.4545455), wk =   0.0045079
        k(   98) = (   0.1818182   0.2727273  -0.4545455), wk =   0.0045079
        k(   99) = (   0.1818182   0.2727273  -0.3636364), wk =   0.0045079
        k(  100) = (   0.1818182   0.2727273  -0.2727273), wk =   0.0045079
        k(  101) = (   0.1818182   0.2727273  -0.1818182), wk =   0.0045079
        k(  102) = (   0.1818182   0.3636364   0.3636364), wk =   0.0045079
        k(  103) = (   0.1818182   0.3636364   0.4545455), wk =   0.0045079
        k(  104) = (   0.1818182   0.3636364  -0.4545455), wk =   0.0045079
        k(  105) = (   0.1818182   0.3636364  -0.3636364), wk =   0.0045079
        k(  106) = (   0.1818182   0.3636364  -0.2727273), wk =   0.0045079
        k(  107) = (   0.1818182   0.3636364  -0.1818182), wk =   0.0045079
        k(  108) = (   0.1818182   0.4545455   0.4545455), wk =   0.0045079
        k(  109) = (   0.1818182   0.4545455  -0.4545455), wk =   0.0045079
        k(  110) = (   0.1818182   0.4545455  -0.3636364), wk =   0.0045079
        k(  111) = (   0.1818182   0.4545455  -0.2727273), wk =   0.0045079
        k(  112) = (   0.1818182   0.4545455  -0.1818182), wk =   0.0045079
        k(  113) = (   0.1818182  -0.4545455  -0.4545455), wk =   0.0045079
        k(  114) = (   0.1818182  -0.4545455  -0.3636364), wk =   0.0045079
        k(  115) = (   0.1818182  -0.4545455  -0.2727273), wk =   0.0045079
        k(  116) = (   0.1818182  -0.3636364  -0.3636364), wk =   0.0045079
        k(  117) = (   0.1818182  -0.3636364  -0.2727273), wk =   0.0045079
        k(  118) = (   0.1818182  -0.2727273  -0.2727273), wk =   0.0045079
        k(  119) = (   0.2727273   0.2727273   0.2727273), wk =   0.0015026
        k(  120) = (   0.2727273   0.2727273   0.3636364), wk =   0.0045079
        k(  121) = (   0.2727273   0.2727273   0.4545455), wk =   0.0045079
        k(  122) = (   0.2727273   0.2727273  -0.4545455), wk =   0.0045079
        k(  123) = (   0.2727273   0.2727273  -0.3636364), wk =   0.0045079
        k(  124) = (   0.2727273   0.2727273  -0.2727273), wk =   0.0045079
        k(  125) = (   0.2727273   0.3636364   0.3636364), wk =   0.0045079
        k(  126) = (   0.2727273   0.3636364   0.4545455), wk =   0.0045079
        k(  127) = (   0.2727273   0.3636364  -0.4545455), wk =   0.0045079
        k(  128) = (   0.2727273   0.3636364  -0.3636364), wk =   0.0045079
        k(  129) = (   0.2727273   0.3636364  -0.2727273), wk =   0.0045079
        k(  130) = (   0.2727273   0.4545455   0.4545455), wk =   0.0045079
        k(  131) = (   0.2727273   0.4545455  -0.4545455), wk =   0.0045079
        k(  132) = (   0.2727273   0.4545455  -0.3636364), wk =   0.0045079
        k(  133) = (   0.2727273   0.4545455  -0.2727273), wk =   0.0045079
        k(  134) = (   0.2727273  -0.4545455  -0.4545455), wk =   0.0045079
        k(  135) = (   0.2727273  -0.4545455  -0.3636364), wk =   0.0045079
        k(  136) = (   0.2727273  -0.3636364  -0.3636364), wk =   0.0045079
        k(  137) = (   0.3636364   0.3636364   0.3636364), wk =   0.0015026
        k(  138) = (   0.3636364   0.3636364   0.4545455), wk =   0.0045079
        k(  139) = (   0.3636364   0.3636364  -0.4545455), wk =   0.0045079
        k(  140) = (   0.3636364   0.3636364  -0.3636364), wk =   0.0045079
        k(  141) = (   0.3636364   0.4545455   0.4545455), wk =   0.0045079
        k(  142) = (   0.3636364   0.4545455  -0.4545455), wk =   0.0045079
        k(  143) = (   0.3636364   0.4545455  -0.3636364), wk =   0.0045079
        k(  144) = (   0.3636364  -0.4545455  -0.4545455), wk =   0.0045079
        k(  145) = (   0.4545455   0.4545455   0.4545455), wk =   0.0015026
        k(  146) = (   0.4545455   0.4545455  -0.4545455), wk =   0.0045079
        k(  147) = (  -0.0909091  -0.0000000  -0.1818182), wk =   0.0045079
        k(  148) = (  -0.0909091  -0.0000000  -0.2727273), wk =   0.0045079
        k(  149) = (  -0.0909091  -0.0000000  -0.3636364), wk =   0.0045079
        k(  150) = (  -0.0909091   0.0000000  -0.4545455), wk =   0.0045079
        k(  151) = (  -0.0909091   0.0000000   0.4545455), wk =   0.0045079
        k(  152) = (  -0.0909091   0.0000000   0.3636364), wk =   0.0045079
        k(  153) = (  -0.0909091   0.0000000   0.2727273), wk =   0.0045079
        k(  154) = (  -0.0909091   0.0000000   0.1818182), wk =   0.0045079
        k(  155) = (  -0.1818182  -0.0000000  -0.2727273), wk =   0.0045079
        k(  156) = (  -0.1818182  -0.0000000  -0.3636364), wk =   0.0045079
        k(  157) = (  -0.1818182  -0.0000000  -0.4545455), wk =   0.0045079
        k(  158) = (  -0.1818182   0.0000000   0.4545455), wk =   0.0045079
        k(  159) = (  -0.1818182   0.0000000   0.3636364), wk =   0.0045079
        k(  160) = (  -0.1818182   0.0000000   0.2727273), wk =   0.0045079
        k(  161) = (  -0.2727273  -0.0000000  -0.3636364), wk =   0.0045079
        k(  162) = (  -0.2727273  -0.0000000  -0.4545455), wk =   0.0045079
        k(  163) = (  -0.2727273   0.0000000   0.4545455), wk =   0.0045079
        k(  164) = (  -0.2727273   0.0000000   0.3636364), wk =   0.0045079
        k(  165) = (  -0.3636364   0.0000000  -0.4545455), wk =   0.0045079
        k(  166) = (  -0.3636364   0.0000000   0.4545455), wk =   0.0045079
        k(  167) = (  -0.1818182  -0.0909091  -0.2727273), wk =   0.0045079
        k(  168) = (  -0.1818182  -0.0909091  -0.3636364), wk =   0.0045079
        k(  169) = (  -0.1818182  -0.0909091  -0.4545455), wk =   0.0045079
        k(  170) = (  -0.1818182  -0.0909091   0.4545455), wk =   0.0045079
        k(  171) = (  -0.1818182  -0.0909091   0.3636364), wk =   0.0045079
        k(  172) = (  -0.1818182  -0.0909091   0.2727273), wk =   0.0045079
        k(  173) = (  -0.1818182  -0.0909091   0.1818182), wk =   0.0045079
        k(  174) = (  -0.1818182  -0.0909091   0.0909091), wk =   0.0045079
        k(  175) = (  -0.2727273  -0.0909091  -0.3636364), wk =   0.0045079
        k(  176) = (  -0.2727273  -0.0909091  -0.4545455), wk =   0.0045079
        k(  177) = (  -0.2727273  -0.0909091   0.4545455), wk =   0.0045079
        k(  178) = (  -0.2727273  -0.0909091   0.3636364), wk =   0.0045079
        k(  179) = (  -0.2727273  -0.0909091   0.2727273), wk =   0.0045079
        k(  180) = (  -0.2727273  -0.0909091   0.1818182), wk =   0.0045079
        k(  181) = (  -0.2727273  -0.0909091   0.0909091), wk =   0.0045079
        k(  182) = (  -0.3636364  -0.0909091  -0.4545455), wk =   0.0045079
        k(  183) = (  -0.3636364  -0.0909091   0.4545455), wk =   0.0045079
        k(  184) = (  -0.3636364  -0.0909091   0.3636364), wk =   0.0045079
        k(  185) = (  -0.3636364  -0.0909091   0.2727273), wk =   0.0045079
        k(  186) = (  -0.3636364  -0.0909091   0.1818182), wk =   0.0045079
        k(  187) = (  -0.3636364  -0.0909091   0.0909091), wk =   0.0045079
        k(  188) = (  -0.4545455  -0.0909091   0.4545455), wk =   0.0045079
        k(  189) = (  -0.4545455  -0.0909091   0.3636364), wk =   0.0045079
        k(  190) = (  -0.4545455  -0.0909091   0.2727273), wk =   0.0045079
        k(  191) = (  -0.4545455  -0.0909091   0.1818182), wk =   0.0045079
        k(  192) = (  -0.4545455  -0.0909091   0.0909091), wk =   0.0045079
        k(  193) = (   0.4545455  -0.0909091   0.3636364), wk =   0.0045079
        k(  194) = (   0.4545455  -0.0909091   0.2727273), wk =   0.0045079
        k(  195) = (   0.4545455  -0.0909091   0.1818182), wk =   0.0045079
        k(  196) = (   0.3636364  -0.0909091   0.2727273), wk =   0.0045079
        k(  197) = (   0.3636364  -0.0909091   0.1818182), wk =   0.0045079
        k(  198) = (   0.2727273  -0.0909091   0.1818182), wk =   0.0045079
        k(  199) = (  -0.2727273  -0.1818182  -0.3636364), wk =   0.0045079
        k(  200) = (  -0.2727273  -0.1818182  -0.4545455), wk =   0.0045079
        k(  201) = (  -0.2727273  -0.1818182   0.4545455), wk =   0.0045079
        k(  202) = (  -0.2727273  -0.1818182   0.3636364), wk =   0.0045079
        k(  203) = (  -0.2727273  -0.1818182   0.2727273), wk =   0.0045079
        k(  204) = (  -0.2727273  -0.1818182   0.1818182), wk =   0.0045079
        k(  205) = (  -0.3636364  -0.1818182  -0.4545455), wk =   0.0045079
        k(  206) = (  -0.3636364  -0.1818182   0.4545455), wk =   0.0045079
        k(  207) = (  -0.3636364  -0.1818182   0.3636364), wk =   0.0045079
        k(  208) = (  -0.3636364  -0.1818182   0.2727273), wk =   0.0045079
        k(  209) = (  -0.3636364  -0.1818182   0.1818182), wk =   0.0045079
        k(  210) = (  -0.4545455  -0.1818182   0.4545455), wk =   0.0045079
        k(  211) = (  -0.4545455  -0.1818182   0.3636364), wk =   0.0045079
        k(  212) = (  -0.4545455  -0.1818182   0.2727273), wk =   0.0045079
        k(  213) = (  -0.4545455  -0.1818182   0.1818182), wk =   0.0045079
        k(  214) = (   0.4545455  -0.1818182   0.3636364), wk =   0.0045079
        k(  215) = (   0.4545455  -0.1818182   0.2727273), wk =   0.0045079
        k(  216) = (   0.3636364  -0.1818182   0.2727273), wk =   0.0045079
        k(  217) = (  -0.3636364  -0.2727273  -0.4545455), wk =   0.0045079
        k(  218) = (  -0.3636364  -0.2727273   0.4545455), wk =   0.0045079
        k(  219) = (  -0.3636364  -0.2727273   0.3636364), wk =   0.0045079
        k(  220) = (  -0.3636364  -0.2727273   0.2727273), wk =   0.0045079
        k(  221) = (  -0.4545455  -0.2727273   0.4545455), wk =   0.0045079
        k(  222) = (  -0.4545455  -0.2727273   0.3636364), wk =   0.0045079
        k(  223) = (  -0.4545455  -0.2727273   0.2727273), wk =   0.0045079
        k(  224) = (   0.4545455  -0.2727273   0.3636364), wk =   0.0045079
        k(  225) = (  -0.4545455  -0.3636364   0.4545455), wk =   0.0045079
        k(  226) = (  -0.4545455  -0.3636364   0.3636364), wk =   0.0045079

     Dense  grid:   390693 G-vectors     FFT dimensions: ( 108, 108, 108)

     Smooth grid:    75123 G-vectors     FFT dimensions: (  64,  64,  64)

     Dynamical RAM for                 wfc:       0.94 MB

     Dynamical RAM for     wfc (w. buffer):      54.63 MB

     Dynamical RAM for           str. fact:       2.55 MB

     Dynamical RAM for           local pot:       0.00 MB

     Dynamical RAM for          nlocal pot:       1.72 MB

     Dynamical RAM for                qrad:       7.91 MB

     Dynamical RAM for          rho,v,vnew:      13.65 MB

     Dynamical RAM for               rhoin:       4.55 MB

     Dynamical RAM for            rho*nmix:      27.25 MB

     Dynamical RAM for           G-vectors:       3.28 MB

     Dynamical RAM for          h,s,v(r/c):       0.39 MB

     Dynamical RAM for          <psi|beta>:       0.06 MB

     Dynamical RAM for                 psi:       1.88 MB

     Dynamical RAM for                hpsi:       1.88 MB

     Dynamical RAM for                spsi:       1.88 MB

     Dynamical RAM for      wfcinit/wfcrot:       2.11 MB

     Dynamical RAM for           addusdens:      22.03 MB

     Dynamical RAM for          addusforce:      22.40 MB

     Dynamical RAM for         addusstress:      22.30 MB

     Estimated static dynamical RAM per process >     100.24 MB

     Estimated max dynamical RAM per process >     149.90 MB

     Estimated total dynamical RAM >       6.89 GB

     Check: negative core charge=   -0.000005
     Generating pointlists ...
     new r_m :   0.1427 (alat units)  1.4209 (a.u.) for type    1
     new r_m :   0.1545 (alat units)  1.5385 (a.u.) for type    2
     new r_m :   0.1427 (alat units)  1.4209 (a.u.) for type    3

     Initial potential from superposition of free atoms

     starting charge      73.9996, renormalised to      76.0000
     Starting wfcs are   50 randomized atomic wfcs
     Checking if some PAW data can be deallocated... 
       PAW data deallocated on   49 nodes for type:  2

     total cpu time spent up to now is        5.9 secs

     per-process dynamical memory:   116.6 Mb

     Self-consistent Calculation

     iteration #  1     ecut=    90.00 Ry     beta= 0.40
     Davidson diagonalization with overlap

---- Real-time Memory Report at c_bands before calling an iterative solver
           147 MiB given to the printing process from OS
           116 MiB allocation reported by mallinfo(arena+hblkhd)
        484984 MiB available memory on the node where the printing process lives
------------------
     ethr =  1.00E-02,  avg # of iterations =  4.3

     negative rho (up, down):  0.000E+00 3.383E-05

     total cpu time spent up to now is       17.8 secs

     total energy              =    -958.91537817 Ry
     estimated scf accuracy    <       6.51672204 Ry

     total magnetization       =     5.93 Bohr mag/cell
     absolute magnetization    =     6.17 Bohr mag/cell

     iteration #  2     ecut=    90.00 Ry     beta= 0.40
     Davidson diagonalization with overlap

---- Real-time Memory Report at c_bands before calling an iterative solver
           193 MiB given to the printing process from OS
           141 MiB allocation reported by mallinfo(arena+hblkhd)
        482781 MiB available memory on the node where the printing process lives
------------------
     ethr =  8.57E-03,  avg # of iterations =  2.1

     negative rho (up, down):  0.000E+00 1.472E-05

     total cpu time spent up to now is       28.4 secs

     total energy              =    -957.97252607 Ry
     estimated scf accuracy    <      34.77935995 Ry

     total magnetization       =     1.74 Bohr mag/cell
     absolute magnetization    =     2.85 Bohr mag/cell

     iteration #  3     ecut=    90.00 Ry     beta= 0.40
     Davidson diagonalization with overlap

---- Real-time Memory Report at c_bands before calling an iterative solver
           195 MiB given to the printing process from OS
           142 MiB allocation reported by mallinfo(arena+hblkhd)
        482737 MiB available memory on the node where the printing process lives
------------------
     ethr =  8.57E-03,  avg # of iterations =  2.0

     negative rho (up, down):  0.000E+00 1.941E-05

     total cpu time spent up to now is       37.9 secs

     total energy              =    -960.84388999 Ry
     estimated scf accuracy    <       7.19730454 Ry

     total magnetization       =     4.21 Bohr mag/cell
     absolute magnetization    =     4.56 Bohr mag/cell

     iteration #  4     ecut=    90.00 Ry     beta= 0.40
     Davidson diagonalization with overlap

---- Real-time Memory Report at c_bands before calling an iterative solver
           196 MiB given to the printing process from OS
           143 MiB allocation reported by mallinfo(arena+hblkhd)
        482684 MiB available memory on the node where the printing process lives
------------------
     ethr =  8.57E-03,  avg # of iterations =  1.0

     negative rho (up, down):  0.000E+00 4.457E-05

     total cpu time spent up to now is       46.5 secs

     total energy              =    -961.10437707 Ry
     estimated scf accuracy    <       0.79921731 Ry

     total magnetization       =     5.92 Bohr mag/cell
     absolute magnetization    =     6.04 Bohr mag/cell

     iteration #  5     ecut=    90.00 Ry     beta= 0.40
     Davidson diagonalization with overlap

---- Real-time Memory Report at c_bands before calling an iterative solver
           197 MiB given to the printing process from OS
           143 MiB allocation reported by mallinfo(arena+hblkhd)
        482649 MiB available memory on the node where the printing process lives
------------------
     ethr =  1.05E-03,  avg # of iterations =  1.0

     negative rho (up, down):  0.000E+00 9.797E-05

     total cpu time spent up to now is       55.1 secs

     total energy              =    -961.15108851 Ry
     estimated scf accuracy    <       0.11641376 Ry

     total magnetization       =     5.89 Bohr mag/cell
     absolute magnetization    =     5.93 Bohr mag/cell

     iteration #  6     ecut=    90.00 Ry     beta= 0.40
     Davidson diagonalization with overlap

---- Real-time Memory Report at c_bands before calling an iterative solver
           198 MiB given to the printing process from OS
           144 MiB allocation reported by mallinfo(arena+hblkhd)
        482630 MiB available memory on the node where the printing process lives
------------------
     ethr =  1.53E-04,  avg # of iterations =  3.0

     negative rho (up, down):  0.000E+00 2.580E-04

     total cpu time spent up to now is       66.2 secs

     total energy              =    -961.18404126 Ry
     estimated scf accuracy    <       0.19996171 Ry

     total magnetization       =     5.73 Bohr mag/cell
     absolute magnetization    =     5.82 Bohr mag/cell

     iteration #  7     ecut=    90.00 Ry     beta= 0.40
     Davidson diagonalization with overlap

---- Real-time Memory Report at c_bands before calling an iterative solver
           199 MiB given to the printing process from OS
           145 MiB allocation reported by mallinfo(arena+hblkhd)
        482630 MiB available memory on the node where the printing process lives
------------------
     ethr =  1.53E-04,  avg # of iterations =  1.0

     negative rho (up, down):  0.000E+00 2.925E-04

     total cpu time spent up to now is       74.8 secs

     total energy              =    -961.18767817 Ry
     estimated scf accuracy    <       0.03591053 Ry

     total magnetization       =     5.90 Bohr mag/cell
     absolute magnetization    =     5.94 Bohr mag/cell

     iteration #  8     ecut=    90.00 Ry     beta= 0.40
     Davidson diagonalization with overlap

---- Real-time Memory Report at c_bands before calling an iterative solver
           200 MiB given to the printing process from OS
           145 MiB allocation reported by mallinfo(arena+hblkhd)
        482609 MiB available memory on the node where the printing process lives
------------------
     ethr =  4.73E-05,  avg # of iterations =  2.9

     negative rho (up, down):  0.000E+00 3.682E-04

     total cpu time spent up to now is       85.7 secs

     total energy              =    -961.18950245 Ry
     estimated scf accuracy    <       0.00554900 Ry

     total magnetization       =     5.77 Bohr mag/cell
     absolute magnetization    =     5.80 Bohr mag/cell

     iteration #  9     ecut=    90.00 Ry     beta= 0.40
     Davidson diagonalization with overlap

---- Real-time Memory Report at c_bands before calling an iterative solver
           201 MiB given to the printing process from OS
           146 MiB allocation reported by mallinfo(arena+hblkhd)
        482591 MiB available memory on the node where the printing process lives
------------------
     ethr =  7.30E-06,  avg # of iterations =  4.9

     negative rho (up, down):  0.000E+00 3.330E-04

     total cpu time spent up to now is       97.9 secs

     total energy              =    -961.19089460 Ry
     estimated scf accuracy    <       0.01563388 Ry

     total magnetization       =     5.47 Bohr mag/cell
     absolute magnetization    =     5.51 Bohr mag/cell

     iteration # 10     ecut=    90.00 Ry     beta= 0.40
     Davidson diagonalization with overlap

---- Real-time Memory Report at c_bands before calling an iterative solver
           202 MiB given to the printing process from OS
           147 MiB allocation reported by mallinfo(arena+hblkhd)
        482577 MiB available memory on the node where the printing process lives
------------------
     ethr =  7.30E-06,  avg # of iterations =  1.0

     negative rho (up, down):  0.000E+00 3.060E-04

     total cpu time spent up to now is      106.5 secs

     total energy              =    -961.19107088 Ry
     estimated scf accuracy    <       0.00254061 Ry

     total magnetization       =     5.52 Bohr mag/cell
     absolute magnetization    =     5.55 Bohr mag/cell

     iteration # 11     ecut=    90.00 Ry     beta= 0.40
     Davidson diagonalization with overlap

---- Real-time Memory Report at c_bands before calling an iterative solver
           202 MiB given to the printing process from OS
           147 MiB allocation reported by mallinfo(arena+hblkhd)
        482570 MiB available memory on the node where the printing process lives
------------------
     ethr =  3.34E-06,  avg # of iterations =  2.0

     negative rho (up, down):  0.000E+00 3.016E-04

     total cpu time spent up to now is      116.1 secs

     total energy              =    -961.19216776 Ry
     estimated scf accuracy    <       0.00100027 Ry

     total magnetization       =     5.33 Bohr mag/cell
     absolute magnetization    =     5.36 Bohr mag/cell

     iteration # 12     ecut=    90.00 Ry     beta= 0.40
     Davidson diagonalization with overlap

---- Real-time Memory Report at c_bands before calling an iterative solver
           202 MiB given to the printing process from OS
           147 MiB allocation reported by mallinfo(arena+hblkhd)
        482564 MiB available memory on the node where the printing process lives
------------------
     ethr =  1.32E-06,  avg # of iterations =  1.6

     negative rho (up, down):  0.000E+00 3.056E-04

     total cpu time spent up to now is      125.6 secs

     total energy              =    -961.19239111 Ry
     estimated scf accuracy    <       0.00115410 Ry

     total magnetization       =     5.22 Bohr mag/cell
     absolute magnetization    =     5.25 Bohr mag/cell

     iteration # 13     ecut=    90.00 Ry     beta= 0.40
     Davidson diagonalization with overlap

---- Real-time Memory Report at c_bands before calling an iterative solver
           202 MiB given to the printing process from OS
           147 MiB allocation reported by mallinfo(arena+hblkhd)
        482544 MiB available memory on the node where the printing process lives
------------------
     ethr =  1.32E-06,  avg # of iterations =  1.0

     negative rho (up, down):  0.000E+00 2.558E-04

     total cpu time spent up to now is      134.2 secs

     total energy              =    -961.17803668 Ry
     estimated scf accuracy    <       0.00101174 Ry

     total magnetization       =     5.21 Bohr mag/cell
     absolute magnetization    =     5.24 Bohr mag/cell

     iteration # 14     ecut=    90.00 Ry     beta= 0.40
     Davidson diagonalization with overlap

---- Real-time Memory Report at c_bands before calling an iterative solver
           202 MiB given to the printing process from OS
           147 MiB allocation reported by mallinfo(arena+hblkhd)
        482553 MiB available memory on the node where the printing process lives
------------------
     ethr =  1.32E-06,  avg # of iterations =  3.9

     negative rho (up, down):  0.000E+00 3.043E-04

     total cpu time spent up to now is      149.0 secs

     total energy              =    -961.15470113 Ry
     estimated scf accuracy    <       0.00835613 Ry

     total magnetization       =     4.05 Bohr mag/cell
     absolute magnetization    =     4.67 Bohr mag/cell

     iteration # 15     ecut=    90.00 Ry     beta= 0.40
     Davidson diagonalization with overlap

---- Real-time Memory Report at c_bands before calling an iterative solver
           203 MiB given to the printing process from OS
           147 MiB allocation reported by mallinfo(arena+hblkhd)
        482551 MiB available memory on the node where the printing process lives
------------------
     ethr =  1.32E-06,  avg # of iterations =  3.5

     negative rho (up, down):  0.000E+00 3.389E-04

     total cpu time spent up to now is      163.3 secs

     total energy              =    -961.18152851 Ry
     estimated scf accuracy    <       0.00057231 Ry

     total magnetization       =     5.55 Bohr mag/cell
     absolute magnetization    =     5.58 Bohr mag/cell

     iteration # 16     ecut=    90.00 Ry     beta= 0.40
     Davidson diagonalization with overlap

---- Real-time Memory Report at c_bands before calling an iterative solver
           203 MiB given to the printing process from OS
           147 MiB allocation reported by mallinfo(arena+hblkhd)
        482547 MiB available memory on the node where the printing process lives
------------------
     ethr =  7.53E-07,  avg # of iterations =  3.7

     negative rho (up, down):  0.000E+00 2.990E-04

     total cpu time spent up to now is      176.8 secs

     total energy              =    -961.18670514 Ry
     estimated scf accuracy    <       0.00727830 Ry

     total magnetization       =     5.80 Bohr mag/cell
     absolute magnetization    =     5.85 Bohr mag/cell

     iteration # 17     ecut=    90.00 Ry     beta= 0.40
     Davidson diagonalization with overlap

---- Real-time Memory Report at c_bands before calling an iterative solver
           203 MiB given to the printing process from OS
           147 MiB allocation reported by mallinfo(arena+hblkhd)
        482545 MiB available memory on the node where the printing process lives
------------------
     ethr =  7.53E-07,  avg # of iterations =  3.0

     negative rho (up, down):  0.000E+00 2.897E-04

     total cpu time spent up to now is      189.7 secs

     total energy              =    -961.19167556 Ry
     estimated scf accuracy    <       0.00038202 Ry

     total magnetization       =     5.37 Bohr mag/cell
     absolute magnetization    =     5.40 Bohr mag/cell

     iteration # 18     ecut=    90.00 Ry     beta= 0.40
     Davidson diagonalization with overlap

---- Real-time Memory Report at c_bands before calling an iterative solver
           203 MiB given to the printing process from OS
           147 MiB allocation reported by mallinfo(arena+hblkhd)
        482544 MiB available memory on the node where the printing process lives
------------------
     ethr =  5.03E-07,  avg # of iterations =  2.0

     negative rho (up, down):  0.000E+00 2.702E-04

     total cpu time spent up to now is      200.5 secs

     total energy              =    -961.19133215 Ry
     estimated scf accuracy    <       0.00071252 Ry

     total magnetization       =     5.08 Bohr mag/cell
     absolute magnetization    =     5.11 Bohr mag/cell

     iteration # 19     ecut=    90.00 Ry     beta= 0.40
     Davidson diagonalization with overlap

---- Real-time Memory Report at c_bands before calling an iterative solver
           203 MiB given to the printing process from OS
           147 MiB allocation reported by mallinfo(arena+hblkhd)
        482539 MiB available memory on the node where the printing process lives
------------------
     ethr =  5.03E-07,  avg # of iterations =  2.7

     negative rho (up, down):  0.000E+00 2.856E-04

     total cpu time spent up to now is      213.3 secs

     total energy              =    -961.19015786 Ry
     estimated scf accuracy    <       0.00317283 Ry

     total magnetization       =     4.48 Bohr mag/cell
     absolute magnetization    =     4.56 Bohr mag/cell

     iteration # 20     ecut=    90.00 Ry     beta= 0.40
     Davidson diagonalization with overlap

---- Real-time Memory Report at c_bands before calling an iterative solver
           203 MiB given to the printing process from OS
           147 MiB allocation reported by mallinfo(arena+hblkhd)
        482538 MiB available memory on the node where the printing process lives
------------------
     ethr =  5.03E-07,  avg # of iterations =  2.5

     negative rho (up, down):  0.000E+00 2.784E-04

     total cpu time spent up to now is      224.5 secs

     total energy              =    -961.19365935 Ry
     estimated scf accuracy    <       0.00092851 Ry

     total magnetization       =     4.96 Bohr mag/cell
     absolute magnetization    =     5.00 Bohr mag/cell

     iteration # 21     ecut=    90.00 Ry     beta= 0.40
     Davidson diagonalization with overlap

---- Real-time Memory Report at c_bands before calling an iterative solver
           203 MiB given to the printing process from OS
           147 MiB allocation reported by mallinfo(arena+hblkhd)
        482513 MiB available memory on the node where the printing process lives
------------------
     ethr =  5.03E-07,  avg # of iterations =  2.0

     negative rho (up, down):  0.000E+00 2.919E-04

     total cpu time spent up to now is      234.3 secs

     total energy              =    -961.18978915 Ry
     estimated scf accuracy    <       0.00180786 Ry

     total magnetization       =     4.72 Bohr mag/cell
     absolute magnetization    =     4.76 Bohr mag/cell

     iteration # 22     ecut=    90.00 Ry     beta= 0.40
     Davidson diagonalization with overlap

---- Real-time Memory Report at c_bands before calling an iterative solver
           203 MiB given to the printing process from OS
           147 MiB allocation reported by mallinfo(arena+hblkhd)
        482513 MiB available memory on the node where the printing process lives
------------------
     ethr =  5.03E-07,  avg # of iterations =  2.3

     negative rho (up, down):  0.000E+00 3.064E-04

     total cpu time spent up to now is      245.4 secs

     total energy              =    -961.18885556 Ry
     estimated scf accuracy    <       0.00047945 Ry

     total magnetization       =     5.18 Bohr mag/cell
     absolute magnetization    =     5.21 Bohr mag/cell

     iteration # 23     ecut=    90.00 Ry     beta= 0.40
     Davidson diagonalization with overlap

---- Real-time Memory Report at c_bands before calling an iterative solver
           203 MiB given to the printing process from OS
           147 MiB allocation reported by mallinfo(arena+hblkhd)
        482508 MiB available memory on the node where the printing process lives
------------------
     ethr =  5.03E-07,  avg # of iterations =  2.5

     negative rho (up, down):  0.000E+00 3.032E-04

     total cpu time spent up to now is      257.0 secs

     total energy              =    -961.19146040 Ry
     estimated scf accuracy    <       0.00047577 Ry

     total magnetization       =     5.56 Bohr mag/cell
     absolute magnetization    =     5.59 Bohr mag/cell

     iteration # 24     ecut=    90.00 Ry     beta= 0.40
     Davidson diagonalization with overlap

---- Real-time Memory Report at c_bands before calling an iterative solver
           203 MiB given to the printing process from OS
           147 MiB allocation reported by mallinfo(arena+hblkhd)
        482516 MiB available memory on the node where the printing process lives
------------------
     ethr =  5.03E-07,  avg # of iterations =  1.0

     negative rho (up, down):  0.000E+00 2.967E-04

     total cpu time spent up to now is      265.5 secs

     total energy              =    -961.19167848 Ry
     estimated scf accuracy    <       0.00038590 Ry

     total magnetization       =     5.49 Bohr mag/cell
     absolute magnetization    =     5.52 Bohr mag/cell

     iteration # 25     ecut=    90.00 Ry     beta= 0.40
     Davidson diagonalization with overlap

---- Real-time Memory Report at c_bands before calling an iterative solver
           203 MiB given to the printing process from OS
           147 MiB allocation reported by mallinfo(arena+hblkhd)
        482515 MiB available memory on the node where the printing process lives
------------------
     ethr =  5.03E-07,  avg # of iterations =  2.0

     negative rho (up, down):  0.000E+00 3.014E-04

     total cpu time spent up to now is      275.2 secs

     total energy              =    -961.19140570 Ry
     estimated scf accuracy    <       0.00033089 Ry

     total magnetization       =     5.34 Bohr mag/cell
     absolute magnetization    =     5.37 Bohr mag/cell

     iteration # 26     ecut=    90.00 Ry     beta= 0.40
     Davidson diagonalization with overlap

---- Real-time Memory Report at c_bands before calling an iterative solver
           203 MiB given to the printing process from OS
           147 MiB allocation reported by mallinfo(arena+hblkhd)
        482553 MiB available memory on the node where the printing process lives
------------------
     ethr =  4.35E-07,  avg # of iterations =  2.0

     negative rho (up, down):  0.000E+00 3.031E-04

     total cpu time spent up to now is      284.7 secs

     total energy              =    -961.19149910 Ry
     estimated scf accuracy    <       0.00038060 Ry

     total magnetization       =     5.46 Bohr mag/cell
     absolute magnetization    =     5.49 Bohr mag/cell

     iteration # 27     ecut=    90.00 Ry     beta= 0.40
     Davidson diagonalization with overlap

---- Real-time Memory Report at c_bands before calling an iterative solver
           203 MiB given to the printing process from OS
           147 MiB allocation reported by mallinfo(arena+hblkhd)
        482554 MiB available memory on the node where the printing process lives
------------------
     ethr =  4.35E-07,  avg # of iterations =  1.0

     negative rho (up, down):  0.000E+00 3.050E-04

     total cpu time spent up to now is      293.3 secs

     total energy              =    -961.19136634 Ry
     estimated scf accuracy    <       0.00040012 Ry

     total magnetization       =     5.50 Bohr mag/cell
     absolute magnetization    =     5.53 Bohr mag/cell

     iteration # 28     ecut=    90.00 Ry     beta= 0.40
     Davidson diagonalization with overlap

---- Real-time Memory Report at c_bands before calling an iterative solver
           203 MiB given to the printing process from OS
           147 MiB allocation reported by mallinfo(arena+hblkhd)
        482554 MiB available memory on the node where the printing process lives
------------------
     ethr =  4.35E-07,  avg # of iterations =  1.0

     negative rho (up, down):  0.000E+00 3.049E-04

     total cpu time spent up to now is      301.9 secs

     total energy              =    -961.19138748 Ry
     estimated scf accuracy    <       0.00042705 Ry

     total magnetization       =     5.53 Bohr mag/cell
     absolute magnetization    =     5.57 Bohr mag/cell

     iteration # 29     ecut=    90.00 Ry     beta= 0.40
     Davidson diagonalization with overlap

---- Real-time Memory Report at c_bands before calling an iterative solver
           203 MiB given to the printing process from OS
           147 MiB allocation reported by mallinfo(arena+hblkhd)
        482552 MiB available memory on the node where the printing process lives
------------------
     ethr =  4.35E-07,  avg # of iterations =  1.0

     negative rho (up, down):  0.000E+00 3.048E-04

     total cpu time spent up to now is      310.4 secs

     total energy              =    -961.19140375 Ry
     estimated scf accuracy    <       0.00043405 Ry

     total magnetization       =     5.53 Bohr mag/cell
     absolute magnetization    =     5.57 Bohr mag/cell

     iteration # 30     ecut=    90.00 Ry     beta= 0.40
     Davidson diagonalization with overlap

---- Real-time Memory Report at c_bands before calling an iterative solver
           203 MiB given to the printing process from OS
           147 MiB allocation reported by mallinfo(arena+hblkhd)
        482551 MiB available memory on the node where the printing process lives
------------------
     ethr =  4.35E-07,  avg # of iterations =  1.0

     negative rho (up, down):  0.000E+00 2.528E-04

     total cpu time spent up to now is      319.0 secs

     total energy              =    -961.17021761 Ry
     estimated scf accuracy    <       0.00041818 Ry

     total magnetization       =     5.53 Bohr mag/cell
     absolute magnetization    =     5.56 Bohr mag/cell

     iteration # 31     ecut=    90.00 Ry     beta= 0.40
     Davidson diagonalization with overlap

---- Real-time Memory Report at c_bands before calling an iterative solver
           203 MiB given to the printing process from OS
           147 MiB allocation reported by mallinfo(arena+hblkhd)
        482551 MiB available memory on the node where the printing process lives
------------------
     ethr =  4.35E-07,  avg # of iterations =  4.4

     negative rho (up, down):  0.000E+00 3.028E-04

     total cpu time spent up to now is      334.6 secs

     total energy              =    -961.15998686 Ry
     estimated scf accuracy    <       0.00902692 Ry

     total magnetization       =     4.10 Bohr mag/cell
     absolute magnetization    =     4.61 Bohr mag/cell

     iteration # 32     ecut=    90.00 Ry     beta= 0.40
     Davidson diagonalization with overlap

---- Real-time Memory Report at c_bands before calling an iterative solver
           203 MiB given to the printing process from OS
           147 MiB allocation reported by mallinfo(arena+hblkhd)
        482548 MiB available memory on the node where the printing process lives
------------------
     ethr =  4.35E-07,  avg # of iterations =  4.3

     negative rho (up, down):  0.000E+00 3.039E-04

     total cpu time spent up to now is      349.9 secs

     total energy              =    -961.19124037 Ry
     estimated scf accuracy    <       0.00045980 Ry

     total magnetization       =     5.50 Bohr mag/cell
     absolute magnetization    =     5.53 Bohr mag/cell

     iteration # 33     ecut=    90.00 Ry     beta= 0.40
     Davidson diagonalization with overlap

---- Real-time Memory Report at c_bands before calling an iterative solver
           203 MiB given to the printing process from OS
           147 MiB allocation reported by mallinfo(arena+hblkhd)
        482549 MiB available memory on the node where the printing process lives
------------------
     ethr =  4.35E-07,  avg # of iterations =  1.0

     negative rho (up, down):  0.000E+00 3.092E-04

     total cpu time spent up to now is      358.4 secs

     total energy              =    -961.19049407 Ry
     estimated scf accuracy    <       0.00061060 Ry

     total magnetization       =     5.56 Bohr mag/cell
     absolute magnetization    =     5.59 Bohr mag/cell

     iteration # 34     ecut=    90.00 Ry     beta= 0.40
     Davidson diagonalization with overlap

---- Real-time Memory Report at c_bands before calling an iterative solver
           203 MiB given to the printing process from OS
           147 MiB allocation reported by mallinfo(arena+hblkhd)
        482547 MiB available memory on the node where the printing process lives
------------------
     ethr =  4.35E-07,  avg # of iterations =  2.0

     negative rho (up, down):  0.000E+00 3.151E-04

     total cpu time spent up to now is      368.1 secs

     total energy              =    -961.18969631 Ry
     estimated scf accuracy    <       0.00093541 Ry

     total magnetization       =     5.67 Bohr mag/cell
     absolute magnetization    =     5.70 Bohr mag/cell

     iteration # 35     ecut=    90.00 Ry     beta= 0.40
     Davidson diagonalization with overlap

---- Real-time Memory Report at c_bands before calling an iterative solver
           203 MiB given to the printing process from OS
           147 MiB allocation reported by mallinfo(arena+hblkhd)
        482549 MiB available memory on the node where the printing process lives
------------------
     ethr =  4.35E-07,  avg # of iterations =  2.0

     negative rho (up, down):  0.000E+00 3.256E-04

     total cpu time spent up to now is      377.9 secs

     total energy              =    -961.18782165 Ry
     estimated scf accuracy    <       0.00146902 Ry

     total magnetization       =     5.76 Bohr mag/cell
     absolute magnetization    =     5.79 Bohr mag/cell

     iteration # 36     ecut=    90.00 Ry     beta= 0.40
     Davidson diagonalization with overlap

---- Real-time Memory Report at c_bands before calling an iterative solver
           203 MiB given to the printing process from OS
           147 MiB allocation reported by mallinfo(arena+hblkhd)
        482550 MiB available memory on the node where the printing process lives
------------------
     ethr =  4.35E-07,  avg # of iterations =  2.0

     negative rho (up, down):  0.000E+00 3.157E-04

     total cpu time spent up to now is      388.6 secs

     total energy              =    -961.18972965 Ry
     estimated scf accuracy    <       0.00320758 Ry

     total magnetization       =     5.83 Bohr mag/cell
     absolute magnetization    =     5.87 Bohr mag/cell

     iteration # 37     ecut=    90.00 Ry     beta= 0.40
     Davidson diagonalization with overlap

---- Real-time Memory Report at c_bands before calling an iterative solver
           203 MiB given to the printing process from OS
           147 MiB allocation reported by mallinfo(arena+hblkhd)
        482569 MiB available memory on the node where the printing process lives
------------------
     ethr =  4.35E-07,  avg # of iterations =  2.0

     negative rho (up, down):  0.000E+00 3.164E-04

     total cpu time spent up to now is      399.2 secs

     total energy              =    -961.19009725 Ry
     estimated scf accuracy    <       0.00108903 Ry

     total magnetization       =     5.73 Bohr mag/cell
     absolute magnetization    =     5.77 Bohr mag/cell

     iteration # 38     ecut=    90.00 Ry     beta= 0.40
     Davidson diagonalization with overlap

---- Real-time Memory Report at c_bands before calling an iterative solver
           203 MiB given to the printing process from OS
           147 MiB allocation reported by mallinfo(arena+hblkhd)
        482566 MiB available memory on the node where the printing process lives
------------------
     ethr =  4.35E-07,  avg # of iterations =  1.0

     negative rho (up, down):  0.000E+00 3.097E-04

     total cpu time spent up to now is      407.7 secs

     total energy              =    -961.19063134 Ry
     estimated scf accuracy    <       0.00114746 Ry

     total magnetization       =     5.74 Bohr mag/cell
     absolute magnetization    =     5.78 Bohr mag/cell

     iteration # 39     ecut=    90.00 Ry     beta= 0.40
     Davidson diagonalization with overlap

---- Real-time Memory Report at c_bands before calling an iterative solver
           203 MiB given to the printing process from OS
           147 MiB allocation reported by mallinfo(arena+hblkhd)
        482567 MiB available memory on the node where the printing process lives
------------------
     ethr =  4.35E-07,  avg # of iterations =  2.0

     negative rho (up, down):  0.000E+00 3.114E-04

     total cpu time spent up to now is      417.6 secs

     total energy              =    -961.19076345 Ry
     estimated scf accuracy    <       0.00061888 Ry

     total magnetization       =     5.63 Bohr mag/cell
     absolute magnetization    =     5.66 Bohr mag/cell

     iteration # 40     ecut=    90.00 Ry     beta= 0.40
     Davidson diagonalization with overlap

---- Real-time Memory Report at c_bands before calling an iterative solver
           203 MiB given to the printing process from OS
           147 MiB allocation reported by mallinfo(arena+hblkhd)
        482570 MiB available memory on the node where the printing process lives
------------------
     ethr =  4.35E-07,  avg # of iterations =  1.0

     negative rho (up, down):  0.000E+00 2.932E-04

     total cpu time spent up to now is      426.2 secs

     total energy              =    -961.18885618 Ry
     estimated scf accuracy    <       0.00069067 Ry

     total magnetization       =     5.66 Bohr mag/cell
     absolute magnetization    =     5.69 Bohr mag/cell

     iteration # 41     ecut=    90.00 Ry     beta= 0.40
     Davidson diagonalization with overlap

---- Real-time Memory Report at c_bands before calling an iterative solver
           203 MiB given to the printing process from OS
           147 MiB allocation reported by mallinfo(arena+hblkhd)
        482574 MiB available memory on the node where the printing process lives
------------------
     ethr =  4.35E-07,  avg # of iterations =  3.0

     negative rho (up, down):  0.000E+00 2.801E-04

     total cpu time spent up to now is      438.4 secs

     total energy              =    -961.19236186 Ry
     estimated scf accuracy    <       0.00065757 Ry

     total magnetization       =     5.15 Bohr mag/cell
     absolute magnetization    =     5.18 Bohr mag/cell

     iteration # 42     ecut=    90.00 Ry     beta= 0.40
     Davidson diagonalization with overlap

---- Real-time Memory Report at c_bands before calling an iterative solver
           203 MiB given to the printing process from OS
           147 MiB allocation reported by mallinfo(arena+hblkhd)
        482571 MiB available memory on the node where the printing process lives
------------------
     ethr =  4.35E-07,  avg # of iterations =  2.1

     negative rho (up, down):  0.000E+00 2.912E-04

     total cpu time spent up to now is      449.6 secs

     total energy              =    -961.19108705 Ry
     estimated scf accuracy    <       0.00140548 Ry

     total magnetization       =     4.80 Bohr mag/cell
     absolute magnetization    =     4.84 Bohr mag/cell

     iteration # 43     ecut=    90.00 Ry     beta= 0.40
     Davidson diagonalization with overlap

---- Real-time Memory Report at c_bands before calling an iterative solver
           203 MiB given to the printing process from OS
           147 MiB allocation reported by mallinfo(arena+hblkhd)
        482571 MiB available memory on the node where the printing process lives
------------------
     ethr =  4.35E-07,  avg # of iterations =  2.0

     negative rho (up, down):  0.000E+00 3.141E-04

     total cpu time spent up to now is      460.4 secs

     total energy              =    -961.18546930 Ry
     estimated scf accuracy    <       0.00052511 Ry

     total magnetization       =     5.14 Bohr mag/cell
     absolute magnetization    =     5.17 Bohr mag/cell

     iteration # 44     ecut=    90.00 Ry     beta= 0.40
     Davidson diagonalization with overlap

---- Real-time Memory Report at c_bands before calling an iterative solver
           203 MiB given to the printing process from OS
           147 MiB allocation reported by mallinfo(arena+hblkhd)
        482568 MiB available memory on the node where the printing process lives
------------------
     ethr =  4.35E-07,  avg # of iterations =  3.0

     negative rho (up, down):  0.000E+00 3.044E-04

[...]
           147 MiB allocation reported by mallinfo(arena+hblkhd)
        483069 MiB available memory on the node where the printing process lives
------------------
     ethr =  4.09E-07,  avg # of iterations =  1.0

     negative rho (up, down):  0.000E+00 3.028E-04

     total cpu time spent up to now is     5252.2 secs

     total energy              =    -961.19166177 Ry
     estimated scf accuracy    <       0.00033354 Ry

     total magnetization       =     5.36 Bohr mag/cell
     absolute magnetization    =     5.39 Bohr mag/cell

     iteration #481     ecut=    90.00 Ry     beta= 0.40
     Davidson diagonalization with overlap

---- Real-time Memory Report at c_bands before calling an iterative solver
           205 MiB given to the printing process from OS
           147 MiB allocation reported by mallinfo(arena+hblkhd)
        483067 MiB available memory on the node where the printing process lives
------------------
     ethr =  4.09E-07,  avg # of iterations =  1.0

     negative rho (up, down):  0.000E+00 3.136E-04

     total cpu time spent up to now is     5260.8 secs

     total energy              =    -961.18973637 Ry
     estimated scf accuracy    <       0.00033915 Ry

     total magnetization       =     5.43 Bohr mag/cell
     absolute magnetization    =     5.46 Bohr mag/cell

     iteration #482     ecut=    90.00 Ry     beta= 0.40
     Davidson diagonalization with overlap

---- Real-time Memory Report at c_bands before calling an iterative solver
           205 MiB given to the printing process from OS
           147 MiB allocation reported by mallinfo(arena+hblkhd)
        483066 MiB available memory on the node where the printing process lives
------------------
     ethr =  4.09E-07,  avg # of iterations =  2.1

     negative rho (up, down):  0.000E+00 3.137E-04

     total cpu time spent up to now is     5271.7 secs

     total energy              =    -961.19073969 Ry
     estimated scf accuracy    <       0.00069160 Ry

     total magnetization       =     5.66 Bohr mag/cell
     absolute magnetization    =     5.69 Bohr mag/cell

     iteration #483     ecut=    90.00 Ry     beta= 0.40
     Davidson diagonalization with overlap

---- Real-time Memory Report at c_bands before calling an iterative solver
           205 MiB given to the printing process from OS
           147 MiB allocation reported by mallinfo(arena+hblkhd)
        483066 MiB available memory on the node where the printing process lives
------------------
     ethr =  4.09E-07,  avg # of iterations =  1.0

     negative rho (up, down):  0.000E+00 3.162E-04

     total cpu time spent up to now is     5280.2 secs

     total energy              =    -961.19053380 Ry
     estimated scf accuracy    <       0.00068349 Ry

     total magnetization       =     5.66 Bohr mag/cell
     absolute magnetization    =     5.69 Bohr mag/cell

     iteration #484     ecut=    90.00 Ry     beta= 0.40
     Davidson diagonalization with overlap

---- Real-time Memory Report at c_bands before calling an iterative solver
           205 MiB given to the printing process from OS
           147 MiB allocation reported by mallinfo(arena+hblkhd)
        483070 MiB available memory on the node where the printing process lives
------------------
     ethr =  4.09E-07,  avg # of iterations =  1.0

     negative rho (up, down):  0.000E+00 3.161E-04

     total cpu time spent up to now is     5288.8 secs

     total energy              =    -961.19058506 Ry
     estimated scf accuracy    <       0.00079985 Ry

     total magnetization       =     5.69 Bohr mag/cell
     absolute magnetization    =     5.72 Bohr mag/cell

     iteration #485     ecut=    90.00 Ry     beta= 0.40
     Davidson diagonalization with overlap

---- Real-time Memory Report at c_bands before calling an iterative solver
           205 MiB given to the printing process from OS
           147 MiB allocation reported by mallinfo(arena+hblkhd)
        483066 MiB available memory on the node where the printing process lives
------------------
     ethr =  4.09E-07,  avg # of iterations =  1.0

     negative rho (up, down):  0.000E+00 2.889E-04

     total cpu time spent up to now is     5297.4 secs

     total energy              =    -961.18685960 Ry
     estimated scf accuracy    <       0.00078281 Ry

     total magnetization       =     5.68 Bohr mag/cell
     absolute magnetization    =     5.72 Bohr mag/cell

     iteration #486     ecut=    90.00 Ry     beta= 0.40
     Davidson diagonalization with overlap

---- Real-time Memory Report at c_bands before calling an iterative solver
           205 MiB given to the printing process from OS
           147 MiB allocation reported by mallinfo(arena+hblkhd)
        483065 MiB available memory on the node where the printing process lives
------------------
     ethr =  4.09E-07,  avg # of iterations =  3.0

     negative rho (up, down):  0.000E+00 2.809E-04

     total cpu time spent up to now is     5310.4 secs

     total energy              =    -961.19320836 Ry
     estimated scf accuracy    <       0.00074840 Ry

     total magnetization       =     5.03 Bohr mag/cell
     absolute magnetization    =     5.06 Bohr mag/cell

     iteration #487     ecut=    90.00 Ry     beta= 0.40
     Davidson diagonalization with overlap

---- Real-time Memory Report at c_bands before calling an iterative solver
           205 MiB given to the printing process from OS
           147 MiB allocation reported by mallinfo(arena+hblkhd)
        483065 MiB available memory on the node where the printing process lives
------------------
     ethr =  4.09E-07,  avg # of iterations =  2.0

     negative rho (up, down):  0.000E+00 3.066E-04

     total cpu time spent up to now is     5321.0 secs

     total energy              =    -961.18214583 Ry
     estimated scf accuracy    <       0.00163584 Ry

     total magnetization       =     4.75 Bohr mag/cell
     absolute magnetization    =     4.79 Bohr mag/cell

     iteration #488     ecut=    90.00 Ry     beta= 0.40
     Davidson diagonalization with overlap

---- Real-time Memory Report at c_bands before calling an iterative solver
           205 MiB given to the printing process from OS
           147 MiB allocation reported by mallinfo(arena+hblkhd)
        483066 MiB available memory on the node where the printing process lives
------------------
     ethr =  4.09E-07,  avg # of iterations =  3.0

     negative rho (up, down):  0.000E+00 3.119E-04

     total cpu time spent up to now is     5334.1 secs

     total energy              =    -961.19026219 Ry
     estimated scf accuracy    <       0.00043047 Ry

     total magnetization       =     5.54 Bohr mag/cell
     absolute magnetization    =     5.57 Bohr mag/cell

     iteration #489     ecut=    90.00 Ry     beta= 0.40
     Davidson diagonalization with overlap

---- Real-time Memory Report at c_bands before calling an iterative solver
           205 MiB given to the printing process from OS
           147 MiB allocation reported by mallinfo(arena+hblkhd)
        483065 MiB available memory on the node where the printing process lives
------------------
     ethr =  4.09E-07,  avg # of iterations =  2.0

     negative rho (up, down):  0.000E+00 2.964E-04

     total cpu time spent up to now is     5344.2 secs

     total energy              =    -961.18949584 Ry
     estimated scf accuracy    <       0.00076382 Ry

     total magnetization       =     5.68 Bohr mag/cell
     absolute magnetization    =     5.71 Bohr mag/cell

     iteration #490     ecut=    90.00 Ry     beta= 0.40
     Davidson diagonalization with overlap

---- Real-time Memory Report at c_bands before calling an iterative solver
           205 MiB given to the printing process from OS
           147 MiB allocation reported by mallinfo(arena+hblkhd)
        483066 MiB available memory on the node where the printing process lives
------------------
     ethr =  4.09E-07,  avg # of iterations =  2.5

     negative rho (up, down):  0.000E+00 3.092E-04

     total cpu time spent up to now is     5356.4 secs

     total energy              =    -961.18973662 Ry
     estimated scf accuracy    <       0.00041220 Ry

     total magnetization       =     5.25 Bohr mag/cell
     absolute magnetization    =     5.28 Bohr mag/cell

     iteration #491     ecut=    90.00 Ry     beta= 0.40
     Davidson diagonalization with overlap

---- Real-time Memory Report at c_bands before calling an iterative solver
           205 MiB given to the printing process from OS
           147 MiB allocation reported by mallinfo(arena+hblkhd)
        483079 MiB available memory on the node where the printing process lives
------------------
     ethr =  4.09E-07,  avg # of iterations =  2.5

     negative rho (up, down):  0.000E+00 3.072E-04

     total cpu time spent up to now is     5367.5 secs

     total energy              =    -961.19142897 Ry
     estimated scf accuracy    <       0.00043292 Ry

     total magnetization       =     5.55 Bohr mag/cell
     absolute magnetization    =     5.59 Bohr mag/cell

     iteration #492     ecut=    90.00 Ry     beta= 0.40
     Davidson diagonalization with overlap

---- Real-time Memory Report at c_bands before calling an iterative solver
           205 MiB given to the printing process from OS
           147 MiB allocation reported by mallinfo(arena+hblkhd)
        483082 MiB available memory on the node where the printing process lives
------------------
     ethr =  4.09E-07,  avg # of iterations =  1.0

     negative rho (up, down):  0.000E+00 3.087E-04

     total cpu time spent up to now is     5376.2 secs

     total energy              =    -961.19129690 Ry
     estimated scf accuracy    <       0.00038004 Ry

     total magnetization       =     5.51 Bohr mag/cell
     absolute magnetization    =     5.54 Bohr mag/cell

     iteration #493     ecut=    90.00 Ry     beta= 0.40
     Davidson diagonalization with overlap

---- Real-time Memory Report at c_bands before calling an iterative solver
           205 MiB given to the printing process from OS
           147 MiB allocation reported by mallinfo(arena+hblkhd)
        483080 MiB available memory on the node where the printing process lives
------------------
     ethr =  4.09E-07,  avg # of iterations =  1.0

     negative rho (up, down):  0.000E+00 3.093E-04

     total cpu time spent up to now is     5384.7 secs

     total energy              =    -961.19121466 Ry
     estimated scf accuracy    <       0.00041613 Ry

     total magnetization       =     5.55 Bohr mag/cell
     absolute magnetization    =     5.58 Bohr mag/cell

     iteration #494     ecut=    90.00 Ry     beta= 0.40
     Davidson diagonalization with overlap

---- Real-time Memory Report at c_bands before calling an iterative solver
           205 MiB given to the printing process from OS
           147 MiB allocation reported by mallinfo(arena+hblkhd)
        483078 MiB available memory on the node where the printing process lives
------------------
     ethr =  4.09E-07,  avg # of iterations =  1.0

     negative rho (up, down):  0.000E+00 3.144E-04

     total cpu time spent up to now is     5393.3 secs

     total energy              =    -961.19053640 Ry
     estimated scf accuracy    <       0.00044392 Ry

     total magnetization       =     5.57 Bohr mag/cell
     absolute magnetization    =     5.60 Bohr mag/cell

     iteration #495     ecut=    90.00 Ry     beta= 0.40
     Davidson diagonalization with overlap

---- Real-time Memory Report at c_bands before calling an iterative solver
           205 MiB given to the printing process from OS
           147 MiB allocation reported by mallinfo(arena+hblkhd)
        483080 MiB available memory on the node where the printing process lives
------------------
     ethr =  4.09E-07,  avg # of iterations =  2.0

     negative rho (up, down):  0.000E+00 3.235E-04

     total cpu time spent up to now is     5402.8 secs

     total energy              =    -961.18907884 Ry
     estimated scf accuracy    <       0.00067853 Ry

     total magnetization       =     5.66 Bohr mag/cell
     absolute magnetization    =     5.70 Bohr mag/cell

     iteration #496     ecut=    90.00 Ry     beta= 0.40
     Davidson diagonalization with overlap

---- Real-time Memory Report at c_bands before calling an iterative solver
           205 MiB given to the printing process from OS
           147 MiB allocation reported by mallinfo(arena+hblkhd)
        483079 MiB available memory on the node where the printing process lives
------------------
     ethr =  4.09E-07,  avg # of iterations =  2.0

     negative rho (up, down):  0.000E+00 2.909E-04

     total cpu time spent up to now is     5413.3 secs

     total energy              =    -961.18500194 Ry
     estimated scf accuracy    <       0.00162911 Ry

     total magnetization       =     5.78 Bohr mag/cell
     absolute magnetization    =     5.82 Bohr mag/cell

     iteration #497     ecut=    90.00 Ry     beta= 0.40
     Davidson diagonalization with overlap

---- Real-time Memory Report at c_bands before calling an iterative solver
           205 MiB given to the printing process from OS
           147 MiB allocation reported by mallinfo(arena+hblkhd)
        483078 MiB available memory on the node where the printing process lives
------------------
     ethr =  4.09E-07,  avg # of iterations =  3.0

     negative rho (up, down):  0.000E+00 2.757E-04

     total cpu time spent up to now is     5426.5 secs

     total energy              =    -961.19244624 Ry
     estimated scf accuracy    <       0.00067329 Ry

     total magnetization       =     5.08 Bohr mag/cell
     absolute magnetization    =     5.11 Bohr mag/cell

     iteration #498     ecut=    90.00 Ry     beta= 0.40
     Davidson diagonalization with overlap

---- Real-time Memory Report at c_bands before calling an iterative solver
           205 MiB given to the printing process from OS
           147 MiB allocation reported by mallinfo(arena+hblkhd)
        483081 MiB available memory on the node where the printing process lives
------------------
     ethr =  4.09E-07,  avg # of iterations =  2.5

     negative rho (up, down):  0.000E+00 3.086E-04

     total cpu time spent up to now is     5438.2 secs

     total energy              =    -961.17841204 Ry
     estimated scf accuracy    <       0.00203546 Ry

     total magnetization       =     4.65 Bohr mag/cell
     absolute magnetization    =     4.70 Bohr mag/cell

     iteration #499     ecut=    90.00 Ry     beta= 0.40
     Davidson diagonalization with overlap

---- Real-time Memory Report at c_bands before calling an iterative solver
           205 MiB given to the printing process from OS
           147 MiB allocation reported by mallinfo(arena+hblkhd)
        483081 MiB available memory on the node where the printing process lives
------------------
     ethr =  4.09E-07,  avg # of iterations =  3.0

     negative rho (up, down):  0.000E+00 2.835E-04

     total cpu time spent up to now is     5451.4 secs

     total energy              =    -961.18743431 Ry
     estimated scf accuracy    <       0.00045459 Ry

     total magnetization       =     5.57 Bohr mag/cell
     absolute magnetization    =     5.60 Bohr mag/cell

     iteration #500     ecut=    90.00 Ry     beta= 0.40
     Davidson diagonalization with overlap

---- Real-time Memory Report at c_bands before calling an iterative solver
           205 MiB given to the printing process from OS
           147 MiB allocation reported by mallinfo(arena+hblkhd)
        483078 MiB available memory on the node where the printing process lives
------------------
     ethr =  4.09E-07,  avg # of iterations =  3.0

     negative rho (up, down):  0.000E+00 2.950E-04

     total cpu time spent up to now is     5464.3 secs

     total energy              =    -961.19080939 Ry
     estimated scf accuracy    <       0.00112578 Ry

     total magnetization       =     4.89 Bohr mag/cell
     absolute magnetization    =     4.92 Bohr mag/cell

     End of self-consistent calculation

     convergence NOT achieved after 500 iterations: stopping

     Writing config to output data dir ./out/aiida.save/ :
     XML data file, charge density

     init_run     :      4.82s CPU      5.18s WALL (       1 calls)
     electrons    :   5185.36s CPU   5458.54s WALL (       1 calls)

     Called by init_run:
     wfcinit      :      3.18s CPU      3.44s WALL (       1 calls)
     wfcinit:atom :      0.06s CPU      0.06s WALL (      57 calls)
     wfcinit:wfcr :      2.85s CPU      3.11s WALL (      57 calls)
     potinit      :      0.70s CPU      0.75s WALL (       1 calls)
     hinit0       :      0.71s CPU      0.74s WALL (       1 calls)

     Called by electrons:
     c_bands      :   4123.87s CPU   4337.93s WALL (     500 calls)
     sum_band     :    790.74s CPU    832.38s WALL (     500 calls)
     v_of_rho     :    150.30s CPU    162.44s WALL (     501 calls)
     v_h          :      4.41s CPU      5.68s WALL (     501 calls)
     v_xc         :    145.88s CPU    156.75s WALL (     501 calls)
     newd         :     37.87s CPU     39.53s WALL (     501 calls)
     PAW_pot      :     47.13s CPU     49.31s WALL (     501 calls)
     mix_rho      :     13.59s CPU     14.04s WALL (     500 calls)

     Called by c_bands:
     init_us_2    :     53.94s CPU     55.49s WALL (   57057 calls)
     init_us_2:cp :     53.72s CPU     55.28s WALL (   57057 calls)
     cegterg      :   3839.92s CPU   4035.85s WALL (   28500 calls)

     Called by sum_band:
     sum_band:wei :      1.75s CPU      1.87s WALL (     500 calls)
     sum_band:loo :    694.93s CPU    732.46s WALL (     500 calls)
     sum_band:buf :     12.29s CPU     12.48s WALL (   28500 calls)
     sum_band:ini :     21.96s CPU     22.10s WALL (   28500 calls)
     sum_band:cal :     62.74s CPU     63.41s WALL (   28500 calls)
     sum_band:bec :      1.12s CPU      1.15s WALL (   28500 calls)
     addusdens    :     56.63s CPU     57.52s WALL (     500 calls)
                                        0.00s GPU  (     500 calls)
     addusd:skk   :      0.21s CPU      0.21s WALL (    1500 calls)
                                        0.00s GPU  (    1500 calls)

     Called by *egterg:
     cdiaghg      :    224.73s CPU    225.65s WALL (   88725 calls)
     cegterg:over :    168.53s CPU    168.95s WALL (   60225 calls)
     cegterg:upda :     88.99s CPU     89.96s WALL (   60225 calls)
     cegterg:last :    190.05s CPU    190.23s WALL (   52092 calls)
     h_psi        :   2931.35s CPU   3121.76s WALL (   88782 calls)
     s_psi        :    113.84s CPU    116.12s WALL (   88782 calls)
     g_psi        :      8.16s CPU      8.28s WALL (   60225 calls)

     Called by h_psi:
     h_psi:calbec :    183.10s CPU    185.27s WALL (   88782 calls)
     vloc_psi     :   2597.89s CPU   2785.36s WALL (   88782 calls)
     add_vuspsi   :    123.56s CPU    124.11s WALL (   88782 calls)

     General routines
     calbec       :    245.42s CPU    248.24s WALL (  117282 calls)
     fft          :     51.45s CPU     57.93s WALL (   12523 calls)
     ffts         :      1.60s CPU      1.75s WALL (    2002 calls)
     fftw         :   2265.93s CPU   2457.71s WALL ( 7916550 calls)
     interpolate  :      6.97s CPU      7.53s WALL (    1002 calls)
     davcio       :      0.00s CPU      0.08s WALL (      75 calls)

     Parallel routines

     PAW routines
     PAW_pot      :     47.13s CPU     49.31s WALL (     501 calls)
     PAW_symme    :      0.18s CPU      0.19s WALL (    1001 calls)

     PWSCF        :      1h26m CPU      1h31m WALL


   This run was terminated on:  22:20:15  28Nov2023            

=------------------------------------------------------------------------------=
   JOB DONE.
=------------------------------------------------------------------------------=
