
     Program PWSCF v.7.2 starts on 23Oct2023 at 21:39:40 

     This program is part of the open-source Quantum ESPRESSO suite
     for quantum simulation of materials; please cite
         "P. Giannozzi et al., J. Phys.:Condens. Matter 21 395502 (2009);
         "P. Giannozzi et al., J. Phys.:Condens. Matter 29 465901 (2017);
         "P. Giannozzi et al., J. Chem. Phys. 152 154105 (2020);
          URL http://www.quantum-espresso.org", 
     in publications or presentations arising from this work. More details at
     http://www.quantum-espresso.org/quote

     Parallel version (MPI & OpenMP), running on      12 processor cores
     Number of MPI processes:                 1
     Threads/MPI process:                    12

     MPI processes distributed on     1 nodes
     60323 MiB available memory on the printing compute node when the environment starts
 
     Reading input from aiida.in

     Current dimensions of program PWSCF are:
     Max number of different atomic species (ntypx) = 10
     Max number of k-points (npk) =  40000
     Max angular momentum in pseudopotentials (lmaxx) =  4
     file Fe.pbesol-spn-kjpaw_psl.0.2.1.UPF: wavefunction(s)  3D renormalized
     Message from routine setup:
     using ibrav=0 with symmetry is DISCOURAGED, use correct ibrav instead
 
     Subspace diagonalization in iterative solution of the eigenvalue problem:
     a serial algorithm will be used

 
     G-vector sticks info
     --------------------
     sticks:   dense  smooth     PW     G-vecs:    dense   smooth      PW
     Sum       13873    4639   1261              1077177   207247   29603
 
     Using Slab Decomposition
 


     bravais-lattice index     =            0
     lattice parameter (alat)  =      13.6457  a.u.
     unit-cell volume          =    1796.6729 (a.u.)^3
     number of atoms/cell      =            9
     number of atomic types    =            3
     number of electrons       =        60.00
     number of Kohn-Sham states=           36
     kinetic-energy cutoff     =      90.0000  Ry
     charge density cutoff     =    1080.0000  Ry
     scf convergence threshold =      1.8E-09
     mixing beta               =       0.2000
     number of iterations used =            8  plain     mixing
     Exchange-correlation= PBESOL
                           (   1   4  10   8   0   0   0)

     GPU acceleration is ACTIVE.


     GPU used by master process:

        Device Number: 0
        Device name: Tesla P100-PCIE-16GB
        Compute capability : 60
        Ratio of single to double precision performance  : 2
        Memory Clock Rate (KHz): 715000
        Memory Bus Width (bits): 4096
        Peak Memory Bandwidth (GB/s): 732.16

     celldm(1)=  13.645664  celldm(2)=   0.000000  celldm(3)=   0.000000
     celldm(4)=   0.000000  celldm(5)=   0.000000  celldm(6)=   0.000000

     crystal axes: (cart. coord. in units of alat)
               a(1) = (   0.000000   0.707107   0.707107 )  
               a(2) = (   0.707107   0.000000   0.707107 )  
               a(3) = (   0.707107   0.707107   0.000000 )  

     reciprocal axes: (cart. coord. in units 2 pi/alat)
               b(1) = ( -0.707107  0.707107  0.707107 )  
               b(2) = (  0.707107 -0.707107  0.707107 )  
               b(3) = (  0.707107  0.707107 -0.707107 )  


     PseudoPot. # 1 for Cl read from file:
     ./pseudo/cl_pbesol_v1.4.uspp.F.UPF
     MD5 check sum: ed6bbcf06f19043c0df9f6394706ff8f
     Pseudo is Ultrasoft + core correction, Zval =  7.0
     Generated by new atomic code, or converted to UPF format
     Using radial grid of  909 points,  6 beta functions with: 
                l(1) =   0
                l(2) =   0
                l(3) =   1
                l(4) =   1
                l(5) =   2
                l(6) =   2
     Q(r) pseudized with  8 coefficients,  rinner =    1.300   1.300   1.300
                                                       1.300   1.300

     PseudoPot. # 2 for Fe read from file:
     ./pseudo/Fe.pbesol-spn-kjpaw_psl.0.2.1.UPF
     MD5 check sum: 4d7ec5aa2156491519a4322664fbbf52
     Pseudo is Projector augmented-wave + core cor, Zval = 16.0
     Generated using "atomic" code by A. Dal Corso  v.6.0 svn rev. 13079
     Shape of augmentation charge: PSQ
     Using radial grid of 1191 points,  6 beta functions with: 
                l(1) =   0
                l(2) =   0
                l(3) =   1
                l(4) =   1
                l(5) =   2
                l(6) =   2
     Q(r) pseudized with 0 coefficients 


     PseudoPot. # 3 for N  read from file:
     ./pseudo/N.pbesol-theos.UPF
     MD5 check sum: 1b64827339d390a5a22afef3ff345c9d
     Pseudo is Ultrasoft + core correction, Zval =  5.0
     Generated using "atomic" code by A. Dal Corso  v.5.1
     Using radial grid of 1085 points,  4 beta functions with: 
                l(1) =   0
                l(2) =   0
                l(3) =   1
                l(4) =   1
     Q(r) pseudized with 0 coefficients 


     atomic species   valence    mass     pseudopotential
        Cl             7.00    35.45300     Cl( 1.00)
        Fe            16.00    55.84500     Fe( 1.00)
        N              5.00    14.00670     N ( 1.00)

     Starting magnetic structure 
     atomic species   magnetization
        Cl           0.100
        Fe           0.313
        N            0.100

     48 Sym. Ops., with inversion, found


                                    s                        frac. trans.

      isym =  1     identity                                     

 cryst.   s( 1) = (     1          0          0      )
                  (     0          1          0      )
                  (     0          0          1      )

 cart.    s( 1) = (  1.0000000 -0.0000000  0.0000000 )
                  ( -0.0000000  1.0000000  0.0000000 )
                  ( -0.0000000  0.0000000  1.0000000 )


      isym =  2     180 deg rotation - cart. axis [0,0,1]        

 cryst.   s( 2) = (     0          1         -1      )
                  (     1          0         -1      )
                  (     0          0         -1      )

 cart.    s( 2) = ( -1.0000000  0.0000000  0.0000000 )
                  (  0.0000000 -1.0000000  0.0000000 )
                  (  0.0000000 -0.0000000  1.0000000 )


      isym =  3     180 deg rotation - cart. axis [0,1,0]        

 cryst.   s( 3) = (     0         -1          1      )
                  (     0         -1          0      )
                  (     1         -1          0      )

 cart.    s( 3) = ( -1.0000000 -0.0000000 -0.0000000 )
                  (  0.0000000  1.0000000 -0.0000000 )
                  (  0.0000000  0.0000000 -1.0000000 )


      isym =  4     180 deg rotation - cart. axis [1,0,0]        

 cryst.   s( 4) = (    -1          0          0      )
                  (    -1          0          1      )
                  (    -1          1          0      )

 cart.    s( 4) = (  1.0000000  0.0000000 -0.0000000 )
                  ( -0.0000000 -1.0000000 -0.0000000 )
                  ( -0.0000000 -0.0000000 -1.0000000 )


      isym =  5     180 deg rotation - cart. axis [1,1,0]        

 cryst.   s( 5) = (    -1          0          1      )
                  (     0         -1          1      )
                  (     0          0          1      )

 cart.    s( 5) = ( -0.0000000  1.0000000 -0.0000000 )
                  (  1.0000000 -0.0000000 -0.0000000 )
                  (  0.0000000 -0.0000000 -1.0000000 )


      isym =  6     180 deg rotation - cart. axis [1,-1,0]       

 cryst.   s( 6) = (     0         -1          0      )
                  (    -1          0          0      )
                  (     0          0         -1      )

 cart.    s( 6) = (  0.0000000 -1.0000000 -0.0000000 )
                  ( -1.0000000  0.0000000 -0.0000000 )
                  ( -0.0000000  0.0000000 -1.0000000 )


      isym =  7      90 deg rotation - cart. axis [0,0,-1]       

 cryst.   s( 7) = (     0          1          0      )
                  (     0          1         -1      )
                  (    -1          1          0      )

 cart.    s( 7) = (  0.0000000  1.0000000  0.0000000 )
                  ( -1.0000000 -0.0000000  0.0000000 )
                  ( -0.0000000 -0.0000000  1.0000000 )


      isym =  8      90 deg rotation - cart. axis [0,0,1]        

 cryst.   s( 8) = (     1          0         -1      )
                  (     1          0          0      )
                  (     1         -1          0      )

 cart.    s( 8) = ( -0.0000000 -1.0000000  0.0000000 )
                  (  1.0000000  0.0000000  0.0000000 )
                  (  0.0000000  0.0000000  1.0000000 )


      isym =  9     180 deg rotation - cart. axis [1,0,1]        

 cryst.   s( 9) = (    -1          1          0      )
                  (     0          1          0      )
                  (     0          1         -1      )

 cart.    s( 9) = (  0.0000000  0.0000000  1.0000000 )
                  (  0.0000000 -1.0000000 -0.0000000 )
                  (  1.0000000 -0.0000000 -0.0000000 )


      isym = 10     180 deg rotation - cart. axis [-1,0,1]       

 cryst.   s(10) = (     0          0         -1      )
                  (     0         -1          0      )
                  (    -1          0          0      )

 cart.    s(10) = ( -0.0000000  0.0000000 -1.0000000 )
                  ( -0.0000000 -1.0000000  0.0000000 )
                  ( -1.0000000 -0.0000000  0.0000000 )


      isym = 11      90 deg rotation - cart. axis [0,1,0]        

 cryst.   s(11) = (     0          0          1      )
                  (    -1          0          1      )
                  (     0         -1          1      )

 cart.    s(11) = ( -0.0000000 -0.0000000  1.0000000 )
                  ( -0.0000000  1.0000000 -0.0000000 )
                  ( -1.0000000  0.0000000 -0.0000000 )


      isym = 12      90 deg rotation - cart. axis [0,-1,0]       

 cryst.   s(12) = (     1         -1          0      )
                  (     1          0         -1      )
                  (     1          0          0      )

 cart.    s(12) = (  0.0000000 -0.0000000 -1.0000000 )
                  (  0.0000000  1.0000000  0.0000000 )
                  (  1.0000000  0.0000000  0.0000000 )


      isym = 13     180 deg rotation - cart. axis [0,1,1]        

 cryst.   s(13) = (     1          0          0      )
                  (     1         -1          0      )
                  (     1          0         -1      )

 cart.    s(13) = ( -1.0000000  0.0000000 -0.0000000 )
                  (  0.0000000  0.0000000  1.0000000 )
                  (  0.0000000  1.0000000  0.0000000 )


      isym = 14     180 deg rotation - cart. axis [0,1,-1]       

 cryst.   s(14) = (    -1          0          0      )
                  (     0          0         -1      )
                  (     0         -1          0      )

 cart.    s(14) = ( -1.0000000 -0.0000000  0.0000000 )
                  (  0.0000000 -0.0000000 -1.0000000 )
                  (  0.0000000 -1.0000000 -0.0000000 )


      isym = 15      90 deg rotation - cart. axis [-1,0,0]       

 cryst.   s(15) = (     0         -1          1      )
                  (     0          0          1      )
                  (    -1          0          1      )

 cart.    s(15) = (  1.0000000 -0.0000000 -0.0000000 )
                  ( -0.0000000 -0.0000000  1.0000000 )
                  ( -0.0000000 -1.0000000  0.0000000 )


      isym = 16      90 deg rotation - cart. axis [1,0,0]        

 cryst.   s(16) = (     0          1         -1      )
                  (    -1          1          0      )
                  (     0          1          0      )

 cart.    s(16) = (  1.0000000  0.0000000  0.0000000 )
                  ( -0.0000000  0.0000000 -1.0000000 )
                  ( -0.0000000  1.0000000 -0.0000000 )


      isym = 17     120 deg rotation - cart. axis [-1,-1,-1]     

 cryst.   s(17) = (     0          0          1      )
                  (     1          0          0      )
                  (     0          1          0      )

 cart.    s(17) = (  0.0000000  1.0000000 -0.0000000 )
                  (  0.0000000 -0.0000000  1.0000000 )
                  (  1.0000000 -0.0000000  0.0000000 )


      isym = 18     120 deg rotation - cart. axis [-1,1,1]       

 cryst.   s(18) = (     1         -1          0      )
                  (     0         -1          1      )
                  (     0         -1          0      )

 cart.    s(18) = ( -0.0000000 -1.0000000 -0.0000000 )
                  ( -0.0000000  0.0000000  1.0000000 )
                  ( -1.0000000  0.0000000  0.0000000 )


      isym = 19     120 deg rotation - cart. axis [1,1,-1]       

 cryst.   s(19) = (    -1          1          0      )
                  (    -1          0          0      )
                  (    -1          0          1      )

 cart.    s(19) = ( -0.0000000  1.0000000  0.0000000 )
                  ( -0.0000000 -0.0000000 -1.0000000 )
                  ( -1.0000000 -0.0000000 -0.0000000 )


      isym = 20     120 deg rotation - cart. axis [1,-1,1]       

 cryst.   s(20) = (     0          0         -1      )
                  (     0          1         -1      )
                  (     1          0         -1      )

 cart.    s(20) = (  0.0000000 -1.0000000  0.0000000 )
                  (  0.0000000  0.0000000 -1.0000000 )
                  (  1.0000000  0.0000000 -0.0000000 )


      isym = 21     120 deg rotation - cart. axis [1,1,1]        

 cryst.   s(21) = (     0          1          0      )
                  (     0          0          1      )
                  (     1          0          0      )

 cart.    s(21) = ( -0.0000000  0.0000000  1.0000000 )
                  (  1.0000000  0.0000000 -0.0000000 )
                  (  0.0000000  1.0000000 -0.0000000 )


      isym = 22     120 deg rotation - cart. axis [-1,1,-1]      

 cryst.   s(22) = (    -1          0          1      )
                  (    -1          1          0      )
                  (    -1          0          0      )

 cart.    s(22) = (  0.0000000 -0.0000000  1.0000000 )
                  ( -1.0000000 -0.0000000 -0.0000000 )
                  ( -0.0000000 -1.0000000 -0.0000000 )


      isym = 23     120 deg rotation - cart. axis [1,-1,-1]      

 cryst.   s(23) = (     1          0         -1      )
                  (     0          0         -1      )
                  (     0          1         -1      )

 cart.    s(23) = (  0.0000000  0.0000000 -1.0000000 )
                  ( -1.0000000  0.0000000  0.0000000 )
                  ( -0.0000000  1.0000000  0.0000000 )


      isym = 24     120 deg rotation - cart. axis [-1,-1,1]      

 cryst.   s(24) = (     0         -1          0      )
                  (     1         -1          0      )
                  (     0         -1          1      )

 cart.    s(24) = ( -0.0000000 -0.0000000 -1.0000000 )
                  (  1.0000000 -0.0000000  0.0000000 )
                  (  0.0000000 -1.0000000  0.0000000 )


      isym = 25     inversion                                    

 cryst.   s(25) = (    -1          0          0      )
                  (     0         -1          0      )
                  (     0          0         -1      )

 cart.    s(25) = ( -1.0000000  0.0000000 -0.0000000 )
                  (  0.0000000 -1.0000000 -0.0000000 )
                  (  0.0000000 -0.0000000 -1.0000000 )


      isym = 26     inv. 180 deg rotation - cart. axis [0,0,1]   

 cryst.   s(26) = (     0         -1          1      )
                  (    -1          0          1      )
                  (     0          0          1      )

 cart.    s(26) = (  1.0000000 -0.0000000 -0.0000000 )
                  ( -0.0000000  1.0000000 -0.0000000 )
                  ( -0.0000000  0.0000000 -1.0000000 )


      isym = 27     inv. 180 deg rotation - cart. axis [0,1,0]   

 cryst.   s(27) = (     0          1         -1      )
                  (     0          1          0      )
                  (    -1          1          0      )

 cart.    s(27) = (  1.0000000  0.0000000  0.0000000 )
                  ( -0.0000000 -1.0000000  0.0000000 )
                  ( -0.0000000 -0.0000000  1.0000000 )


      isym = 28     inv. 180 deg rotation - cart. axis [1,0,0]   

 cryst.   s(28) = (     1          0          0      )
                  (     1          0         -1      )
                  (     1         -1          0      )

 cart.    s(28) = ( -1.0000000 -0.0000000  0.0000000 )
                  (  0.0000000  1.0000000  0.0000000 )
                  (  0.0000000  0.0000000  1.0000000 )


      isym = 29     inv. 180 deg rotation - cart. axis [1,1,0]   

 cryst.   s(29) = (     1          0         -1      )
                  (     0          1         -1      )
                  (     0          0         -1      )

 cart.    s(29) = (  0.0000000 -1.0000000  0.0000000 )
                  ( -1.0000000  0.0000000  0.0000000 )
                  ( -0.0000000  0.0000000  1.0000000 )


      isym = 30     inv. 180 deg rotation - cart. axis [1,-1,0]  

 cryst.   s(30) = (     0          1          0      )
                  (     1          0          0      )
                  (     0          0          1      )

 cart.    s(30) = ( -0.0000000  1.0000000  0.0000000 )
                  (  1.0000000 -0.0000000  0.0000000 )
                  (  0.0000000 -0.0000000  1.0000000 )


      isym = 31     inv.  90 deg rotation - cart. axis [0,0,-1]  

 cryst.   s(31) = (     0         -1          0      )
                  (     0         -1          1      )
                  (     1         -1          0      )

 cart.    s(31) = ( -0.0000000 -1.0000000 -0.0000000 )
                  (  1.0000000  0.0000000 -0.0000000 )
                  (  0.0000000  0.0000000 -1.0000000 )


      isym = 32     inv.  90 deg rotation - cart. axis [0,0,1]   

 cryst.   s(32) = (    -1          0          1      )
                  (    -1          0          0      )
                  (    -1          1          0      )

 cart.    s(32) = (  0.0000000  1.0000000 -0.0000000 )
                  ( -1.0000000 -0.0000000 -0.0000000 )
                  ( -0.0000000 -0.0000000 -1.0000000 )


      isym = 33     inv. 180 deg rotation - cart. axis [1,0,1]   

 cryst.   s(33) = (     1         -1          0      )
                  (     0         -1          0      )
                  (     0         -1          1      )

 cart.    s(33) = ( -0.0000000 -0.0000000 -1.0000000 )
                  ( -0.0000000  1.0000000  0.0000000 )
                  ( -1.0000000  0.0000000  0.0000000 )


      isym = 34     inv. 180 deg rotation - cart. axis [-1,0,1]  

 cryst.   s(34) = (     0          0          1      )
                  (     0          1          0      )
                  (     1          0          0      )

 cart.    s(34) = (  0.0000000 -0.0000000  1.0000000 )
                  (  0.0000000  1.0000000 -0.0000000 )
                  (  1.0000000  0.0000000 -0.0000000 )


      isym = 35     inv.  90 deg rotation - cart. axis [0,1,0]   

 cryst.   s(35) = (     0          0         -1      )
                  (     1          0         -1      )
                  (     0          1         -1      )

 cart.    s(35) = (  0.0000000  0.0000000 -1.0000000 )
                  (  0.0000000 -1.0000000  0.0000000 )
                  (  1.0000000 -0.0000000  0.0000000 )


      isym = 36     inv.  90 deg rotation - cart. axis [0,-1,0]  

 cryst.   s(36) = (    -1          1          0      )
                  (    -1          0          1      )
                  (    -1          0          0      )

 cart.    s(36) = ( -0.0000000  0.0000000  1.0000000 )
                  ( -0.0000000 -1.0000000 -0.0000000 )
                  ( -1.0000000 -0.0000000 -0.0000000 )


      isym = 37     inv. 180 deg rotation - cart. axis [0,1,1]   

 cryst.   s(37) = (    -1          0          0      )
                  (    -1          1          0      )
                  (    -1          0          1      )

 cart.    s(37) = (  1.0000000 -0.0000000  0.0000000 )
                  ( -0.0000000 -0.0000000 -1.0000000 )
                  ( -0.0000000 -1.0000000 -0.0000000 )


      isym = 38     inv. 180 deg rotation - cart. axis [0,1,-1]  

 cryst.   s(38) = (     1          0          0      )
                  (     0          0          1      )
                  (     0          1          0      )

 cart.    s(38) = (  1.0000000  0.0000000 -0.0000000 )
                  ( -0.0000000  0.0000000  1.0000000 )
                  ( -0.0000000  1.0000000  0.0000000 )


      isym = 39     inv.  90 deg rotation - cart. axis [-1,0,0]  

 cryst.   s(39) = (     0          1         -1      )
                  (     0          0         -1      )
                  (     1          0         -1      )

 cart.    s(39) = ( -1.0000000  0.0000000  0.0000000 )
                  (  0.0000000  0.0000000 -1.0000000 )
                  (  0.0000000  1.0000000 -0.0000000 )


      isym = 40     inv.  90 deg rotation - cart. axis [1,0,0]   

 cryst.   s(40) = (     0         -1          1      )
                  (     1         -1          0      )
                  (     0         -1          0      )

 cart.    s(40) = ( -1.0000000 -0.0000000 -0.0000000 )
                  (  0.0000000 -0.0000000  1.0000000 )
                  (  0.0000000 -1.0000000  0.0000000 )


      isym = 41     inv. 120 deg rotation - cart. axis [-1,-1,-1]

 cryst.   s(41) = (     0          0         -1      )
                  (    -1          0          0      )
                  (     0         -1          0      )

 cart.    s(41) = ( -0.0000000 -1.0000000  0.0000000 )
                  ( -0.0000000  0.0000000 -1.0000000 )
                  ( -1.0000000  0.0000000 -0.0000000 )


      isym = 42     inv. 120 deg rotation - cart. axis [-1,1,1]  

 cryst.   s(42) = (    -1          1          0      )
                  (     0          1         -1      )
                  (     0          1          0      )

 cart.    s(42) = (  0.0000000  1.0000000  0.0000000 )
                  (  0.0000000 -0.0000000 -1.0000000 )
                  (  1.0000000 -0.0000000 -0.0000000 )


      isym = 43     inv. 120 deg rotation - cart. axis [1,1,-1]  

 cryst.   s(43) = (     1         -1          0      )
                  (     1          0          0      )
                  (     1          0         -1      )

 cart.    s(43) = (  0.0000000 -1.0000000 -0.0000000 )
                  (  0.0000000  0.0000000  1.0000000 )
                  (  1.0000000  0.0000000  0.0000000 )


      isym = 44     inv. 120 deg rotation - cart. axis [1,-1,1]  

 cryst.   s(44) = (     0          0          1      )
                  (     0         -1          1      )
                  (    -1          0          1      )

 cart.    s(44) = ( -0.0000000  1.0000000 -0.0000000 )
                  ( -0.0000000 -0.0000000  1.0000000 )
                  ( -1.0000000 -0.0000000  0.0000000 )


      isym = 45     inv. 120 deg rotation - cart. axis [1,1,1]   

 cryst.   s(45) = (     0         -1          0      )
                  (     0          0         -1      )
                  (    -1          0          0      )

 cart.    s(45) = (  0.0000000 -0.0000000 -1.0000000 )
                  ( -1.0000000 -0.0000000  0.0000000 )
                  ( -0.0000000 -1.0000000  0.0000000 )


      isym = 46     inv. 120 deg rotation - cart. axis [-1,1,-1] 

 cryst.   s(46) = (     1          0         -1      )
                  (     1         -1          0      )
                  (     1          0          0      )

 cart.    s(46) = ( -0.0000000  0.0000000 -1.0000000 )
                  (  1.0000000  0.0000000  0.0000000 )
                  (  0.0000000  1.0000000  0.0000000 )


      isym = 47     inv. 120 deg rotation - cart. axis [1,-1,-1] 

 cryst.   s(47) = (    -1          0          1      )
                  (     0          0          1      )
                  (     0         -1          1      )

 cart.    s(47) = ( -0.0000000 -0.0000000  1.0000000 )
                  (  1.0000000 -0.0000000 -0.0000000 )
                  (  0.0000000 -1.0000000 -0.0000000 )


      isym = 48     inv. 120 deg rotation - cart. axis [-1,-1,1] 

 cryst.   s(48) = (     0          1          0      )
                  (    -1          1          0      )
                  (     0          1         -1      )

 cart.    s(48) = (  0.0000000  0.0000000  1.0000000 )
                  ( -1.0000000  0.0000000 -0.0000000 )
                  ( -0.0000000  1.0000000 -0.0000000 )


   Cartesian axes

     site n.     atom                  positions (alat units)
         1           Fe  tau(   1) = (   0.0000000   0.0000000   0.0000000  )
         2           N   tau(   2) = (   1.0787621   0.0000000   0.0000000  )
         3           N   tau(   3) = (   0.7071068   0.3716553  -0.0000000  )
         4           N   tau(   4) = (  -0.0000000  -0.0000000   1.0787621  )
         5           N   tau(   5) = (   0.7071068   0.0000000   1.0425582  )
         6           N   tau(   6) = (   0.7071068   1.0425582   0.0000000  )
         7           N   tau(   7) = (   0.3354515  -0.0000000  -0.0000000  )
         8           Cl  tau(   8) = (   0.3535534   0.3535534   1.0606602  )
         9           Cl  tau(   9) = (   0.3535534   1.0606602   1.0606602  )

   Crystallographic axes

     site n.     atom                  positions (cryst. coord.)
         1           Fe  tau(   1) = (  0.0000000  0.0000000  0.0000000  )
         2           N   tau(   2) = ( -0.7628000  0.7628000  0.7628000  )
         3           N   tau(   3) = ( -0.2372000  0.2372000  0.7628000  )
         4           N   tau(   4) = (  0.7628000  0.7628000 -0.7628000  )
         5           N   tau(   5) = (  0.2372000  1.2372000 -0.2372000  )
         6           N   tau(   6) = (  0.2372000 -0.2372000  1.2372000  )
         7           N   tau(   7) = ( -0.2372000  0.2372000  0.2372000  )
         8           Cl  tau(   8) = (  0.7500000  0.7500000 -0.2500000  )
         9           Cl  tau(   9) = (  1.2500000  0.2500000  0.2500000  )

     number of k points=    29  Marzari-Vanderbilt smearing, width (Ry)=  0.0100
                       cart. coord. in units 2pi/alat
        k(    1) = (   0.0000000   0.0000000   0.0000000), wk =   0.0019531
        k(    2) = (   0.0883883   0.0883883  -0.0883883), wk =   0.0156250
        k(    3) = (   0.1767767   0.1767767  -0.1767767), wk =   0.0156250
        k(    4) = (   0.2651650   0.2651650  -0.2651650), wk =   0.0156250
        k(    5) = (  -0.3535534  -0.3535534   0.3535534), wk =   0.0078125
        k(    6) = (   0.1767767   0.0000000   0.0000000), wk =   0.0117188
        k(    7) = (   0.2651650   0.0883883  -0.0883883), wk =   0.0468750
        k(    8) = (   0.3535534   0.1767767  -0.1767767), wk =   0.0468750
        k(    9) = (  -0.2651650  -0.4419417   0.4419417), wk =   0.0468750
        k(   10) = (  -0.1767767  -0.3535534   0.3535534), wk =   0.0468750
        k(   11) = (  -0.0883883  -0.2651650   0.2651650), wk =   0.0468750
        k(   12) = (   0.0000000  -0.1767767   0.1767767), wk =   0.0234375
        k(   13) = (   0.3535534   0.0000000   0.0000000), wk =   0.0117188
        k(   14) = (   0.4419417   0.0883883  -0.0883883), wk =   0.0468750
        k(   15) = (  -0.1767767  -0.5303301   0.5303301), wk =   0.0468750
        k(   16) = (  -0.0883883  -0.4419417   0.4419417), wk =   0.0468750
        k(   17) = (   0.0000000  -0.3535534   0.3535534), wk =   0.0234375
        k(   18) = (   0.5303301  -0.0000000   0.0000000), wk =   0.0117188
        k(   19) = (  -0.0883883  -0.6187184   0.6187184), wk =   0.0468750
        k(   20) = (   0.0000000  -0.5303301   0.5303301), wk =   0.0234375
        k(   21) = (  -0.7071068   0.0000000   0.0000000), wk =   0.0058594
        k(   22) = (   0.3535534   0.1767767   0.0000000), wk =   0.0468750
        k(   23) = (  -0.2651650  -0.4419417   0.6187184), wk =   0.0937500
        k(   24) = (  -0.1767767  -0.3535534   0.5303301), wk =   0.0468750
        k(   25) = (  -0.1767767  -0.5303301   0.7071068), wk =   0.0468750
        k(   26) = (  -0.0883883  -0.4419417   0.6187184), wk =   0.0937500
        k(   27) = (   0.0000000  -0.3535534   0.5303301), wk =   0.0468750
        k(   28) = (  -0.7071068   0.1767767  -0.0000000), wk =   0.0234375
        k(   29) = (  -0.7071068   0.3535534   0.0000000), wk =   0.0117188

                       cryst. coord.
        k(    1) = (   0.0000000   0.0000000   0.0000000), wk =   0.0019531
        k(    2) = (   0.0000000   0.0000000   0.1250000), wk =   0.0156250
        k(    3) = (   0.0000000   0.0000000   0.2500000), wk =   0.0156250
        k(    4) = (  -0.0000000  -0.0000000   0.3750000), wk =   0.0156250
        k(    5) = (  -0.0000000  -0.0000000  -0.5000000), wk =   0.0078125
        k(    6) = (   0.0000000   0.1250000   0.1250000), wk =   0.0117188
        k(    7) = (   0.0000000   0.1250000   0.2500000), wk =   0.0468750
        k(    8) = (   0.0000000   0.1250000   0.3750000), wk =   0.0468750
        k(    9) = (  -0.0000000   0.1250000  -0.5000000), wk =   0.0468750
        k(   10) = (  -0.0000000   0.1250000  -0.3750000), wk =   0.0468750
        k(   11) = (   0.0000000   0.1250000  -0.2500000), wk =   0.0468750
        k(   12) = (  -0.0000000   0.1250000  -0.1250000), wk =   0.0234375
        k(   13) = (   0.0000000   0.2500000   0.2500000), wk =   0.0117188
        k(   14) = (   0.0000000   0.2500000   0.3750000), wk =   0.0468750
        k(   15) = (   0.0000000   0.2500000  -0.5000000), wk =   0.0468750
        k(   16) = (  -0.0000000   0.2500000  -0.3750000), wk =   0.0468750
        k(   17) = (  -0.0000000   0.2500000  -0.2500000), wk =   0.0234375
        k(   18) = (   0.0000000   0.3750000   0.3750000), wk =   0.0117188
        k(   19) = (  -0.0000000   0.3750000  -0.5000000), wk =   0.0468750
        k(   20) = (   0.0000000   0.3750000  -0.3750000), wk =   0.0234375
        k(   21) = (   0.0000000  -0.5000000  -0.5000000), wk =   0.0058594
        k(   22) = (   0.1250000   0.2500000   0.3750000), wk =   0.0468750
        k(   23) = (   0.1250000   0.2500000  -0.5000000), wk =   0.0937500
        k(   24) = (   0.1250000   0.2500000  -0.3750000), wk =   0.0468750
        k(   25) = (   0.1250000   0.3750000  -0.5000000), wk =   0.0468750
        k(   26) = (   0.1250000   0.3750000  -0.3750000), wk =   0.0937500
        k(   27) = (   0.1250000   0.3750000  -0.2500000), wk =   0.0468750
        k(   28) = (   0.1250000  -0.5000000  -0.3750000), wk =   0.0234375
        k(   29) = (   0.2500000  -0.5000000  -0.2500000), wk =   0.0117188

     Dense  grid:  1077177 G-vectors     FFT dimensions: ( 144, 144, 144)

     Smooth grid:   207247 G-vectors     FFT dimensions: (  90,  90,  90)

     Dynamical RAM for                 wfc:      14.23 MB

     Dynamical RAM for     wfc (w. buffer):     839.57 MB

     Dynamical RAM for           str. fact:      49.31 MB

     Dynamical RAM for           local pot:       0.00 MB

     Dynamical RAM for          nlocal pot:      40.32 MB

     Dynamical RAM for                qrad:       7.91 MB

     Dynamical RAM for          rho,v,vnew:     235.31 MB

     Dynamical RAM for               rhoin:      78.44 MB

     Dynamical RAM for            rho*nmix:     525.97 MB

     Dynamical RAM for           G-vectors:      63.22 MB

     Dynamical RAM for          h,s,v(r/c):       0.24 MB

     Dynamical RAM for          <psi|beta>:       0.06 MB

     Dynamical RAM for                 psi:      28.46 MB

     Dynamical RAM for                hpsi:      28.46 MB

     Dynamical RAM for                spsi:      28.46 MB

     Dynamical RAM for      wfcinit/wfcrot:      28.49 MB

     Dynamical RAM for           addusdens:    3172.23 MB

     Dynamical RAM for          addusforce:    3336.64 MB

     Dynamical RAM for         addusstress:    3328.37 MB

     Estimated static dynamical RAM per process >       1.48 GB

     Estimated max dynamical RAM per process >       5.25 GB

     Atomic positions and unit cell read from directory:
     ./out/aiida.save/
 

     Check: negative core charge=   -0.000002
     Generating pointlists ...
     new r_m :   0.2064 (alat units)  2.8163 (a.u.) for type    1
     new r_m :   0.1384 (alat units)  1.8882 (a.u.) for type    2
     new r_m :   0.1384 (alat units)  1.8882 (a.u.) for type    3

     The initial density is read from file :
     ./out/aiida.save/charge-density


     negative rho (up, down):  1.489E-02 1.620E-02
     Starting wfcs from file
     Checking if some PAW data can be deallocated... 

     total cpu time spent up to now is        6.6 secs

     per-process dynamical memory:  1050.1 Mb

     Self-consistent Calculation
[tb_dev] Currently allocated     6.87E-05 Mbytes, locked:    0 /   2
[tb_pin] Currently allocated     0.00E+00 Mbytes, locked:    0 /   0

     iteration #  1     ecut=    90.00 Ry     beta= 0.20
     Davidson diagonalization with overlap

---- Real-time Memory Report at c_bands before calling an iterative solver
          1224 MiB given to the printing process from OS
          1108 MiB allocation reported by mallinfo(arena+hblkhd)
         58241 MiB available memory on the node where the printing process lives
     GPU memory used/free/total (MiB): 1780 / 14500 / 16280
------------------
     c_bands:  2 eigenvalues not converged
     c_bands:  1 eigenvalues not converged
     c_bands:  1 eigenvalues not converged
     c_bands:  1 eigenvalues not converged
     c_bands:  2 eigenvalues not converged
     c_bands:  2 eigenvalues not converged
     ethr =  1.00E-05,  avg # of iterations = 11.9

     negative rho (up, down):  1.491E-02 1.620E-02

     total cpu time spent up to now is       19.5 secs

     total energy              =    -511.45621632 Ry
     estimated scf accuracy    <       0.00344562 Ry

     total magnetization       =    12.00 Bohr mag/cell
     absolute magnetization    =    14.60 Bohr mag/cell
[tb_dev] Currently allocated     1.09E+01 Mbytes, locked:    0 /   8
[tb_pin] Currently allocated     0.00E+00 Mbytes, locked:    0 /   0

     iteration #  2     ecut=    90.00 Ry     beta= 0.20
     Davidson diagonalization with overlap

---- Real-time Memory Report at c_bands before calling an iterative solver
          2641 MiB given to the printing process from OS
         -1728 MiB allocation reported by mallinfo(arena+hblkhd)
         55644 MiB available memory on the node where the printing process lives
     GPU memory used/free/total (MiB): 7542 / 8738 / 16280
------------------
     ethr =  5.74E-06,  avg # of iterations =  9.4

     negative rho (up, down):  1.491E-02 1.619E-02

     total cpu time spent up to now is       28.6 secs

     total energy              =    -511.45613377 Ry
     estimated scf accuracy    <       0.06557182 Ry

     total magnetization       =    12.00 Bohr mag/cell
     absolute magnetization    =    14.82 Bohr mag/cell
[tb_dev] Currently allocated     1.09E+01 Mbytes, locked:    0 /   8
[tb_pin] Currently allocated     0.00E+00 Mbytes, locked:    0 /   0

     iteration #  3     ecut=    90.00 Ry     beta= 0.20
     Davidson diagonalization with overlap

---- Real-time Memory Report at c_bands before calling an iterative solver
          2725 MiB given to the printing process from OS
         -1707 MiB allocation reported by mallinfo(arena+hblkhd)
         55623 MiB available memory on the node where the printing process lives
     GPU memory used/free/total (MiB): 7542 / 8738 / 16280
------------------
     ethr =  5.74E-06,  avg # of iterations =  4.6

     negative rho (up, down):  1.490E-02 1.619E-02

     total cpu time spent up to now is       35.4 secs

     total energy              =    -511.45730534 Ry
     estimated scf accuracy    <       0.00644379 Ry

     total magnetization       =    12.00 Bohr mag/cell
     absolute magnetization    =    14.93 Bohr mag/cell
[tb_dev] Currently allocated     1.09E+01 Mbytes, locked:    0 /   8
[tb_pin] Currently allocated     0.00E+00 Mbytes, locked:    0 /   0

     iteration #  4     ecut=    90.00 Ry     beta= 0.20
     Davidson diagonalization with overlap

---- Real-time Memory Report at c_bands before calling an iterative solver
          2802 MiB given to the printing process from OS
         -1692 MiB allocation reported by mallinfo(arena+hblkhd)
         55609 MiB available memory on the node where the printing process lives
     GPU memory used/free/total (MiB): 7542 / 8738 / 16280
------------------
     ethr =  5.74E-06,  avg # of iterations =  1.8

     negative rho (up, down):  1.493E-02 1.619E-02

     total cpu time spent up to now is       41.4 secs

     total energy              =    -511.45813394 Ry
     estimated scf accuracy    <       0.00643553 Ry

     total magnetization       =    12.00 Bohr mag/cell
     absolute magnetization    =    14.89 Bohr mag/cell
[tb_dev] Currently allocated     1.09E+01 Mbytes, locked:    0 /   8
[tb_pin] Currently allocated     0.00E+00 Mbytes, locked:    0 /   0

     iteration #  5     ecut=    90.00 Ry     beta= 0.20
     Davidson diagonalization with overlap

---- Real-time Memory Report at c_bands before calling an iterative solver
          2887 MiB given to the printing process from OS
         -1672 MiB allocation reported by mallinfo(arena+hblkhd)
         55590 MiB available memory on the node where the printing process lives
     GPU memory used/free/total (MiB): 7542 / 8738 / 16280
------------------
     ethr =  5.74E-06,  avg # of iterations =  3.1

     negative rho (up, down):  1.486E-02 1.621E-02

     total cpu time spent up to now is       47.9 secs

     total energy              =    -511.45604908 Ry
     estimated scf accuracy    <       0.01485309 Ry

     total magnetization       =    12.00 Bohr mag/cell
     absolute magnetization    =    14.99 Bohr mag/cell
[tb_dev] Currently allocated     1.09E+01 Mbytes, locked:    0 /   8
[tb_pin] Currently allocated     0.00E+00 Mbytes, locked:    0 /   0

     iteration #  6     ecut=    90.00 Ry     beta= 0.20
     Davidson diagonalization with overlap

---- Real-time Memory Report at c_bands before calling an iterative solver
          2967 MiB given to the printing process from OS
         -1657 MiB allocation reported by mallinfo(arena+hblkhd)
         55574 MiB available memory on the node where the printing process lives
     GPU memory used/free/total (MiB): 7542 / 8738 / 16280
------------------
     c_bands:  3 eigenvalues not converged
     c_bands:  3 eigenvalues not converged
     ethr =  5.74E-06,  avg # of iterations =  7.6

     negative rho (up, down):  1.484E-02 1.621E-02

     total cpu time spent up to now is       57.2 secs

     total energy              =    -511.45918552 Ry
     estimated scf accuracy    <       0.00596135 Ry

     total magnetization       =    12.00 Bohr mag/cell
     absolute magnetization    =    14.64 Bohr mag/cell
[tb_dev] Currently allocated     1.09E+01 Mbytes, locked:    0 /   8
[tb_pin] Currently allocated     0.00E+00 Mbytes, locked:    0 /   0

     iteration #  7     ecut=    90.00 Ry     beta= 0.20
     Davidson diagonalization with overlap

---- Real-time Memory Report at c_bands before calling an iterative solver
          3052 MiB given to the printing process from OS
         -1636 MiB allocation reported by mallinfo(arena+hblkhd)
         55552 MiB available memory on the node where the printing process lives
     GPU memory used/free/total (MiB): 7542 / 8738 / 16280
------------------
     ethr =  5.74E-06,  avg # of iterations =  3.3

     negative rho (up, down):  1.484E-02 1.621E-02

     total cpu time spent up to now is       63.7 secs

     total energy              =    -511.45895202 Ry
     estimated scf accuracy    <       0.00660957 Ry

     total magnetization       =    12.00 Bohr mag/cell
     absolute magnetization    =    14.60 Bohr mag/cell
[tb_dev] Currently allocated     1.09E+01 Mbytes, locked:    0 /   8
[tb_pin] Currently allocated     0.00E+00 Mbytes, locked:    0 /   0

     iteration #  8     ecut=    90.00 Ry     beta= 0.20
     Davidson diagonalization with overlap

---- Real-time Memory Report at c_bands before calling an iterative solver
          3130 MiB given to the printing process from OS
         -1622 MiB allocation reported by mallinfo(arena+hblkhd)
         55539 MiB available memory on the node where the printing process lives
     GPU memory used/free/total (MiB): 7542 / 8738 / 16280
------------------
     ethr =  5.74E-06,  avg # of iterations =  4.1

     negative rho (up, down):  1.485E-02 1.622E-02

     total cpu time spent up to now is       70.6 secs

     total energy              =    -511.45846564 Ry
     estimated scf accuracy    <       0.01289758 Ry

     total magnetization       =    12.00 Bohr mag/cell
     absolute magnetization    =    14.56 Bohr mag/cell
[tb_dev] Currently allocated     1.09E+01 Mbytes, locked:    0 /   8
[tb_pin] Currently allocated     0.00E+00 Mbytes, locked:    0 /   0

     iteration #  9     ecut=    90.00 Ry     beta= 0.20
     Davidson diagonalization with overlap

---- Real-time Memory Report at c_bands before calling an iterative solver
          3208 MiB given to the printing process from OS
         -1607 MiB allocation reported by mallinfo(arena+hblkhd)
         55524 MiB available memory on the node where the printing process lives
     GPU memory used/free/total (MiB): 7542 / 8738 / 16280
------------------
     ethr =  5.74E-06,  avg # of iterations =  4.1

     negative rho (up, down):  1.484E-02 1.622E-02

     total cpu time spent up to now is       77.5 secs

     total energy              =    -511.45913816 Ry
     estimated scf accuracy    <       0.00504158 Ry

     total magnetization       =    12.00 Bohr mag/cell
     absolute magnetization    =    14.53 Bohr mag/cell
[tb_dev] Currently allocated     1.09E+01 Mbytes, locked:    0 /   8
[tb_pin] Currently allocated     0.00E+00 Mbytes, locked:    0 /   0

     iteration # 10     ecut=    90.00 Ry     beta= 0.20
     Davidson diagonalization with overlap

---- Real-time Memory Report at c_bands before calling an iterative solver
          3244 MiB given to the printing process from OS
         -1593 MiB allocation reported by mallinfo(arena+hblkhd)
         55512 MiB available memory on the node where the printing process lives
     GPU memory used/free/total (MiB): 7542 / 8738 / 16280
------------------
     ethr =  5.74E-06,  avg # of iterations =  4.3

     negative rho (up, down):  1.485E-02 1.623E-02

     total cpu time spent up to now is       84.6 secs

     total energy              =    -511.46001302 Ry
     estimated scf accuracy    <       0.00258055 Ry

     total magnetization       =    12.00 Bohr mag/cell
     absolute magnetization    =    14.56 Bohr mag/cell
[tb_dev] Currently allocated     1.09E+01 Mbytes, locked:    0 /   8
[tb_pin] Currently allocated     0.00E+00 Mbytes, locked:    0 /   0

     iteration # 11     ecut=    90.00 Ry     beta= 0.20
     Davidson diagonalization with overlap

---- Real-time Memory Report at c_bands before calling an iterative solver
          3267 MiB given to the printing process from OS
         -1591 MiB allocation reported by mallinfo(arena+hblkhd)
         55513 MiB available memory on the node where the printing process lives
     GPU memory used/free/total (MiB): 7542 / 8738 / 16280
------------------
     ethr =  4.30E-06,  avg # of iterations =  5.5

     negative rho (up, down):  1.485E-02 1.624E-02

     total cpu time spent up to now is       92.1 secs

     total energy              =    -511.46084467 Ry
     estimated scf accuracy    <       0.00099798 Ry

     total magnetization       =    12.00 Bohr mag/cell
     absolute magnetization    =    14.75 Bohr mag/cell
[tb_dev] Currently allocated     1.09E+01 Mbytes, locked:    0 /   8
[tb_pin] Currently allocated     0.00E+00 Mbytes, locked:    0 /   0

     iteration # 12     ecut=    90.00 Ry     beta= 0.20
     Davidson diagonalization with overlap

---- Real-time Memory Report at c_bands before calling an iterative solver
          3289 MiB given to the printing process from OS
         -1589 MiB allocation reported by mallinfo(arena+hblkhd)
         55506 MiB available memory on the node where the printing process lives
     GPU memory used/free/total (MiB): 7542 / 8738 / 16280
------------------
     c_bands:  1 eigenvalues not converged
     c_bands:  1 eigenvalues not converged
     c_bands:  1 eigenvalues not converged
     c_bands:  1 eigenvalues not converged
     ethr =  1.66E-06,  avg # of iterations =  9.2

     negative rho (up, down):  1.493E-02 1.616E-02

     total cpu time spent up to now is      101.1 secs

     total energy              =    -511.45070759 Ry
     estimated scf accuracy    <       0.00245972 Ry

     total magnetization       =    12.00 Bohr mag/cell
     absolute magnetization    =    14.88 Bohr mag/cell
[tb_dev] Currently allocated     1.09E+01 Mbytes, locked:    0 /   8
[tb_pin] Currently allocated     0.00E+00 Mbytes, locked:    0 /   0

     iteration # 13     ecut=    90.00 Ry     beta= 0.20
     Davidson diagonalization with overlap

---- Real-time Memory Report at c_bands before calling an iterative solver
          3310 MiB given to the printing process from OS
         -1587 MiB allocation reported by mallinfo(arena+hblkhd)
         55505 MiB available memory on the node where the printing process lives
     GPU memory used/free/total (MiB): 7542 / 8738 / 16280
------------------
     c_bands:  1 eigenvalues not converged
     c_bands:  2 eigenvalues not converged
     ethr =  1.66E-06,  avg # of iterations = 10.0

     negative rho (up, down):  1.492E-02 1.614E-02

     total cpu time spent up to now is      112.7 secs

     total energy              =    -511.45794767 Ry
     estimated scf accuracy    <       0.02592566 Ry

     total magnetization       =    12.00 Bohr mag/cell
     absolute magnetization    =    15.13 Bohr mag/cell
[tb_dev] Currently allocated     1.09E+01 Mbytes, locked:    0 /   8
[tb_pin] Currently allocated     0.00E+00 Mbytes, locked:    0 /   0

     iteration # 14     ecut=    90.00 Ry     beta= 0.20
     Davidson diagonalization with overlap

---- Real-time Memory Report at c_bands before calling an iterative solver
          3332 MiB given to the printing process from OS
         -1585 MiB allocation reported by mallinfo(arena+hblkhd)
         55504 MiB available memory on the node where the printing process lives
     GPU memory used/free/total (MiB): 7542 / 8738 / 16280
------------------
     ethr =  1.66E-06,  avg # of iterations =  5.4

     negative rho (up, down):  1.492E-02 1.615E-02

     total cpu time spent up to now is      120.2 secs

     total energy              =    -511.45891965 Ry
     estimated scf accuracy    <       0.01741824 Ry

     total magnetization       =    12.00 Bohr mag/cell
     absolute magnetization    =    15.07 Bohr mag/cell
[tb_dev] Currently allocated     1.09E+01 Mbytes, locked:    0 /   8
[tb_pin] Currently allocated     0.00E+00 Mbytes, locked:    0 /   0

     iteration # 15     ecut=    90.00 Ry     beta= 0.20
     Davidson diagonalization with overlap

---- Real-time Memory Report at c_bands before calling an iterative solver
          3354 MiB given to the printing process from OS
         -1583 MiB allocation reported by mallinfo(arena+hblkhd)
         55501 MiB available memory on the node where the printing process lives
     GPU memory used/free/total (MiB): 7542 / 8738 / 16280
------------------
     ethr =  1.66E-06,  avg # of iterations =  3.0

     negative rho (up, down):  1.490E-02 1.618E-02

     total cpu time spent up to now is      126.6 secs

     total energy              =    -511.45821094 Ry
     estimated scf accuracy    <       0.01688906 Ry

     total magnetization       =    12.00 Bohr mag/cell
     absolute magnetization    =    15.06 Bohr mag/cell
[tb_dev] Currently allocated     1.09E+01 Mbytes, locked:    0 /   8
[tb_pin] Currently allocated     0.00E+00 Mbytes, locked:    0 /   0

     iteration # 16     ecut=    90.00 Ry     beta= 0.20
     Davidson diagonalization with overlap

---- Real-time Memory Report at c_bands before calling an iterative solver
          3376 MiB given to the printing process from OS
         -1582 MiB allocation reported by mallinfo(arena+hblkhd)
         55499 MiB available memory on the node where the printing process lives
     GPU memory used/free/total (MiB): 7542 / 8738 / 16280
------------------
     ethr =  1.66E-06,  avg # of iterations =  7.4

     negative rho (up, down):  1.487E-02 1.621E-02

     total cpu time spent up to now is      135.8 secs

     total energy              =    -511.45999501 Ry
     estimated scf accuracy    <       0.01155258 Ry

     total magnetization       =    12.00 Bohr mag/cell
     absolute magnetization    =    15.01 Bohr mag/cell
[tb_dev] Currently allocated     1.09E+01 Mbytes, locked:    0 /   8
[tb_pin] Currently allocated     0.00E+00 Mbytes, locked:    0 /   0

     iteration # 17     ecut=    90.00 Ry     beta= 0.20
     Davidson diagonalization with overlap

---- Real-time Memory Report at c_bands before calling an iterative solver
          3404 MiB given to the printing process from OS
         -1580 MiB allocation reported by mallinfo(arena+hblkhd)
         55497 MiB available memory on the node where the printing process lives
     GPU memory used/free/total (MiB): 7542 / 8738 / 16280
------------------
     ethr =  1.66E-06,  avg # of iterations =  5.4

     negative rho (up, down):  1.486E-02 1.624E-02

     total cpu time spent up to now is      143.9 secs

     total energy              =    -511.46086154 Ry
     estimated scf accuracy    <       0.00645654 Ry

     total magnetization       =    12.00 Bohr mag/cell
     absolute magnetization    =    14.97 Bohr mag/cell
[tb_dev] Currently allocated     1.09E+01 Mbytes, locked:    0 /   8
[tb_pin] Currently allocated     0.00E+00 Mbytes, locked:    0 /   0

     iteration # 18     ecut=    90.00 Ry     beta= 0.20
     Davidson diagonalization with overlap

---- Real-time Memory Report at c_bands before calling an iterative solver
          3419 MiB given to the printing process from OS
         -1578 MiB allocation reported by mallinfo(arena+hblkhd)
         55498 MiB available memory on the node where the printing process lives
     GPU memory used/free/total (MiB): 7542 / 8738 / 16280
------------------
     c_bands:  1 eigenvalues not converged
     ethr =  1.66E-06,  avg # of iterations =  7.6

     negative rho (up, down):  1.486E-02 1.623E-02

     total cpu time spent up to now is      152.8 secs

     total energy              =    -511.46201359 Ry
     estimated scf accuracy    <       0.00361300 Ry

     total magnetization       =    12.00 Bohr mag/cell
     absolute magnetization    =    14.94 Bohr mag/cell
[tb_dev] Currently allocated     1.09E+01 Mbytes, locked:    0 /   8
[tb_pin] Currently allocated     0.00E+00 Mbytes, locked:    0 /   0

     iteration # 19     ecut=    90.00 Ry     beta= 0.20
     Davidson diagonalization with overlap

---- Real-time Memory Report at c_bands before calling an iterative solver
          3439 MiB given to the printing process from OS
         -1576 MiB allocation reported by mallinfo(arena+hblkhd)
         55496 MiB available memory on the node where the printing process lives
     GPU memory used/free/total (MiB): 7542 / 8738 / 16280
------------------
     ethr =  1.66E-06,  avg # of iterations =  2.7

     negative rho (up, down):  1.483E-02 1.627E-02

     total cpu time spent up to now is      159.1 secs

     total energy              =    -511.46186583 Ry
     estimated scf accuracy    <       0.00357953 Ry

     total magnetization       =    12.00 Bohr mag/cell
     absolute magnetization    =    14.93 Bohr mag/cell
[tb_dev] Currently allocated     1.09E+01 Mbytes, locked:    0 /   8
[tb_pin] Currently allocated     0.00E+00 Mbytes, locked:    0 /   0

     iteration # 20     ecut=    90.00 Ry     beta= 0.20
     Davidson diagonalization with overlap

---- Real-time Memory Report at c_bands before calling an iterative solver
          3439 MiB given to the printing process from OS
         -1574 MiB allocation reported by mallinfo(arena+hblkhd)
         55495 MiB available memory on the node where the printing process lives
     GPU memory used/free/total (MiB): 7542 / 8738 / 16280
------------------
     ethr =  1.66E-06,  avg # of iterations =  6.5

     negative rho (up, down):  1.482E-02 1.627E-02

     total cpu time spent up to now is      167.9 secs

     total energy              =    -511.46299296 Ry
     estimated scf accuracy    <       0.00093747 Ry

     total magnetization       =    12.00 Bohr mag/cell
     absolute magnetization    =    14.83 Bohr mag/cell
[tb_dev] Currently allocated     1.09E+01 Mbytes, locked:    0 /   8
[tb_pin] Currently allocated     0.00E+00 Mbytes, locked:    0 /   0

     iteration # 21     ecut=    90.00 Ry     beta= 0.20
     Davidson diagonalization with overlap

---- Real-time Memory Report at c_bands before calling an iterative solver
          3443 MiB given to the printing process from OS
         -1572 MiB allocation reported by mallinfo(arena+hblkhd)
         55491 MiB available memory on the node where the printing process lives
     GPU memory used/free/total (MiB): 7542 / 8738 / 16280
------------------
     c_bands:  1 eigenvalues not converged
     ethr =  1.56E-06,  avg # of iterations =  5.1

     negative rho (up, down):  1.483E-02 1.627E-02

     total cpu time spent up to now is      175.7 secs

     total energy              =    -511.46380528 Ry
     estimated scf accuracy    <       0.00151160 Ry

     total magnetization       =    12.00 Bohr mag/cell
     absolute magnetization    =    14.80 Bohr mag/cell
[tb_dev] Currently allocated     1.09E+01 Mbytes, locked:    0 /   8
[tb_pin] Currently allocated     0.00E+00 Mbytes, locked:    0 /   0

     iteration # 22     ecut=    90.00 Ry     beta= 0.20
     Davidson diagonalization with overlap

---- Real-time Memory Report at c_bands before calling an iterative solver
          3443 MiB given to the printing process from OS
         -1571 MiB allocation reported by mallinfo(arena+hblkhd)
         55491 MiB available memory on the node where the printing process lives
     GPU memory used/free/total (MiB): 7542 / 8738 / 16280
------------------
     ethr =  1.56E-06,  avg # of iterations =  1.5

     negative rho (up, down):  1.481E-02 1.635E-02

     total cpu time spent up to now is      181.6 secs

     total energy              =    -511.44585504 Ry
     estimated scf accuracy    <       0.00126375 Ry

     total magnetization       =    12.00 Bohr mag/cell
     absolute magnetization    =    14.80 Bohr mag/cell
[tb_dev] Currently allocated     1.09E+01 Mbytes, locked:    0 /   8
[tb_pin] Currently allocated     0.00E+00 Mbytes, locked:    0 /   0

     iteration # 23     ecut=    90.00 Ry     beta= 0.20
     Davidson diagonalization with overlap

---- Real-time Memory Report at c_bands before calling an iterative solver
          3447 MiB given to the printing process from OS
         -1546 MiB allocation reported by mallinfo(arena+hblkhd)
         55483 MiB available memory on the node where the printing process lives
     GPU memory used/free/total (MiB): 7542 / 8738 / 16280
------------------
     c_bands:  2 eigenvalues not converged
     c_bands:  2 eigenvalues not converged
     c_bands:  1 eigenvalues not converged
     c_bands:  5 eigenvalues not converged
     c_bands:  2 eigenvalues not converged
     c_bands:  2 eigenvalues not converged
     c_bands:  2 eigenvalues not converged
     c_bands:  2 eigenvalues not converged
     c_bands:  3 eigenvalues not converged
     c_bands:  2 eigenvalues not converged
     c_bands:  1 eigenvalues not converged
     c_bands:  3 eigenvalues not converged
     c_bands:  3 eigenvalues not converged
     c_bands:  3 eigenvalues not converged
     c_bands:  3 eigenvalues not converged
     c_bands:  5 eigenvalues not converged
     c_bands:  3 eigenvalues not converged
     c_bands:  1 eigenvalues not converged
     c_bands:  2 eigenvalues not converged
     c_bands:  4 eigenvalues not converged
     c_bands:  2 eigenvalues not converged
     c_bands:  5 eigenvalues not converged
     c_bands:  1 eigenvalues not converged
     c_bands:  4 eigenvalues not converged
     c_bands:  5 eigenvalues not converged
     c_bands:  2 eigenvalues not converged
     c_bands:  3 eigenvalues not converged
     c_bands:  1 eigenvalues not converged
     c_bands:  1 eigenvalues not converged
     c_bands:  2 eigenvalues not converged
     c_bands:  2 eigenvalues not converged
     c_bands:  1 eigenvalues not converged
     c_bands:  1 eigenvalues not converged
     c_bands:  1 eigenvalues not converged
     c_bands:  4 eigenvalues not converged
     c_bands:  2 eigenvalues not converged
     c_bands:  1 eigenvalues not converged
     c_bands:  1 eigenvalues not converged
     c_bands:  1 eigenvalues not converged
     ethr =  1.56E-06,  avg # of iterations = 23.1

     negative rho (up, down):  1.475E-02 1.636E-02

     total cpu time spent up to now is      201.2 secs

     total energy              =    -511.44127383 Ry
     estimated scf accuracy    <       0.52601928 Ry

     total magnetization       =    12.00 Bohr mag/cell
     absolute magnetization    =    14.18 Bohr mag/cell
[tb_dev] Currently allocated     1.09E+01 Mbytes, locked:    0 /   8
[tb_pin] Currently allocated     0.00E+00 Mbytes, locked:    0 /   0

     iteration # 24     ecut=    90.00 Ry     beta= 0.20
     Davidson diagonalization with overlap

---- Real-time Memory Report at c_bands before calling an iterative solver
          3447 MiB given to the printing process from OS
         -1544 MiB allocation reported by mallinfo(arena+hblkhd)
         55488 MiB available memory on the node where the printing process lives
     GPU memory used/free/total (MiB): 7542 / 8738 / 16280
------------------
     c_bands:  1 eigenvalues not converged
     c_bands:  1 eigenvalues not converged
     c_bands:  1 eigenvalues not converged
     c_bands:  1 eigenvalues not converged
     c_bands:  4 eigenvalues not converged
     c_bands:  2 eigenvalues not converged
     c_bands:  2 eigenvalues not converged
     c_bands:  5 eigenvalues not converged
     c_bands:  5 eigenvalues not converged
     c_bands:  4 eigenvalues not converged
     c_bands:  4 eigenvalues not converged
     c_bands:  4 eigenvalues not converged
     c_bands:  1 eigenvalues not converged
     c_bands:  2 eigenvalues not converged
     c_bands:  3 eigenvalues not converged
     c_bands:  1 eigenvalues not converged
     c_bands:  4 eigenvalues not converged
     c_bands:  1 eigenvalues not converged
     c_bands:  2 eigenvalues not converged
     c_bands:  1 eigenvalues not converged
     c_bands:  5 eigenvalues not converged
     ethr =  1.56E-06,  avg # of iterations = 20.7

     negative rho (up, down):  1.481E-02 1.626E-02

     total cpu time spent up to now is      221.0 secs

     total energy              =    -511.41545597 Ry
     estimated scf accuracy    <       0.03837732 Ry

     total magnetization       =    12.00 Bohr mag/cell
     absolute magnetization    =    14.59 Bohr mag/cell
[tb_dev] Currently allocated     1.09E+01 Mbytes, locked:    0 /   8
[tb_pin] Currently allocated     0.00E+00 Mbytes, locked:    0 /   0

     iteration # 25     ecut=    90.00 Ry     beta= 0.20
     Davidson diagonalization with overlap

---- Real-time Memory Report at c_bands before calling an iterative solver
          3447 MiB given to the printing process from OS
         -1565 MiB allocation reported by mallinfo(arena+hblkhd)
         55473 MiB available memory on the node where the printing process lives
     GPU memory used/free/total (MiB): 7542 / 8738 / 16280
------------------
     c_bands:  4 eigenvalues not converged
     c_bands:  2 eigenvalues not converged
     c_bands:  1 eigenvalues not converged
     c_bands:  5 eigenvalues not converged
     c_bands:  1 eigenvalues not converged
     c_bands:  3 eigenvalues not converged
     c_bands:  1 eigenvalues not converged
     c_bands:  2 eigenvalues not converged
     c_bands:  1 eigenvalues not converged
     c_bands:  2 eigenvalues not converged
     c_bands:  2 eigenvalues not converged
     c_bands:  1 eigenvalues not converged
     c_bands:  1 eigenvalues not converged
     c_bands:  1 eigenvalues not converged
     c_bands:  5 eigenvalues not converged
     c_bands:  4 eigenvalues not converged
     c_bands:  4 eigenvalues not converged
     c_bands:  3 eigenvalues not converged
     c_bands:  5 eigenvalues not converged
     c_bands:  2 eigenvalues not converged
     c_bands:  1 eigenvalues not converged
     c_bands:  5 eigenvalues not converged
     c_bands:  5 eigenvalues not converged
     c_bands:  3 eigenvalues not converged
     c_bands:  3 eigenvalues not converged
     c_bands:  1 eigenvalues not converged
     c_bands:  5 eigenvalues not converged
     c_bands:  1 eigenvalues not converged
     c_bands:  4 eigenvalues not converged
     c_bands:  2 eigenvalues not converged
     c_bands:  5 eigenvalues not converged
     c_bands:  2 eigenvalues not converged
     ethr =  1.56E-06,  avg # of iterations = 22.8

     negative rho (up, down):  1.485E-02 1.621E-02

     total cpu time spent up to now is      241.7 secs

     total energy              =    -511.45468716 Ry
     estimated scf accuracy    <       0.02064604 Ry

     total magnetization       =    12.00 Bohr mag/cell
     absolute magnetization    =    14.38 Bohr mag/cell
[tb_dev] Currently allocated     1.09E+01 Mbytes, locked:    0 /   8
[tb_pin] Currently allocated     0.00E+00 Mbytes, locked:    0 /   0

     iteration # 26     ecut=    90.00 Ry     beta= 0.20
     Davidson diagonalization with overlap

---- Real-time Memory Report at c_bands before calling an iterative solver
          3447 MiB given to the printing process from OS
         -1563 MiB allocation reported by mallinfo(arena+hblkhd)
         55478 MiB available memory on the node where the printing process lives
     GPU memory used/free/total (MiB): 7542 / 8738 / 16280
------------------
     c_bands:  2 eigenvalues not converged
     c_bands:  1 eigenvalues not converged
     c_bands:  1 eigenvalues not converged
     c_bands:  2 eigenvalues not converged
     c_bands:  1 eigenvalues not converged
     c_bands:  1 eigenvalues not converged
     c_bands:  1 eigenvalues not converged
     c_bands:  1 eigenvalues not converged
     c_bands:  1 eigenvalues not converged
     c_bands:  2 eigenvalues not converged
     c_bands:  1 eigenvalues not converged
     c_bands:  2 eigenvalues not converged
     c_bands:  2 eigenvalues not converged
     c_bands:  1 eigenvalues not converged
     c_bands:  4 eigenvalues not converged
     ethr =  1.56E-06,  avg # of iterations = 15.0

     negative rho (up, down):  1.485E-02 1.624E-02

     total cpu time spent up to now is      254.2 secs

     total energy              =    -511.45494544 Ry
     estimated scf accuracy    <       0.01820577 Ry

     total magnetization       =    12.00 Bohr mag/cell
     absolute magnetization    =    14.41 Bohr mag/cell
[tb_dev] Currently allocated     1.09E+01 Mbytes, locked:    0 /   8
[tb_pin] Currently allocated     0.00E+00 Mbytes, locked:    0 /   0

     iteration # 27     ecut=    90.00 Ry     beta= 0.20
     Davidson diagonalization with overlap

---- Real-time Memory Report at c_bands before calling an iterative solver
          3448 MiB given to the printing process from OS
         -1562 MiB allocation reported by mallinfo(arena+hblkhd)
         55477 MiB available memory on the node where the printing process lives
     GPU memory used/free/total (MiB): 7542 / 8738 / 16280
------------------
     c_bands:  2 eigenvalues not converged
     c_bands:  2 eigenvalues not converged
     c_bands:  1 eigenvalues not converged
     c_bands:  3 eigenvalues not converged
     c_bands:  1 eigenvalues not converged
     c_bands:  4 eigenvalues not converged
     c_bands:  5 eigenvalues not converged
     c_bands:  1 eigenvalues not converged
     c_bands:  2 eigenvalues not converged
     c_bands:  2 eigenvalues not converged
     ethr =  1.56E-06,  avg # of iterations = 11.6

     negative rho (up, down):  1.489E-02 1.621E-02

     total cpu time spent up to now is      265.8 secs

     total energy              =    -511.45934558 Ry
     estimated scf accuracy    <       0.00336374 Ry

     total magnetization       =    12.00 Bohr mag/cell
     absolute magnetization    =    14.56 Bohr mag/cell
[tb_dev] Currently allocated     1.09E+01 Mbytes, locked:    0 /   8
[tb_pin] Currently allocated     0.00E+00 Mbytes, locked:    0 /   0

     iteration # 28     ecut=    90.00 Ry     beta= 0.20
     Davidson diagonalization with overlap

---- Real-time Memory Report at c_bands before calling an iterative solver
          3456 MiB given to the printing process from OS
         -1560 MiB allocation reported by mallinfo(arena+hblkhd)
         55475 MiB available memory on the node where the printing process lives
     GPU memory used/free/total (MiB): 7542 / 8738 / 16280
------------------
     c_bands:  1 eigenvalues not converged
     c_bands:  1 eigenvalues not converged
     c_bands:  1 eigenvalues not converged
     c_bands:  1 eigenvalues not converged
     c_bands:  1 eigenvalues not converged
     c_bands:  1 eigenvalues not converged
     c_bands:  2 eigenvalues not converged
     ethr =  1.56E-06,  avg # of iterations =  8.2

     negative rho (up, down):  1.488E-02 1.620E-02

     total cpu time spent up to now is      274.9 secs

     total energy              =    -511.45721521 Ry
     estimated scf accuracy    <       0.00611972 Ry

     total magnetization       =    12.00 Bohr mag/cell
     absolute magnetization    =    14.92 Bohr mag/cell
[tb_dev] Currently allocated     1.09E+01 Mbytes, locked:    0 /   8
[tb_pin] Currently allocated     0.00E+00 Mbytes, locked:    0 /   0

     iteration # 29     ecut=    90.00 Ry     beta= 0.20
     Davidson diagonalization with overlap

---- Real-time Memory Report at c_bands before calling an iterative solver
          3456 MiB given to the printing process from OS
         -1558 MiB allocation reported by mallinfo(arena+hblkhd)
         55473 MiB available memory on the node where the printing process lives
     GPU memory used/free/total (MiB): 7542 / 8738 / 16280
------------------
     c_bands:  1 eigenvalues not converged
     c_bands:  1 eigenvalues not converged
     ethr =  1.56E-06,  avg # of iterations =  7.6

     negative rho (up, down):  1.489E-02 1.620E-02

     total cpu time spent up to now is      284.3 secs

     total energy              =    -511.45928450 Ry
     estimated scf accuracy    <       0.00218427 Ry

     total magnetization       =    12.00 Bohr mag/cell
     absolute magnetization    =    14.83 Bohr mag/cell
[tb_dev] Currently allocated     1.09E+01 Mbytes, locked:    0 /   8
[tb_pin] Currently allocated     0.00E+00 Mbytes, locked:    0 /   0

     iteration # 30     ecut=    90.00 Ry     beta= 0.20
     Davidson diagonalization with overlap

---- Real-time Memory Report at c_bands before calling an iterative solver
          3460 MiB given to the printing process from OS
         -1556 MiB allocation reported by mallinfo(arena+hblkhd)
         55473 MiB available memory on the node where the printing process lives
     GPU memory used/free/total (MiB): 7542 / 8738 / 16280
------------------
     ethr =  1.56E-06,  avg # of iterations =  3.8

     negative rho (up, down):  1.489E-02 1.619E-02

     total cpu time spent up to now is      291.0 secs

     total energy              =    -511.45971477 Ry
     estimated scf accuracy    <       0.00240887 Ry

     total magnetization       =    12.00 Bohr mag/cell
     absolute magnetization    =    14.81 Bohr mag/cell
[tb_dev] Currently allocated     1.09E+01 Mbytes, locked:    0 /   8
[tb_pin] Currently allocated     0.00E+00 Mbytes, locked:    0 /   0

     iteration # 31     ecut=    90.00 Ry     beta= 0.20
     Davidson diagonalization with overlap

---- Real-time Memory Report at c_bands before calling an iterative solver
          3461 MiB given to the printing process from OS
         -1554 MiB allocation reported by mallinfo(arena+hblkhd)
         55472 MiB available memory on the node where the printing process lives
     GPU memory used/free/total (MiB): 7542 / 8738 / 16280
------------------
     ethr =  1.56E-06,  avg # of iterations =  5.4

     negative rho (up, down):  1.488E-02 1.621E-02

     total cpu time spent up to now is      298.6 secs

     total energy              =    -511.46024987 Ry
     estimated scf accuracy    <       0.00501798 Ry

     total magnetization       =    12.00 Bohr mag/cell
     absolute magnetization    =    14.88 Bohr mag/cell
[tb_dev] Currently allocated     1.09E+01 Mbytes, locked:    0 /   8
[tb_pin] Currently allocated     0.00E+00 Mbytes, locked:    0 /   0

     iteration # 32     ecut=    90.00 Ry     beta= 0.20
     Davidson diagonalization with overlap

---- Real-time Memory Report at c_bands before calling an iterative solver
          3463 MiB given to the printing process from OS
         -1552 MiB allocation reported by mallinfo(arena+hblkhd)
         55468 MiB available memory on the node where the printing process lives
     GPU memory used/free/total (MiB): 7542 / 8738 / 16280
------------------
     c_bands:  1 eigenvalues not converged
     ethr =  1.56E-06,  avg # of iterations =  5.6

     negative rho (up, down):  1.487E-02 1.623E-02

     total cpu time spent up to now is      306.4 secs

     total energy              =    -511.45976770 Ry
     estimated scf accuracy    <       0.00542604 Ry

     total magnetization       =    12.00 Bohr mag/cell
     absolute magnetization    =    14.91 Bohr mag/cell
[tb_dev] Currently allocated     1.09E+01 Mbytes, locked:    0 /   8
[tb_pin] Currently allocated     0.00E+00 Mbytes, locked:    0 /   0

     iteration # 33     ecut=    90.00 Ry     beta= 0.20
     Davidson diagonalization with overlap

---- Real-time Memory Report at c_bands before calling an iterative solver
          3465 MiB given to the printing process from OS
         -1551 MiB allocation reported by mallinfo(arena+hblkhd)
         55469 MiB available memory on the node where the printing process lives
     GPU memory used/free/total (MiB): 7542 / 8738 / 16280
------------------
     c_bands:  1 eigenvalues not converged
     c_bands:  1 eigenvalues not converged
     c_bands:  1 eigenvalues not converged
     c_bands:  1 eigenvalues not converged
     c_bands:  5 eigenvalues not converged
     c_bands:  3 eigenvalues not converged
     c_bands:  4 eigenvalues not converged
     c_bands:  1 eigenvalues not converged
     c_bands:  3 eigenvalues not converged
     c_bands:  2 eigenvalues not converged
     ethr =  1.56E-06,  avg # of iterations = 11.8

     negative rho (up, down):  1.485E-02 1.627E-02

     total cpu time spent up to now is      317.7 secs

     total energy              =    -511.46086539 Ry
     estimated scf accuracy    <       0.00873375 Ry

     total magnetization       =    12.00 Bohr mag/cell
     absolute magnetization    =    15.03 Bohr mag/cell
[tb_dev] Currently allocated     1.09E+01 Mbytes, locked:    0 /   8
[tb_pin] Currently allocated     0.00E+00 Mbytes, locked:    0 /   0

     iteration # 34     ecut=    90.00 Ry     beta= 0.20
     Davidson diagonalization with overlap

---- Real-time Memory Report at c_bands before calling an iterative solver
          3467 MiB given to the printing process from OS
         -1526 MiB allocation reported by mallinfo(arena+hblkhd)
         55460 MiB available memory on the node where the printing process lives
     GPU memory used/free/total (MiB): 7542 / 8738 / 16280
------------------
     c_bands:  1 eigenvalues not converged
     c_bands:  1 eigenvalues not converged
     c_bands:  2 eigenvalues not converged
     c_bands:  1 eigenvalues not converged
     c_bands:  1 eigenvalues not converged
     c_bands:  1 eigenvalues not converged
     c_bands:  1 eigenvalues not converged
     c_bands:  1 eigenvalues not converged
     c_bands:  4 eigenvalues not converged
     c_bands:  1 eigenvalues not converged
     c_bands:  1 eigenvalues not converged
     c_bands:  4 eigenvalues not converged
     c_bands:  1 eigenvalues not converged
     c_bands:  1 eigenvalues not converged
     c_bands:  3 eigenvalues not converged
     c_bands:  2 eigenvalues not converged
     c_bands:  2 eigenvalues not converged
     c_bands:  1 eigenvalues not converged
     c_bands:  2 eigenvalues not converged
     c_bands:  2 eigenvalues not converged
     c_bands:  1 eigenvalues not converged
     c_bands:  1 eigenvalues not converged
     c_bands:  1 eigenvalues not converged
     c_bands:  1 eigenvalues not converged
     c_bands:  1 eigenvalues not converged
     ethr =  1.56E-06,  avg # of iterations = 15.4

     negative rho (up, down):  1.489E-02 1.620E-02

     total cpu time spent up to now is      331.3 secs

     total energy              =    -511.43638079 Ry
     estimated scf accuracy    <       0.01052042 Ry

     total magnetization       =    12.00 Bohr mag/cell
     absolute magnetization    =    15.12 Bohr mag/cell
[tb_dev] Currently allocated     1.09E+01 Mbytes, locked:    0 /   8
[tb_pin] Currently allocated     0.00E+00 Mbytes, locked:    0 /   0

     iteration # 35     ecut=    90.00 Ry     beta= 0.20
     Davidson diagonalization with overlap

---- Real-time Memory Report at c_bands before calling an iterative solver
          3467 MiB given to the printing process from OS
         -1547 MiB allocation reported by mallinfo(arena+hblkhd)
         55465 MiB available memory on the node where the printing process lives
     GPU memory used/free/total (MiB): 7542 / 8738 / 16280
------------------
     c_bands:  1 eigenvalues not converged
     c_bands:  2 eigenvalues not converged
     c_bands:  2 eigenvalues not converged
     c_bands:  3 eigenvalues not converged
     c_bands:  3 eigenvalues not converged
     c_bands:  4 eigenvalues not converged
     c_bands:  2 eigenvalues not converged
     c_bands:  1 eigenvalues not converged
     c_bands:  1 eigenvalues not converged
     c_bands:  1 eigenvalues not converged
     c_bands:  1 eigenvalues not converged
     c_bands:  2 eigenvalues not converged
     c_bands:  1 eigenvalues not converged
     c_bands:  3 eigenvalues not converged
     c_bands:  1 eigenvalues not converged
     c_bands:  1 eigenvalues not converged
     c_bands:  1 eigenvalues not converged
     c_bands:  1 eigenvalues not converged
     c_bands:  3 eigenvalues not converged
     c_bands:  1 eigenvalues not converged
     c_bands:  2 eigenvalues not converged
     c_bands:  1 eigenvalues not converged
     c_bands:  2 eigenvalues not converged
     c_bands:  1 eigenvalues not converged
     ethr =  1.56E-06,  avg # of iterations = 15.2

     negative rho (up, down):  1.489E-02 1.619E-02

     total cpu time spent up to now is      346.0 secs

     total energy              =    -511.45807676 Ry
     estimated scf accuracy    <       0.01097343 Ry

     total magnetization       =    12.00 Bohr mag/cell
     absolute magnetization    =    15.02 Bohr mag/cell
[tb_dev] Currently allocated     1.09E+01 Mbytes, locked:    0 /   8
[tb_pin] Currently allocated     0.00E+00 Mbytes, locked:    0 /   0

     iteration # 36     ecut=    90.00 Ry     beta= 0.20
     Davidson diagonalization with overlap

---- Real-time Memory Report at c_bands before calling an iterative solver
          3470 MiB given to the printing process from OS
         -1545 MiB allocation reported by mallinfo(arena+hblkhd)
         55465 MiB available memory on the node where the printing process lives
     GPU memory used/free/total (MiB): 7542 / 8738 / 16280
------------------
     c_bands:  1 eigenvalues not converged
     c_bands:  2 eigenvalues not converged
     c_bands:  1 eigenvalues not converged
     ethr =  1.56E-06,  avg # of iterations =  7.0

     negative rho (up, down):  1.490E-02 1.618E-02

     total cpu time spent up to now is      354.3 secs

     total energy              =    -511.45652294 Ry
     estimated scf accuracy    <       0.00488148 Ry

     total magnetization       =    12.00 Bohr mag/cell
     absolute magnetization    =    14.90 Bohr mag/cell
[tb_dev] Currently allocated     1.09E+01 Mbytes, locked:    0 /   8
[tb_pin] Currently allocated     0.00E+00 Mbytes, locked:    0 /   0

     iteration # 37     ecut=    90.00 Ry     beta= 0.20
     Davidson diagonalization with overlap

---- Real-time Memory Report at c_bands before calling an iterative solver
          3473 MiB given to the printing process from OS
         -1543 MiB allocation reported by mallinfo(arena+hblkhd)
         55463 MiB available memory on the node where the printing process lives
     GPU memory used/free/total (MiB): 7542 / 8738 / 16280
------------------
     c_bands:  1 eigenvalues not converged
     c_bands:  1 eigenvalues not converged
     c_bands:  2 eigenvalues not converged
     c_bands:  1 eigenvalues not converged
     c_bands:  1 eigenvalues not converged
     c_bands:  1 eigenvalues not converged
     c_bands:  1 eigenvalues not converged
     ethr =  1.56E-06,  avg # of iterations =  9.0

     negative rho (up, down):  1.489E-02 1.618E-02

     total cpu time spent up to now is      363.8 secs

     total energy              =    -511.45765926 Ry
     estimated scf accuracy    <       0.00210542 Ry

     total magnetization       =    12.00 Bohr mag/cell
     absolute magnetization    =    14.82 Bohr mag/cell
[tb_dev] Currently allocated     1.09E+01 Mbytes, locked:    0 /   8
[tb_pin] Currently allocated     0.00E+00 Mbytes, locked:    0 /   0

     iteration # 38     ecut=    90.00 Ry     beta= 0.20
     Davidson diagonalization with overlap

---- Real-time Memory Report at c_bands before calling an iterative solver
          3474 MiB given to the printing process from OS
         -1541 MiB allocation reported by mallinfo(arena+hblkhd)
         55461 MiB available memory on the node where the printing process lives
     GPU memory used/free/total (MiB): 7542 / 8738 / 16280
------------------
     c_bands:  1 eigenvalues not converged
     ethr =  1.56E-06,  avg # of iterations =  2.1

     negative rho (up, down):  1.489E-02 1.618E-02

     total cpu time spent up to now is      370.0 secs

     total energy              =    -511.45823261 Ry
     estimated scf accuracy    <       0.00186394 Ry

     total magnetization       =    12.00 Bohr mag/cell
     absolute magnetization    =    14.81 Bohr mag/cell
[tb_dev] Currently allocated     1.09E+01 Mbytes, locked:    0 /   8
[tb_pin] Currently allocated     0.00E+00 Mbytes, locked:    0 /   0

     iteration # 39     ecut=    90.00 Ry     beta= 0.20
     Davidson diagonalization with overlap

---- Real-time Memory Report at c_bands before calling an iterative solver
          3475 MiB given to the printing process from OS
         -1540 MiB allocation reported by mallinfo(arena+hblkhd)
         55460 MiB available memory on the node where the printing process lives
     GPU memory used/free/total (MiB): 7542 / 8738 / 16280
------------------
     ethr =  1.56E-06,  avg # of iterations =  3.5

     negative rho (up, down):  1.488E-02 1.618E-02

     total cpu time spent up to now is      376.6 secs

     total energy              =    -511.45865894 Ry
     estimated scf accuracy    <       0.00147151 Ry

[...]
     c_bands:  3 eigenvalues not converged
     c_bands:  2 eigenvalues not converged
     c_bands:  1 eigenvalues not converged
     ethr =  5.53E-07,  avg # of iterations = 22.1

     negative rho (up, down):  1.486E-02 1.623E-02

     total cpu time spent up to now is      808.7 secs

     total energy              =    -511.45941440 Ry
     estimated scf accuracy    <       0.01694510 Ry

     total magnetization       =    12.00 Bohr mag/cell
     absolute magnetization    =    15.08 Bohr mag/cell
[tb_dev] Currently allocated     1.09E+01 Mbytes, locked:    0 /   8
[tb_pin] Currently allocated     0.00E+00 Mbytes, locked:    0 /   0

     iteration # 73     ecut=    90.00 Ry     beta= 0.20
     Davidson diagonalization with overlap

---- Real-time Memory Report at c_bands before calling an iterative solver
          3546 MiB given to the printing process from OS
         -1475 MiB allocation reported by mallinfo(arena+hblkhd)
         55394 MiB available memory on the node where the printing process lives
     GPU memory used/free/total (MiB): 7542 / 8738 / 16280
------------------
     c_bands:  1 eigenvalues not converged
     c_bands:  3 eigenvalues not converged
     c_bands:  1 eigenvalues not converged
     c_bands:  1 eigenvalues not converged
     c_bands:  1 eigenvalues not converged
     c_bands:  1 eigenvalues not converged
     c_bands:  2 eigenvalues not converged
     c_bands:  5 eigenvalues not converged
     c_bands:  4 eigenvalues not converged
     c_bands:  3 eigenvalues not converged
     c_bands:  3 eigenvalues not converged
     c_bands:  1 eigenvalues not converged
     c_bands:  1 eigenvalues not converged
     c_bands:  2 eigenvalues not converged
     c_bands:  1 eigenvalues not converged
     c_bands:  4 eigenvalues not converged
     c_bands:  2 eigenvalues not converged
     c_bands:  1 eigenvalues not converged
     c_bands:  1 eigenvalues not converged
     ethr =  5.53E-07,  avg # of iterations = 13.3

     negative rho (up, down):  1.486E-02 1.624E-02

     total cpu time spent up to now is      821.2 secs

     total energy              =    -511.46146006 Ry
     estimated scf accuracy    <       0.00364355 Ry

     total magnetization       =    12.00 Bohr mag/cell
     absolute magnetization    =    14.86 Bohr mag/cell
[tb_dev] Currently allocated     1.09E+01 Mbytes, locked:    0 /   8
[tb_pin] Currently allocated     0.00E+00 Mbytes, locked:    0 /   0

     iteration # 74     ecut=    90.00 Ry     beta= 0.20
     Davidson diagonalization with overlap

---- Real-time Memory Report at c_bands before calling an iterative solver
          3548 MiB given to the printing process from OS
         -1473 MiB allocation reported by mallinfo(arena+hblkhd)
         55393 MiB available memory on the node where the printing process lives
     GPU memory used/free/total (MiB): 7542 / 8738 / 16280
------------------
     c_bands:  1 eigenvalues not converged
     c_bands:  3 eigenvalues not converged
     c_bands:  1 eigenvalues not converged
     c_bands:  1 eigenvalues not converged
     c_bands:  1 eigenvalues not converged
     c_bands:  1 eigenvalues not converged
     ethr =  5.53E-07,  avg # of iterations =  9.9

     negative rho (up, down):  1.487E-02 1.623E-02

     total cpu time spent up to now is      831.4 secs

     total energy              =    -511.46209900 Ry
     estimated scf accuracy    <       0.00654414 Ry

     total magnetization       =    12.00 Bohr mag/cell
     absolute magnetization    =    14.97 Bohr mag/cell
[tb_dev] Currently allocated     1.09E+01 Mbytes, locked:    0 /   8
[tb_pin] Currently allocated     0.00E+00 Mbytes, locked:    0 /   0

     iteration # 75     ecut=    90.00 Ry     beta= 0.20
     Davidson diagonalization with overlap

---- Real-time Memory Report at c_bands before calling an iterative solver
          3551 MiB given to the printing process from OS
         -1471 MiB allocation reported by mallinfo(arena+hblkhd)
         55391 MiB available memory on the node where the printing process lives
     GPU memory used/free/total (MiB): 7542 / 8738 / 16280
------------------
     ethr =  5.53E-07,  avg # of iterations =  3.1

     negative rho (up, down):  1.486E-02 1.624E-02

     total cpu time spent up to now is      837.9 secs

     total energy              =    -511.45101575 Ry
     estimated scf accuracy    <       0.00692481 Ry

     total magnetization       =    12.00 Bohr mag/cell
     absolute magnetization    =    14.97 Bohr mag/cell
[tb_dev] Currently allocated     1.09E+01 Mbytes, locked:    0 /   8
[tb_pin] Currently allocated     0.00E+00 Mbytes, locked:    0 /   0

     iteration # 76     ecut=    90.00 Ry     beta= 0.20
     Davidson diagonalization with overlap

---- Real-time Memory Report at c_bands before calling an iterative solver
          3553 MiB given to the printing process from OS
         -1469 MiB allocation reported by mallinfo(arena+hblkhd)
         55389 MiB available memory on the node where the printing process lives
     GPU memory used/free/total (MiB): 7542 / 8738 / 16280
------------------
     c_bands:  3 eigenvalues not converged
     c_bands:  3 eigenvalues not converged
     c_bands:  2 eigenvalues not converged
     c_bands:  1 eigenvalues not converged
     c_bands:  3 eigenvalues not converged
     c_bands:  3 eigenvalues not converged
     c_bands:  4 eigenvalues not converged
     c_bands:  3 eigenvalues not converged
     c_bands:  4 eigenvalues not converged
     c_bands:  1 eigenvalues not converged
     c_bands:  3 eigenvalues not converged
     c_bands:  1 eigenvalues not converged
     c_bands:  5 eigenvalues not converged
     c_bands:  3 eigenvalues not converged
     c_bands:  3 eigenvalues not converged
     c_bands:  1 eigenvalues not converged
     c_bands:  2 eigenvalues not converged
     c_bands:  3 eigenvalues not converged
     c_bands:  3 eigenvalues not converged
     c_bands:  1 eigenvalues not converged
     c_bands:  5 eigenvalues not converged
     c_bands:  4 eigenvalues not converged
     c_bands:  4 eigenvalues not converged
     c_bands:  2 eigenvalues not converged
     c_bands:  2 eigenvalues not converged
     c_bands:  1 eigenvalues not converged
     ethr =  5.53E-07,  avg # of iterations = 14.8

     negative rho (up, down):  1.491E-02 1.616E-02

     total cpu time spent up to now is      852.1 secs

     total energy              =    -511.44237739 Ry
     estimated scf accuracy    <       0.00264758 Ry

     total magnetization       =    12.00 Bohr mag/cell
     absolute magnetization    =    14.65 Bohr mag/cell
[tb_dev] Currently allocated     1.09E+01 Mbytes, locked:    0 /   8
[tb_pin] Currently allocated     0.00E+00 Mbytes, locked:    0 /   0

     iteration # 77     ecut=    90.00 Ry     beta= 0.20
     Davidson diagonalization with overlap

---- Real-time Memory Report at c_bands before calling an iterative solver
          3554 MiB given to the printing process from OS
         -1467 MiB allocation reported by mallinfo(arena+hblkhd)
         55388 MiB available memory on the node where the printing process lives
     GPU memory used/free/total (MiB): 7542 / 8738 / 16280
------------------
     c_bands:  4 eigenvalues not converged
     c_bands:  3 eigenvalues not converged
     c_bands:  2 eigenvalues not converged
     c_bands:  2 eigenvalues not converged
     c_bands:  3 eigenvalues not converged
     c_bands:  5 eigenvalues not converged
     c_bands:  4 eigenvalues not converged
     c_bands:  3 eigenvalues not converged
     c_bands:  4 eigenvalues not converged
     c_bands:  3 eigenvalues not converged
     c_bands:  3 eigenvalues not converged
     c_bands:  3 eigenvalues not converged
     c_bands:  5 eigenvalues not converged
     c_bands:  3 eigenvalues not converged
     c_bands:  3 eigenvalues not converged
     c_bands:  3 eigenvalues not converged
     c_bands:  3 eigenvalues not converged
     c_bands:  5 eigenvalues not converged
     c_bands:  2 eigenvalues not converged
     c_bands:  2 eigenvalues not converged
     c_bands:  4 eigenvalues not converged
     c_bands:  5 eigenvalues not converged
     c_bands:  5 eigenvalues not converged
     c_bands:  5 eigenvalues not converged
     c_bands:  5 eigenvalues not converged
     c_bands:  5 eigenvalues not converged
     c_bands:  4 eigenvalues not converged
     c_bands:  3 eigenvalues not converged
     c_bands:  2 eigenvalues not converged
     c_bands:  2 eigenvalues not converged
     c_bands:  3 eigenvalues not converged
     c_bands:  3 eigenvalues not converged
     c_bands:  1 eigenvalues not converged
     c_bands:  1 eigenvalues not converged
     c_bands:  1 eigenvalues not converged
     c_bands:  1 eigenvalues not converged
     c_bands:  1 eigenvalues not converged
     c_bands:  1 eigenvalues not converged
     c_bands:  2 eigenvalues not converged
     ethr =  5.53E-07,  avg # of iterations = 17.3

     negative rho (up, down):  1.492E-02 1.615E-02

     total cpu time spent up to now is      868.3 secs

     total energy              =    -511.45211147 Ry
     estimated scf accuracy    <       0.00846509 Ry

     total magnetization       =    12.00 Bohr mag/cell
     absolute magnetization    =    14.63 Bohr mag/cell
[tb_dev] Currently allocated     1.09E+01 Mbytes, locked:    0 /   8
[tb_pin] Currently allocated     0.00E+00 Mbytes, locked:    0 /   0

     iteration # 78     ecut=    90.00 Ry     beta= 0.20
     Davidson diagonalization with overlap

---- Real-time Memory Report at c_bands before calling an iterative solver
          3557 MiB given to the printing process from OS
         -1465 MiB allocation reported by mallinfo(arena+hblkhd)
         55386 MiB available memory on the node where the printing process lives
     GPU memory used/free/total (MiB): 7542 / 8738 / 16280
------------------
     c_bands:  1 eigenvalues not converged
     c_bands:  1 eigenvalues not converged
     c_bands:  2 eigenvalues not converged
     c_bands:  3 eigenvalues not converged
     c_bands:  2 eigenvalues not converged
     c_bands:  3 eigenvalues not converged
     c_bands:  1 eigenvalues not converged
     c_bands:  1 eigenvalues not converged
     c_bands:  1 eigenvalues not converged
     c_bands:  3 eigenvalues not converged
     c_bands:  1 eigenvalues not converged
     c_bands:  1 eigenvalues not converged
     c_bands:  2 eigenvalues not converged
     c_bands:  1 eigenvalues not converged
     c_bands:  2 eigenvalues not converged
     c_bands:  1 eigenvalues not converged
     ethr =  5.53E-07,  avg # of iterations = 10.5

     negative rho (up, down):  1.490E-02 1.618E-02

     total cpu time spent up to now is      878.4 secs

     total energy              =    -511.45320547 Ry
     estimated scf accuracy    <       0.01888908 Ry

     total magnetization       =    12.01 Bohr mag/cell
     absolute magnetization    =    14.52 Bohr mag/cell
[tb_dev] Currently allocated     1.09E+01 Mbytes, locked:    0 /   8
[tb_pin] Currently allocated     0.00E+00 Mbytes, locked:    0 /   0

     iteration # 79     ecut=    90.00 Ry     beta= 0.20
     Davidson diagonalization with overlap

---- Real-time Memory Report at c_bands before calling an iterative solver
          3559 MiB given to the printing process from OS
         -1463 MiB allocation reported by mallinfo(arena+hblkhd)
         55384 MiB available memory on the node where the printing process lives
     GPU memory used/free/total (MiB): 7542 / 8738 / 16280
------------------
     c_bands:  1 eigenvalues not converged
     c_bands:  3 eigenvalues not converged
     c_bands:  2 eigenvalues not converged
     c_bands:  2 eigenvalues not converged
     c_bands:  3 eigenvalues not converged
     c_bands:  4 eigenvalues not converged
     c_bands:  4 eigenvalues not converged
     c_bands:  3 eigenvalues not converged
     c_bands:  1 eigenvalues not converged
     c_bands:  3 eigenvalues not converged
     c_bands:  5 eigenvalues not converged
     c_bands:  3 eigenvalues not converged
     c_bands:  4 eigenvalues not converged
     c_bands:  4 eigenvalues not converged
     c_bands:  3 eigenvalues not converged
     c_bands:  4 eigenvalues not converged
     c_bands:  2 eigenvalues not converged
     c_bands:  2 eigenvalues not converged
     c_bands:  1 eigenvalues not converged
     c_bands:  2 eigenvalues not converged
     c_bands:  1 eigenvalues not converged
     c_bands:  4 eigenvalues not converged
     c_bands:  3 eigenvalues not converged
     c_bands:  5 eigenvalues not converged
     c_bands:  5 eigenvalues not converged
     c_bands:  3 eigenvalues not converged
     c_bands:  3 eigenvalues not converged
     ethr =  5.53E-07,  avg # of iterations = 12.7

     negative rho (up, down):  1.491E-02 1.617E-02

     total cpu time spent up to now is      891.2 secs

     total energy              =    -511.45227985 Ry
     estimated scf accuracy    <       0.00841034 Ry

     total magnetization       =    12.00 Bohr mag/cell
     absolute magnetization    =    14.52 Bohr mag/cell
[tb_dev] Currently allocated     1.09E+01 Mbytes, locked:    0 /   8
[tb_pin] Currently allocated     0.00E+00 Mbytes, locked:    0 /   0

     iteration # 80     ecut=    90.00 Ry     beta= 0.20
     Davidson diagonalization with overlap

---- Real-time Memory Report at c_bands before calling an iterative solver
          3560 MiB given to the printing process from OS
         -1461 MiB allocation reported by mallinfo(arena+hblkhd)
         55382 MiB available memory on the node where the printing process lives
     GPU memory used/free/total (MiB): 7542 / 8738 / 16280
------------------
     c_bands:  1 eigenvalues not converged
     c_bands:  1 eigenvalues not converged
     c_bands:  2 eigenvalues not converged
     c_bands:  1 eigenvalues not converged
     c_bands:  3 eigenvalues not converged
     c_bands:  2 eigenvalues not converged
     c_bands:  4 eigenvalues not converged
     c_bands:  3 eigenvalues not converged
     c_bands:  2 eigenvalues not converged
     c_bands:  1 eigenvalues not converged
     c_bands:  3 eigenvalues not converged
     c_bands:  3 eigenvalues not converged
     c_bands:  1 eigenvalues not converged
     c_bands:  2 eigenvalues not converged
     c_bands:  3 eigenvalues not converged
     c_bands:  4 eigenvalues not converged
     c_bands:  1 eigenvalues not converged
     c_bands:  2 eigenvalues not converged
     c_bands:  4 eigenvalues not converged
     c_bands:  2 eigenvalues not converged
     c_bands:  1 eigenvalues not converged
     c_bands:  5 eigenvalues not converged
     c_bands:  2 eigenvalues not converged
     c_bands:  3 eigenvalues not converged
     c_bands:  3 eigenvalues not converged
     ethr =  5.53E-07,  avg # of iterations = 12.4

     negative rho (up, down):  1.492E-02 1.621E-02

     total cpu time spent up to now is      903.3 secs

     total energy              =    -511.44484417 Ry
     estimated scf accuracy    <       0.01825896 Ry

     total magnetization       =    12.00 Bohr mag/cell
     absolute magnetization    =    14.51 Bohr mag/cell

     End of self-consistent calculation

     convergence NOT achieved after  80 iterations: stopping

     Writing config to output data dir ./out/aiida.save/
 
     init_run     :     25.75s CPU      5.84s WALL (       1 calls)
     electrons    :   1524.86s CPU    896.90s WALL (       1 calls)

     Called by init_run:
     wfcinit      :      0.13s CPU      0.13s WALL (       1 calls)
                                        0.13s GPU  (       1 calls)
     potinit      :      8.87s CPU      1.21s WALL (       1 calls)
     hinit0       :      8.76s CPU      2.38s WALL (       1 calls)

     Called by electrons:
     c_bands      :    651.89s CPU    698.32s WALL (      80 calls)
     sum_band     :    102.75s CPU    105.75s WALL (      80 calls)
     v_of_rho     :     99.23s CPU     16.41s WALL (      81 calls)
     v_h          :     24.56s CPU      2.31s WALL (      81 calls)
     v_xc         :     74.66s CPU     14.09s WALL (      81 calls)
     newd         :    187.20s CPU     29.20s WALL (      81 calls)
                                       29.20s GPU  (      81 calls)
     PAW_pot      :    302.08s CPU     27.45s WALL (      81 calls)
     mix_rho      :    128.40s CPU     12.44s WALL (      80 calls)

     Called by c_bands:
     init_us_2    :     10.79s CPU     14.82s WALL (    9280 calls)
     init_us_2:gp :     10.62s CPU     14.65s WALL (    9280 calls)
     cegterg      :    601.24s CPU    635.88s WALL (    4881 calls)

     Called by sum_band:
     sum_band:wei :      0.18s CPU      0.19s WALL (      80 calls)
                                        0.18s GPU  (      80 calls)
     sum_band:loo :     65.55s CPU     68.39s WALL (      80 calls)
                                       68.39s GPU  (      80 calls)
     sum_band:buf :     19.50s CPU     20.01s WALL (    4640 calls)
                                       19.98s GPU  (    4640 calls)
     sum_band:ini :      5.16s CPU      5.88s WALL (    4640 calls)
                                        5.85s GPU  (    4640 calls)
     sum_band:cal :      0.17s CPU      2.95s WALL (    4640 calls)
                                        2.19s GPU  (    4640 calls)
     sum_band:bec :      1.16s CPU      1.25s WALL (    4640 calls)
                                        1.20s GPU  (    4640 calls)
     addusdens    :     25.42s CPU     25.54s WALL (      80 calls)
                                       25.54s GPU  (      80 calls)
     addusd:skk   :      0.07s CPU      0.08s WALL (     240 calls)
                                        0.07s GPU  (     240 calls)

     Called by *egterg:
     cdiaghg      :    131.99s CPU    153.20s WALL (   53164 calls)
                                      152.84s GPU  (   53164 calls)
     cegterg:over :     22.32s CPU     23.18s WALL (   48342 calls)
     cegterg:upda :     19.43s CPU     21.04s WALL (   48342 calls)
     cegterg:last :     14.33s CPU     15.07s WALL (   19605 calls)
     h_psi        :    369.52s CPU    378.33s WALL (   53223 calls)
                                      377.72s GPU  (   53223 calls)
     s_psi        :      6.48s CPU     19.05s WALL (   53223 calls)
                                       17.66s GPU  (   53223 calls)
     g_psi        :      0.33s CPU      2.39s WALL (   48342 calls)
                                        2.07s GPU  (   48342 calls)

     Called by h_psi:
     h_psi:calbec :      1.87s CPU     18.97s WALL (   53223 calls)
                                       18.63s GPU  (   53223 calls)
     vloc_psi     :    323.82s CPU    331.36s WALL (   53223 calls)
                                      331.02s GPU  (   53223 calls)
     add_vuspsi   :     11.42s CPU     22.71s WALL (   53223 calls)
                                       22.38s GPU  (   53223 calls)

     General routines
     calbec       :      1.51s CPU      1.58s WALL (   57863 calls)
     fft          :      9.76s CPU      2.03s WALL (    2023 calls)
                                        1.36s GPU  (    1861 calls)
     ffts         :      0.55s CPU      0.17s WALL (     322 calls)
                                        0.03s GPU  (     160 calls)
     fftw         :      3.54s CPU    264.22s WALL (  178078 calls)
                                      262.67s GPU  (  178078 calls)
     interpolate  :     27.87s CPU      2.43s WALL (     162 calls)
     davcio       :      0.09s CPU      1.29s WALL (     134 calls)
 
     Parallel routines

     PAW routines
     PAW_pot      :    302.08s CPU     27.45s WALL (      81 calls)
     PAW_symme    :      0.73s CPU      0.12s WALL (     160 calls)
 
     PWSCF        :  25m53.54s CPU  15m 4.51s WALL

 
   This run was terminated on:  21:54:44  23Oct2023            

=------------------------------------------------------------------------------=
   JOB DONE.
=------------------------------------------------------------------------------=
