
     Program PWSCF v.7.2 starts on 23Oct2023 at 20:28:49 

     This program is part of the open-source Quantum ESPRESSO suite
     for quantum simulation of materials; please cite
         "P. Giannozzi et al., J. Phys.:Condens. Matter 21 395502 (2009);
         "P. Giannozzi et al., J. Phys.:Condens. Matter 29 465901 (2017);
         "P. Giannozzi et al., J. Chem. Phys. 152 154105 (2020);
          URL http://www.quantum-espresso.org", 
     in publications or presentations arising from this work. More details at
     http://www.quantum-espresso.org/quote

     Parallel version (MPI & OpenMP), running on      12 processor cores
     Number of MPI processes:                 1
     Threads/MPI process:                    12

     MPI processes distributed on     1 nodes
     60369 MiB available memory on the printing compute node when the environment starts
 
     Reading input from aiida.in

     Current dimensions of program PWSCF are:
     Max number of different atomic species (ntypx) = 10
     Max number of k-points (npk) =  40000
     Max angular momentum in pseudopotentials (lmaxx) =  4
     file Fe.pbesol-spn-kjpaw_psl.0.2.1.UPF: wavefunction(s)  3D renormalized
     Message from routine setup:
     using ibrav=0 with symmetry is DISCOURAGED, use correct ibrav instead
 
     Subspace diagonalization in iterative solution of the eigenvalue problem:
     a serial algorithm will be used

 
     G-vector sticks info
     --------------------
     sticks:   dense  smooth     PW     G-vecs:    dense   smooth      PW
     Sum       16941    5633   1559              1222357   235103   33963
 
     Using Slab Decomposition
 


     bravais-lattice index     =            0
     lattice parameter (alat)  =      14.1658  a.u.
     unit-cell volume          =    2039.4671 (a.u.)^3
     number of atoms/cell      =           12
     number of atomic types    =            3
     number of electrons       =       118.00
     number of Kohn-Sham states=           71
     kinetic-energy cutoff     =      90.0000  Ry
     charge density cutoff     =    1080.0000  Ry
     scf convergence threshold =      2.4E-09
     mixing beta               =       0.2000
     number of iterations used =            8  plain     mixing
     Exchange-correlation= SLA  PW   PSX  PSC
                           (   1   4  10   8   0   0   0)

     GPU acceleration is ACTIVE.


     GPU used by master process:

        Device Number: 0
        Device name: Tesla P100-PCIE-16GB
        Compute capability : 60
        Ratio of single to double precision performance  : 2
        Memory Clock Rate (KHz): 715000
        Memory Bus Width (bits): 4096
        Peak Memory Bandwidth (GB/s): 732.16

     celldm(1)=  14.165817  celldm(2)=   0.000000  celldm(3)=   0.000000
     celldm(4)=   0.000000  celldm(5)=   0.000000  celldm(6)=   0.000000

     crystal axes: (cart. coord. in units of alat)
               a(1) = (   0.634939  -0.772562   0.000000 )  
               a(2) = (   0.634939   0.772562   0.000000 )  
               a(3) = (   0.000000   0.000000   0.731301 )  

     reciprocal axes: (cart. coord. in units 2 pi/alat)
               b(1) = (  0.787477 -0.647197  0.000000 )  
               b(2) = (  0.787477  0.647197 -0.000000 )  
               b(3) = ( -0.000000  0.000000  1.367426 )  


     PseudoPot. # 1 for Cs read from file:
     ./pseudo/cs_pbesol_v1.uspp.F.UPF
     MD5 check sum: ae4559e5c840913b791237f814e2d884
     Pseudo is Ultrasoft + core correction, Zval =  9.0
     Generated by new atomic code, or converted to UPF format
     Using radial grid of  905 points,  6 beta functions with: 
                l(1) =   0
                l(2) =   0
                l(3) =   1
                l(4) =   1
                l(5) =   2
                l(6) =   2
     Q(r) pseudized with  6 coefficients,  rinner =    1.500   1.500   1.500
                                                       1.500   1.500

     PseudoPot. # 2 for Fe read from file:
     ./pseudo/Fe.pbesol-spn-kjpaw_psl.0.2.1.UPF
     MD5 check sum: 4d7ec5aa2156491519a4322664fbbf52
     Pseudo is Projector augmented-wave + core cor, Zval = 16.0
     Generated using "atomic" code by A. Dal Corso  v.6.0 svn rev. 13079
     Shape of augmentation charge: PSQ
     Using radial grid of 1191 points,  6 beta functions with: 
                l(1) =   0
                l(2) =   0
                l(3) =   1
                l(4) =   1
                l(5) =   2
                l(6) =   2
     Q(r) pseudized with 0 coefficients 


     PseudoPot. # 3 for S  read from file:
     ./pseudo/s_pbesol_v1.4.uspp.F.UPF
     MD5 check sum: 0ccfa86ec6eb59065d10aaae963ef2a7
     Pseudo is Ultrasoft + core correction, Zval =  6.0
     Generated by new atomic code, or converted to UPF format
     Using radial grid of  907 points,  6 beta functions with: 
                l(1) =   0
                l(2) =   0
                l(3) =   1
                l(4) =   1
                l(5) =   2
                l(6) =   2
     Q(r) pseudized with  8 coefficients,  rinner =    1.300   1.300   1.300
                                                       1.300   1.300

     atomic species   valence    mass     pseudopotential
        Cs             9.00   132.90545     Cs( 1.00)
        Fe            16.00    55.84500     Fe( 1.00)
        S              6.00    32.06500     S ( 1.00)

     Starting magnetic structure 
     atomic species   magnetization
        Cs           0.100
        Fe           0.313
        S            0.100

      8 Sym. Ops., with inversion, found ( 4 have fractional translation)


                                    s                        frac. trans.

      isym =  1     identity                                     

 cryst.   s( 1) = (     1          0          0      )
                  (     0          1          0      )
                  (     0          0          1      )

 cart.    s( 1) = (  1.0000000  0.0000000  0.0000000 )
                  (  0.0000000  1.0000000  0.0000000 )
                  (  0.0000000  0.0000000  1.0000000 )


      isym =  2     180 deg rotation - cart. axis [0,0,1]        

 cryst.   s( 2) = (    -1          0          0      )    f =(  0.0000000 )
                  (     0         -1          0      )       (  0.0000000 )
                  (     0          0          1      )       ( -0.5000000 )

 cart.    s( 2) = ( -1.0000000 -0.0000000  0.0000000 )    f =(  0.0000000 )
                  ( -0.0000000 -1.0000000  0.0000000 )       ( -0.0000000 )
                  (  0.0000000  0.0000000  1.0000000 )       ( -0.3656506 )


      isym =  3     180 deg rotation - cart. axis [0,1,0]        

 cryst.   s( 3) = (     0         -1          0      )    f =(  0.0000000 )
                  (    -1          0          0      )       (  0.0000000 )
                  (     0          0         -1      )       (  0.5000000 )

 cart.    s( 3) = ( -1.0000000  0.0000000  0.0000000 )    f =(  0.0000000 )
                  ( -0.0000000  1.0000000  0.0000000 )       (  0.0000000 )
                  (  0.0000000  0.0000000 -1.0000000 )       (  0.3656506 )


      isym =  4     180 deg rotation - cart. axis [1,0,0]        

 cryst.   s( 4) = (     0          1          0      )
                  (     1          0          0      )
                  (     0          0         -1      )

 cart.    s( 4) = (  1.0000000 -0.0000000  0.0000000 )
                  (  0.0000000 -1.0000000  0.0000000 )
                  (  0.0000000  0.0000000 -1.0000000 )


      isym =  5     inversion                                    

 cryst.   s( 5) = (    -1          0          0      )
                  (     0         -1          0      )
                  (     0          0         -1      )

 cart.    s( 5) = ( -1.0000000 -0.0000000  0.0000000 )
                  ( -0.0000000 -1.0000000  0.0000000 )
                  (  0.0000000  0.0000000 -1.0000000 )


      isym =  6     inv. 180 deg rotation - cart. axis [0,0,1]   

 cryst.   s( 6) = (     1          0          0      )    f =(  0.0000000 )
                  (     0          1          0      )       (  0.0000000 )
                  (     0          0         -1      )       (  0.5000000 )

 cart.    s( 6) = (  1.0000000  0.0000000  0.0000000 )    f =(  0.0000000 )
                  (  0.0000000  1.0000000  0.0000000 )       (  0.0000000 )
                  (  0.0000000  0.0000000 -1.0000000 )       (  0.3656506 )


      isym =  7     inv. 180 deg rotation - cart. axis [0,1,0]   

 cryst.   s( 7) = (     0          1          0      )    f =(  0.0000000 )
                  (     1          0          0      )       (  0.0000000 )
                  (     0          0          1      )       ( -0.5000000 )

 cart.    s( 7) = (  1.0000000 -0.0000000  0.0000000 )    f =(  0.0000000 )
                  (  0.0000000 -1.0000000  0.0000000 )       (  0.0000000 )
                  (  0.0000000  0.0000000  1.0000000 )       ( -0.3656506 )


      isym =  8     inv. 180 deg rotation - cart. axis [1,0,0]   

 cryst.   s( 8) = (     0         -1          0      )
                  (    -1          0          0      )
                  (     0          0          1      )

 cart.    s( 8) = ( -1.0000000  0.0000000  0.0000000 )
                  ( -0.0000000  1.0000000  0.0000000 )
                  (  0.0000000  0.0000000  1.0000000 )


   Cartesian axes

     site n.     atom                  positions (alat units)
         1           Cs  tau(   1) = (   0.6349394   1.2849250   0.1828253  )
         2           Cs  tau(   2) = (   0.6349394   0.2601989   0.5484759  )
         3           Fe  tau(   3) = (   1.0898100  -0.0000000   0.3656506  )
         4           Fe  tau(   4) = (   1.0898100  -0.0000000   0.0000000  )
         5           Fe  tau(   5) = (   0.1800688  -0.0000000   0.3656506  )
         6           Fe  tau(   6) = (   0.1800688  -0.0000000   0.0000000  )
         7           S   tau(   7) = (   0.3426133   0.1650192   0.1828253  )
         8           S   tau(   8) = (   0.3426133   1.3801047   0.5484759  )
         9           S   tau(   9) = (   0.9272655   0.1650192   0.1828253  )
        10           S   tau(  10) = (   0.9272655   1.3801047   0.5484759  )
        11           S   tau(  11) = (   0.6349394   0.5941001   0.1828253  )
        12           S   tau(  12) = (   0.6349394   0.9510238   0.5484759  )

   Crystallographic axes

     site n.     atom                  positions (cryst. coord.)
         1           Cs  tau(   1) = ( -0.3316000  1.3316000  0.2500000  )
         2           Cs  tau(   2) = (  0.3316000  0.6684000  0.7500000  )
         3           Fe  tau(   3) = (  0.8582000  0.8582000  0.5000000  )
         4           Fe  tau(   4) = (  0.8582000  0.8582000  0.0000000  )
         5           Fe  tau(   5) = (  0.1418000  0.1418000  0.5000000  )
         6           Fe  tau(   6) = (  0.1418000  0.1418000  0.0000000  )
         7           S   tau(   7) = (  0.1630000  0.3766000  0.2500000  )
         8           S   tau(   8) = ( -0.6234000  1.1630000  0.7500000  )
         9           S   tau(   9) = (  0.6234000  0.8370000  0.2500000  )
        10           S   tau(  10) = ( -0.1630000  1.6234000  0.7500000  )
        11           S   tau(  11) = (  0.1155000  0.8845000  0.2500000  )
        12           S   tau(  12) = ( -0.1155000  1.1155000  0.7500000  )

     number of k points=    65  Marzari-Vanderbilt smearing, width (Ry)=  0.0100
                       cart. coord. in units 2pi/alat
        k(    1) = (   0.0000000   0.0000000   0.0000000), wk =   0.0034722
        k(    2) = (   0.0000000   0.0000000   0.1709282), wk =   0.0069444
        k(    3) = (   0.0000000   0.0000000   0.3418564), wk =   0.0069444
        k(    4) = (   0.0000000   0.0000000   0.5127846), wk =   0.0069444
        k(    5) = (   0.0000000   0.0000000  -0.6837128), wk =   0.0034722
        k(    6) = (   0.1312461   0.1078662   0.0000000), wk =   0.0138889
        k(    7) = (   0.1312461   0.1078662   0.1709282), wk =   0.0277778
        k(    8) = (   0.1312461   0.1078662   0.3418564), wk =   0.0277778
        k(    9) = (   0.1312461   0.1078662   0.5127846), wk =   0.0277778
        k(   10) = (   0.1312461   0.1078662  -0.6837128), wk =   0.0138889
        k(   11) = (   0.2624922   0.2157324   0.0000000), wk =   0.0138889
        k(   12) = (   0.2624922   0.2157324   0.1709282), wk =   0.0277778
        k(   13) = (   0.2624922   0.2157324   0.3418564), wk =   0.0277778
        k(   14) = (   0.2624922   0.2157324   0.5127846), wk =   0.0277778
        k(   15) = (   0.2624922   0.2157324  -0.6837128), wk =   0.0138889
        k(   16) = (  -0.3937384  -0.3235986   0.0000000), wk =   0.0069444
        k(   17) = (  -0.3937384  -0.3235986   0.1709282), wk =   0.0138889
        k(   18) = (  -0.3937384  -0.3235986   0.3418564), wk =   0.0138889
        k(   19) = (  -0.3937384  -0.3235986   0.5127846), wk =   0.0138889
        k(   20) = (  -0.3937384  -0.3235986  -0.6837128), wk =   0.0069444
        k(   21) = (   0.2624922  -0.0000000   0.0000000), wk =   0.0069444
        k(   22) = (   0.2624922  -0.0000000   0.1709282), wk =   0.0138889
        k(   23) = (   0.2624922  -0.0000000   0.3418564), wk =   0.0138889
        k(   24) = (   0.2624922  -0.0000000   0.5127846), wk =   0.0138889
        k(   25) = (   0.2624922  -0.0000000  -0.6837128), wk =   0.0069444
        k(   26) = (   0.3937384   0.1078662   0.0000000), wk =   0.0138889
        k(   27) = (   0.3937384   0.1078662   0.1709282), wk =   0.0277778
        k(   28) = (   0.3937384   0.1078662   0.3418564), wk =   0.0277778
        k(   29) = (   0.3937384   0.1078662   0.5127846), wk =   0.0277778
        k(   30) = (   0.3937384   0.1078662  -0.6837128), wk =   0.0138889
        k(   31) = (  -0.2624922  -0.4314649   0.0000000), wk =   0.0138889
        k(   32) = (  -0.2624922  -0.4314649   0.1709282), wk =   0.0277778
        k(   33) = (  -0.2624922  -0.4314649   0.3418564), wk =   0.0277778
        k(   34) = (  -0.2624922  -0.4314649   0.5127846), wk =   0.0277778
        k(   35) = (  -0.2624922  -0.4314649  -0.6837128), wk =   0.0138889
        k(   36) = (  -0.1312461  -0.3235986   0.0000000), wk =   0.0138889
        k(   37) = (  -0.1312461  -0.3235986   0.1709282), wk =   0.0277778
        k(   38) = (  -0.1312461  -0.3235986   0.3418564), wk =   0.0277778
        k(   39) = (  -0.1312461  -0.3235986   0.5127846), wk =   0.0277778
        k(   40) = (  -0.1312461  -0.3235986  -0.6837128), wk =   0.0138889
        k(   41) = (   0.0000000  -0.2157324   0.0000000), wk =   0.0069444
        k(   42) = (   0.0000000  -0.2157324   0.1709282), wk =   0.0138889
        k(   43) = (   0.0000000  -0.2157324   0.3418564), wk =   0.0138889
        k(   44) = (   0.0000000  -0.2157324   0.5127846), wk =   0.0138889
        k(   45) = (   0.0000000  -0.2157324  -0.6837128), wk =   0.0069444
        k(   46) = (   0.5249845  -0.0000000   0.0000000), wk =   0.0069444
        k(   47) = (   0.5249845  -0.0000000   0.1709282), wk =   0.0138889
        k(   48) = (   0.5249845  -0.0000000   0.3418564), wk =   0.0138889
        k(   49) = (   0.5249845  -0.0000000   0.5127846), wk =   0.0138889
        k(   50) = (   0.5249845  -0.0000000  -0.6837128), wk =   0.0069444
        k(   51) = (  -0.1312461  -0.5393311   0.0000000), wk =   0.0138889
        k(   52) = (  -0.1312461  -0.5393311   0.1709282), wk =   0.0277778
        k(   53) = (  -0.1312461  -0.5393311   0.3418564), wk =   0.0277778
        k(   54) = (  -0.1312461  -0.5393311   0.5127846), wk =   0.0277778
        k(   55) = (  -0.1312461  -0.5393311  -0.6837128), wk =   0.0138889
        k(   56) = (  -0.0000000  -0.4314649   0.0000000), wk =   0.0069444
        k(   57) = (  -0.0000000  -0.4314649   0.1709282), wk =   0.0138889
        k(   58) = (  -0.0000000  -0.4314649   0.3418564), wk =   0.0138889
        k(   59) = (  -0.0000000  -0.4314649   0.5127846), wk =   0.0138889
        k(   60) = (  -0.0000000  -0.4314649  -0.6837128), wk =   0.0069444
        k(   61) = (  -0.7874767   0.0000000   0.0000000), wk =   0.0034722
        k(   62) = (  -0.7874767   0.0000000   0.1709282), wk =   0.0069444
        k(   63) = (  -0.7874767   0.0000000   0.3418564), wk =   0.0069444
        k(   64) = (  -0.7874767   0.0000000   0.5127846), wk =   0.0069444
        k(   65) = (  -0.7874767   0.0000000  -0.6837128), wk =   0.0034722

                       cryst. coord.
        k(    1) = (   0.0000000   0.0000000   0.0000000), wk =   0.0034722
        k(    2) = (   0.0000000   0.0000000   0.1250000), wk =   0.0069444
        k(    3) = (   0.0000000   0.0000000   0.2500000), wk =   0.0069444
        k(    4) = (   0.0000000   0.0000000   0.3750000), wk =   0.0069444
        k(    5) = (   0.0000000   0.0000000  -0.5000000), wk =   0.0034722
        k(    6) = (   0.0000000   0.1666667   0.0000000), wk =   0.0138889
        k(    7) = (   0.0000000   0.1666667   0.1250000), wk =   0.0277778
        k(    8) = (   0.0000000   0.1666667   0.2500000), wk =   0.0277778
        k(    9) = (   0.0000000   0.1666667   0.3750000), wk =   0.0277778
        k(   10) = (   0.0000000   0.1666667  -0.5000000), wk =   0.0138889
        k(   11) = (   0.0000000   0.3333333   0.0000000), wk =   0.0138889
        k(   12) = (   0.0000000   0.3333333   0.1250000), wk =   0.0277778
        k(   13) = (   0.0000000   0.3333333   0.2500000), wk =   0.0277778
        k(   14) = (   0.0000000   0.3333333   0.3750000), wk =   0.0277778
        k(   15) = (   0.0000000   0.3333333  -0.5000000), wk =   0.0138889
        k(   16) = (  -0.0000000  -0.5000000   0.0000000), wk =   0.0069444
        k(   17) = (  -0.0000000  -0.5000000   0.1250000), wk =   0.0138889
        k(   18) = (  -0.0000000  -0.5000000   0.2500000), wk =   0.0138889
        k(   19) = (  -0.0000000  -0.5000000   0.3750000), wk =   0.0138889
        k(   20) = (  -0.0000000  -0.5000000  -0.5000000), wk =   0.0069444
        k(   21) = (   0.1666667   0.1666667   0.0000000), wk =   0.0069444
        k(   22) = (   0.1666667   0.1666667   0.1250000), wk =   0.0138889
        k(   23) = (   0.1666667   0.1666667   0.2500000), wk =   0.0138889
        k(   24) = (   0.1666667   0.1666667   0.3750000), wk =   0.0138889
        k(   25) = (   0.1666667   0.1666667  -0.5000000), wk =   0.0069444
        k(   26) = (   0.1666667   0.3333333   0.0000000), wk =   0.0138889
        k(   27) = (   0.1666667   0.3333333   0.1250000), wk =   0.0277778
        k(   28) = (   0.1666667   0.3333333   0.2500000), wk =   0.0277778
        k(   29) = (   0.1666667   0.3333333   0.3750000), wk =   0.0277778
        k(   30) = (   0.1666667   0.3333333  -0.5000000), wk =   0.0138889
        k(   31) = (   0.1666667  -0.5000000   0.0000000), wk =   0.0138889
        k(   32) = (   0.1666667  -0.5000000   0.1250000), wk =   0.0277778
        k(   33) = (   0.1666667  -0.5000000   0.2500000), wk =   0.0277778
        k(   34) = (   0.1666667  -0.5000000   0.3750000), wk =   0.0277778
        k(   35) = (   0.1666667  -0.5000000  -0.5000000), wk =   0.0138889
        k(   36) = (   0.1666667  -0.3333333   0.0000000), wk =   0.0138889
        k(   37) = (   0.1666667  -0.3333333   0.1250000), wk =   0.0277778
        k(   38) = (   0.1666667  -0.3333333   0.2500000), wk =   0.0277778
        k(   39) = (   0.1666667  -0.3333333   0.3750000), wk =   0.0277778
        k(   40) = (   0.1666667  -0.3333333  -0.5000000), wk =   0.0138889
        k(   41) = (   0.1666667  -0.1666667   0.0000000), wk =   0.0069444
        k(   42) = (   0.1666667  -0.1666667   0.1250000), wk =   0.0138889
        k(   43) = (   0.1666667  -0.1666667   0.2500000), wk =   0.0138889
        k(   44) = (   0.1666667  -0.1666667   0.3750000), wk =   0.0138889
        k(   45) = (   0.1666667  -0.1666667  -0.5000000), wk =   0.0069444
        k(   46) = (   0.3333333   0.3333333   0.0000000), wk =   0.0069444
        k(   47) = (   0.3333333   0.3333333   0.1250000), wk =   0.0138889
        k(   48) = (   0.3333333   0.3333333   0.2500000), wk =   0.0138889
        k(   49) = (   0.3333333   0.3333333   0.3750000), wk =   0.0138889
        k(   50) = (   0.3333333   0.3333333  -0.5000000), wk =   0.0069444
        k(   51) = (   0.3333333  -0.5000000   0.0000000), wk =   0.0138889
        k(   52) = (   0.3333333  -0.5000000   0.1250000), wk =   0.0277778
        k(   53) = (   0.3333333  -0.5000000   0.2500000), wk =   0.0277778
        k(   54) = (   0.3333333  -0.5000000   0.3750000), wk =   0.0277778
        k(   55) = (   0.3333333  -0.5000000  -0.5000000), wk =   0.0138889
        k(   56) = (   0.3333333  -0.3333333   0.0000000), wk =   0.0069444
        k(   57) = (   0.3333333  -0.3333333   0.1250000), wk =   0.0138889
        k(   58) = (   0.3333333  -0.3333333   0.2500000), wk =   0.0138889
        k(   59) = (   0.3333333  -0.3333333   0.3750000), wk =   0.0138889
        k(   60) = (   0.3333333  -0.3333333  -0.5000000), wk =   0.0069444
        k(   61) = (  -0.5000000  -0.5000000   0.0000000), wk =   0.0034722
        k(   62) = (  -0.5000000  -0.5000000   0.1250000), wk =   0.0069444
        k(   63) = (  -0.5000000  -0.5000000   0.2500000), wk =   0.0069444
        k(   64) = (  -0.5000000  -0.5000000   0.3750000), wk =   0.0069444
        k(   65) = (  -0.5000000  -0.5000000  -0.5000000), wk =   0.0034722

     Dense  grid:  1222357 G-vectors     FFT dimensions: ( 150, 150, 120)

     Smooth grid:   235103 G-vectors     FFT dimensions: (  90,  90,  64)

     Dynamical RAM for                 wfc:      31.86 MB

     Dynamical RAM for     wfc (w. buffer):    4173.36 MB

     Dynamical RAM for           str. fact:      55.96 MB

     Dynamical RAM for           local pot:       0.00 MB

     Dynamical RAM for          nlocal pot:      96.92 MB

     Dynamical RAM for                qrad:       7.91 MB

     Dynamical RAM for          rho,v,vnew:     235.51 MB

     Dynamical RAM for               rhoin:      78.50 MB

     Dynamical RAM for            rho*nmix:     596.85 MB

     Dynamical RAM for           G-vectors:      71.74 MB

     Dynamical RAM for          h,s,v(r/c):       0.92 MB

     Dynamical RAM for          <psi|beta>:       0.23 MB

     Dynamical RAM for                 psi:      63.72 MB

     Dynamical RAM for                hpsi:      63.72 MB

     Dynamical RAM for                spsi:      63.72 MB

     Dynamical RAM for      wfcinit/wfcrot:      63.83 MB

     Dynamical RAM for           addusdens:    3599.78 MB

     Dynamical RAM for          addusforce:    3786.34 MB

     Dynamical RAM for         addusstress:    3776.97 MB

     Estimated static dynamical RAM per process >       4.80 GB

     Estimated max dynamical RAM per process >       9.08 GB

     Atomic positions and unit cell read from directory:
     ./out/aiida.save/
 

     Check: negative core charge=   -0.000003
     Generating pointlists ...
     new r_m :   0.1971 (alat units)  2.7915 (a.u.) for type    1
     new r_m :   0.1217 (alat units)  1.7243 (a.u.) for type    2
     new r_m :   0.1217 (alat units)  1.7243 (a.u.) for type    3

     The initial density is read from file :
     ./out/aiida.save/charge-density


     negative rho (up, down):  0.000E+00 1.125E-04
     Starting wfcs from file
     Checking if some PAW data can be deallocated... 

     total cpu time spent up to now is       11.6 secs

     per-process dynamical memory:  1083.3 Mb

     Self-consistent Calculation
[tb_dev] Currently allocated     9.16E-05 Mbytes, locked:    0 /   2
[tb_pin] Currently allocated     0.00E+00 Mbytes, locked:    0 /   0

     iteration #  1     ecut=    90.00 Ry     beta= 0.20
     Davidson diagonalization with overlap

---- Real-time Memory Report at c_bands before calling an iterative solver
          1456 MiB given to the printing process from OS
          1142 MiB allocation reported by mallinfo(arena+hblkhd)
         58174 MiB available memory on the node where the printing process lives
     GPU memory used/free/total (MiB): 2644 / 13636 / 16280
------------------
     ethr =  1.00E-05,  avg # of iterations =  2.0

     Threshold (ethr) on eigenvalues was too large:
     Diagonalizing with lowered threshold

     Davidson diagonalization with overlap

---- Real-time Memory Report at c_bands before calling an iterative solver
          6039 MiB given to the printing process from OS
          1512 MiB allocation reported by mallinfo(arena+hblkhd)
         48598 MiB available memory on the node where the printing process lives
     GPU memory used/free/total (MiB): 7514 / 8766 / 16280
------------------
     ethr =  6.18E-07,  avg # of iterations =  1.8

     negative rho (up, down):  0.000E+00 1.108E-04

     total cpu time spent up to now is       57.4 secs

     total energy              =   -1578.04716402 Ry
     estimated scf accuracy    <       0.00072958 Ry

     total magnetization       =     9.66 Bohr mag/cell
     absolute magnetization    =    10.08 Bohr mag/cell
[tb_dev] Currently allocated     1.24E+01 Mbytes, locked:    0 /   8
[tb_pin] Currently allocated     0.00E+00 Mbytes, locked:    0 /   0

     iteration #  2     ecut=    90.00 Ry     beta= 0.20
     Davidson diagonalization with overlap

---- Real-time Memory Report at c_bands before calling an iterative solver
          6381 MiB given to the printing process from OS
          1694 MiB allocation reported by mallinfo(arena+hblkhd)
         48471 MiB available memory on the node where the printing process lives
     GPU memory used/free/total (MiB): 7542 / 8738 / 16280
------------------
     ethr =  6.18E-07,  avg # of iterations =  1.4

     negative rho (up, down):  0.000E+00 1.100E-04

     total cpu time spent up to now is       77.5 secs

     total energy              =   -1578.04730106 Ry
     estimated scf accuracy    <       0.00047306 Ry

     total magnetization       =     9.66 Bohr mag/cell
     absolute magnetization    =    10.09 Bohr mag/cell
[tb_dev] Currently allocated     1.24E+01 Mbytes, locked:    0 /   8
[tb_pin] Currently allocated     0.00E+00 Mbytes, locked:    0 /   0

     iteration #  3     ecut=    90.00 Ry     beta= 0.20
     Davidson diagonalization with overlap

---- Real-time Memory Report at c_bands before calling an iterative solver
          6498 MiB given to the printing process from OS
          1655 MiB allocation reported by mallinfo(arena+hblkhd)
         48451 MiB available memory on the node where the printing process lives
     GPU memory used/free/total (MiB): 7542 / 8738 / 16280
------------------
     ethr =  4.01E-07,  avg # of iterations =  1.0

     negative rho (up, down):  0.000E+00 1.010E-04

     total cpu time spent up to now is       97.2 secs

     total energy              =   -1578.04756976 Ry
     estimated scf accuracy    <       0.00040289 Ry

     total magnetization       =     9.63 Bohr mag/cell
     absolute magnetization    =    10.06 Bohr mag/cell
[tb_dev] Currently allocated     1.24E+01 Mbytes, locked:    0 /   8
[tb_pin] Currently allocated     0.00E+00 Mbytes, locked:    0 /   0

     iteration #  4     ecut=    90.00 Ry     beta= 0.20
     Davidson diagonalization with overlap

---- Real-time Memory Report at c_bands before calling an iterative solver
          6617 MiB given to the printing process from OS
          1733 MiB allocation reported by mallinfo(arena+hblkhd)
         48415 MiB available memory on the node where the printing process lives
     GPU memory used/free/total (MiB): 7542 / 8738 / 16280
------------------
     ethr =  3.41E-07,  avg # of iterations =  2.3

     negative rho (up, down):  0.000E+00 1.005E-04

     total cpu time spent up to now is      119.3 secs

     total energy              =   -1578.04786345 Ry
     estimated scf accuracy    <       0.00013742 Ry

     total magnetization       =     9.47 Bohr mag/cell
     absolute magnetization    =     9.89 Bohr mag/cell
[tb_dev] Currently allocated     1.24E+01 Mbytes, locked:    0 /   8
[tb_pin] Currently allocated     0.00E+00 Mbytes, locked:    0 /   0

     iteration #  5     ecut=    90.00 Ry     beta= 0.20
     Davidson diagonalization with overlap

---- Real-time Memory Report at c_bands before calling an iterative solver
          6727 MiB given to the printing process from OS
          1762 MiB allocation reported by mallinfo(arena+hblkhd)
         48387 MiB available memory on the node where the printing process lives
     GPU memory used/free/total (MiB): 7542 / 8738 / 16280
------------------
     ethr =  1.16E-07,  avg # of iterations =  1.3

     negative rho (up, down):  0.000E+00 9.309E-05

     total cpu time spent up to now is      139.3 secs

     total energy              =   -1578.04781841 Ry
     estimated scf accuracy    <       0.00012508 Ry

     total magnetization       =     9.46 Bohr mag/cell
     absolute magnetization    =     9.88 Bohr mag/cell
[tb_dev] Currently allocated     1.24E+01 Mbytes, locked:    0 /   8
[tb_pin] Currently allocated     0.00E+00 Mbytes, locked:    0 /   0

     iteration #  6     ecut=    90.00 Ry     beta= 0.20
     Davidson diagonalization with overlap

---- Real-time Memory Report at c_bands before calling an iterative solver
          6789 MiB given to the printing process from OS
          1792 MiB allocation reported by mallinfo(arena+hblkhd)
         48357 MiB available memory on the node where the printing process lives
     GPU memory used/free/total (MiB): 7542 / 8738 / 16280
------------------
     ethr =  1.06E-07,  avg # of iterations =  3.8

     negative rho (up, down):  0.000E+00 8.894E-05

     total cpu time spent up to now is      165.3 secs

     total energy              =   -1578.04809119 Ry
     estimated scf accuracy    <       0.00041998 Ry

     total magnetization       =     9.22 Bohr mag/cell
     absolute magnetization    =     9.65 Bohr mag/cell
[tb_dev] Currently allocated     1.24E+01 Mbytes, locked:    0 /   8
[tb_pin] Currently allocated     0.00E+00 Mbytes, locked:    0 /   0

     iteration #  7     ecut=    90.00 Ry     beta= 0.20
     Davidson diagonalization with overlap

---- Real-time Memory Report at c_bands before calling an iterative solver
          6818 MiB given to the printing process from OS
          1822 MiB allocation reported by mallinfo(arena+hblkhd)
         48327 MiB available memory on the node where the printing process lives
     GPU memory used/free/total (MiB): 7542 / 8738 / 16280
------------------
     ethr =  1.06E-07,  avg # of iterations =  2.5

     negative rho (up, down):  0.000E+00 8.301E-05

     total cpu time spent up to now is      188.2 secs

     total energy              =   -1578.04810374 Ry
     estimated scf accuracy    <       0.00028832 Ry

     total magnetization       =     9.10 Bohr mag/cell
     absolute magnetization    =     9.53 Bohr mag/cell
[tb_dev] Currently allocated     1.24E+01 Mbytes, locked:    0 /   8
[tb_pin] Currently allocated     0.00E+00 Mbytes, locked:    0 /   0

     iteration #  8     ecut=    90.00 Ry     beta= 0.20
     Davidson diagonalization with overlap

---- Real-time Memory Report at c_bands before calling an iterative solver
          6848 MiB given to the printing process from OS
          1851 MiB allocation reported by mallinfo(arena+hblkhd)
         48295 MiB available memory on the node where the printing process lives
     GPU memory used/free/total (MiB): 7542 / 8738 / 16280
------------------
     ethr =  1.06E-07,  avg # of iterations =  3.3

     negative rho (up, down):  0.000E+00 1.395E-04

     total cpu time spent up to now is      213.0 secs

     total energy              =   -1578.02816370 Ry
     estimated scf accuracy    <       0.00037766 Ry

     total magnetization       =     8.89 Bohr mag/cell
     absolute magnetization    =     9.34 Bohr mag/cell
[tb_dev] Currently allocated     1.24E+01 Mbytes, locked:    0 /   8
[tb_pin] Currently allocated     0.00E+00 Mbytes, locked:    0 /   0

     iteration #  9     ecut=    90.00 Ry     beta= 0.20
     Davidson diagonalization with overlap

---- Real-time Memory Report at c_bands before calling an iterative solver
          6878 MiB given to the printing process from OS
          1881 MiB allocation reported by mallinfo(arena+hblkhd)
         48271 MiB available memory on the node where the printing process lives
     GPU memory used/free/total (MiB): 7542 / 8738 / 16280
------------------
     c_bands:  1 eigenvalues not converged
     ethr =  1.06E-07,  avg # of iterations =  7.2

     negative rho (up, down):  0.000E+00 9.811E-05

     total cpu time spent up to now is      252.9 secs

     total energy              =   -1578.04342702 Ry
     estimated scf accuracy    <       0.01004272 Ry

     total magnetization       =     9.86 Bohr mag/cell
     absolute magnetization    =    10.36 Bohr mag/cell
[tb_dev] Currently allocated     1.24E+01 Mbytes, locked:    0 /   8
[tb_pin] Currently allocated     0.00E+00 Mbytes, locked:    0 /   0

     iteration # 10     ecut=    90.00 Ry     beta= 0.20
     Davidson diagonalization with overlap

---- Real-time Memory Report at c_bands before calling an iterative solver
          6907 MiB given to the printing process from OS
          1911 MiB allocation reported by mallinfo(arena+hblkhd)
         48242 MiB available memory on the node where the printing process lives
     GPU memory used/free/total (MiB): 7542 / 8738 / 16280
------------------
     ethr =  1.06E-07,  avg # of iterations =  6.4

     negative rho (up, down):  0.000E+00 9.646E-05

     total cpu time spent up to now is      288.6 secs

     total energy              =   -1578.04800040 Ry
     estimated scf accuracy    <       0.00010591 Ry

     total magnetization       =     9.38 Bohr mag/cell
     absolute magnetization    =     9.80 Bohr mag/cell
[tb_dev] Currently allocated     1.24E+01 Mbytes, locked:    0 /   8
[tb_pin] Currently allocated     0.00E+00 Mbytes, locked:    0 /   0

     iteration # 11     ecut=    90.00 Ry     beta= 0.20
     Davidson diagonalization with overlap

---- Real-time Memory Report at c_bands before calling an iterative solver
          6923 MiB given to the printing process from OS
          1877 MiB allocation reported by mallinfo(arena+hblkhd)
         48232 MiB available memory on the node where the printing process lives
     GPU memory used/free/total (MiB): 7542 / 8738 / 16280
------------------
     ethr =  8.98E-08,  avg # of iterations =  3.2

     negative rho (up, down):  0.000E+00 9.102E-05

     total cpu time spent up to now is      310.6 secs

     total energy              =   -1578.04798886 Ry
     estimated scf accuracy    <       0.00012045 Ry

     total magnetization       =     9.33 Bohr mag/cell
     absolute magnetization    =     9.75 Bohr mag/cell
[tb_dev] Currently allocated     1.24E+01 Mbytes, locked:    0 /   8
[tb_pin] Currently allocated     0.00E+00 Mbytes, locked:    0 /   0

     iteration # 12     ecut=    90.00 Ry     beta= 0.20
     Davidson diagonalization with overlap

---- Real-time Memory Report at c_bands before calling an iterative solver
          6931 MiB given to the printing process from OS
          1927 MiB allocation reported by mallinfo(arena+hblkhd)
         48220 MiB available memory on the node where the printing process lives
     GPU memory used/free/total (MiB): 7542 / 8738 / 16280
------------------
     ethr =  8.98E-08,  avg # of iterations =  3.4

     negative rho (up, down):  0.000E+00 8.927E-05

     total cpu time spent up to now is      335.9 secs

     total energy              =   -1578.04817146 Ry
     estimated scf accuracy    <       0.00007497 Ry

     total magnetization       =     9.17 Bohr mag/cell
     absolute magnetization    =     9.59 Bohr mag/cell
[tb_dev] Currently allocated     1.24E+01 Mbytes, locked:    0 /   8
[tb_pin] Currently allocated     0.00E+00 Mbytes, locked:    0 /   0

     iteration # 13     ecut=    90.00 Ry     beta= 0.20
     Davidson diagonalization with overlap

---- Real-time Memory Report at c_bands before calling an iterative solver
          6938 MiB given to the printing process from OS
          1893 MiB allocation reported by mallinfo(arena+hblkhd)
         52895 MiB available memory on the node where the printing process lives
     GPU memory used/free/total (MiB): 7542 / 8738 / 16280
------------------
     ethr =  6.35E-08,  avg # of iterations =  1.9

     negative rho (up, down):  0.000E+00 8.699E-05

     total cpu time spent up to now is      357.2 secs

     total energy              =   -1578.04820981 Ry
     estimated scf accuracy    <       0.00007525 Ry

     total magnetization       =     9.11 Bohr mag/cell
     absolute magnetization    =     9.54 Bohr mag/cell
[tb_dev] Currently allocated     1.24E+01 Mbytes, locked:    0 /   8
[tb_pin] Currently allocated     0.00E+00 Mbytes, locked:    0 /   0

     iteration # 14     ecut=    90.00 Ry     beta= 0.20
     Davidson diagonalization with overlap

---- Real-time Memory Report at c_bands before calling an iterative solver
          6946 MiB given to the printing process from OS
          1943 MiB allocation reported by mallinfo(arena+hblkhd)
         52881 MiB available memory on the node where the printing process lives
     GPU memory used/free/total (MiB): 7542 / 8738 / 16280
------------------
     ethr =  6.35E-08,  avg # of iterations =  2.3

     negative rho (up, down):  0.000E+00 8.322E-05

     total cpu time spent up to now is      379.3 secs

     total energy              =   -1578.04823974 Ry
     estimated scf accuracy    <       0.00008502 Ry

     total magnetization       =     9.03 Bohr mag/cell
     absolute magnetization    =     9.47 Bohr mag/cell
[tb_dev] Currently allocated     1.24E+01 Mbytes, locked:    0 /   8
[tb_pin] Currently allocated     0.00E+00 Mbytes, locked:    0 /   0

     iteration # 15     ecut=    90.00 Ry     beta= 0.20
     Davidson diagonalization with overlap

---- Real-time Memory Report at c_bands before calling an iterative solver
          6955 MiB given to the printing process from OS
          1909 MiB allocation reported by mallinfo(arena+hblkhd)
         52857 MiB available memory on the node where the printing process lives
     GPU memory used/free/total (MiB): 7542 / 8738 / 16280
------------------
     ethr =  6.35E-08,  avg # of iterations =  3.0

     negative rho (up, down):  0.000E+00 8.598E-05

     total cpu time spent up to now is      403.1 secs

     total energy              =   -1578.04822801 Ry
     estimated scf accuracy    <       0.00009852 Ry

     total magnetization       =     8.90 Bohr mag/cell
     absolute magnetization    =     9.34 Bohr mag/cell
[tb_dev] Currently allocated     1.24E+01 Mbytes, locked:    0 /   8
[tb_pin] Currently allocated     0.00E+00 Mbytes, locked:    0 /   0

     iteration # 16     ecut=    90.00 Ry     beta= 0.20
     Davidson diagonalization with overlap

---- Real-time Memory Report at c_bands before calling an iterative solver
          6963 MiB given to the printing process from OS
          1959 MiB allocation reported by mallinfo(arena+hblkhd)
         52861 MiB available memory on the node where the printing process lives
     GPU memory used/free/total (MiB): 7542 / 8738 / 16280
------------------
     ethr =  6.35E-08,  avg # of iterations =  1.9

     negative rho (up, down):  0.000E+00 8.133E-05

     total cpu time spent up to now is      424.4 secs

     total energy              =   -1578.04825564 Ry
     estimated scf accuracy    <       0.00007995 Ry

     total magnetization       =     9.00 Bohr mag/cell
     absolute magnetization    =     9.43 Bohr mag/cell
[tb_dev] Currently allocated     1.24E+01 Mbytes, locked:    0 /   8
[tb_pin] Currently allocated     0.00E+00 Mbytes, locked:    0 /   0

     iteration # 17     ecut=    90.00 Ry     beta= 0.20
     Davidson diagonalization with overlap

---- Real-time Memory Report at c_bands before calling an iterative solver
          6971 MiB given to the printing process from OS
          1925 MiB allocation reported by mallinfo(arena+hblkhd)
         52851 MiB available memory on the node where the printing process lives
     GPU memory used/free/total (MiB): 7542 / 8738 / 16280
------------------
     ethr =  6.35E-08,  avg # of iterations =  2.4

     negative rho (up, down):  0.000E+00 8.024E-05

     total cpu time spent up to now is      447.6 secs

     total energy              =   -1578.04840691 Ry
     estimated scf accuracy    <       0.00009990 Ry

     total magnetization       =     8.83 Bohr mag/cell
     absolute magnetization    =     9.28 Bohr mag/cell
[tb_dev] Currently allocated     1.24E+01 Mbytes, locked:    0 /   8
[tb_pin] Currently allocated     0.00E+00 Mbytes, locked:    0 /   0

     iteration # 18     ecut=    90.00 Ry     beta= 0.20
     Davidson diagonalization with overlap

---- Real-time Memory Report at c_bands before calling an iterative solver
          6980 MiB given to the printing process from OS
          1975 MiB allocation reported by mallinfo(arena+hblkhd)
         52845 MiB available memory on the node where the printing process lives
     GPU memory used/free/total (MiB): 7542 / 8738 / 16280
------------------
     ethr =  6.35E-08,  avg # of iterations =  1.8

     negative rho (up, down):  0.000E+00 1.163E-04

     total cpu time spent up to now is      468.4 secs

     total energy              =   -1578.03975677 Ry
     estimated scf accuracy    <       0.00013346 Ry

     total magnetization       =     8.79 Bohr mag/cell
     absolute magnetization    =     9.24 Bohr mag/cell
[tb_dev] Currently allocated     1.24E+01 Mbytes, locked:    0 /   8
[tb_pin] Currently allocated     0.00E+00 Mbytes, locked:    0 /   0

     iteration # 19     ecut=    90.00 Ry     beta= 0.20
     Davidson diagonalization with overlap

---- Real-time Memory Report at c_bands before calling an iterative solver
          6987 MiB given to the printing process from OS
          1942 MiB allocation reported by mallinfo(arena+hblkhd)
         52843 MiB available memory on the node where the printing process lives
     GPU memory used/free/total (MiB): 7542 / 8738 / 16280
------------------
     ethr =  6.35E-08,  avg # of iterations =  6.4

     negative rho (up, down):  0.000E+00 8.603E-05

     total cpu time spent up to now is      504.9 secs

     total energy              =   -1578.04458974 Ry
     estimated scf accuracy    <       0.00171125 Ry

     total magnetization       =     9.70 Bohr mag/cell
     absolute magnetization    =    10.13 Bohr mag/cell
[tb_dev] Currently allocated     1.24E+01 Mbytes, locked:    0 /   8
[tb_pin] Currently allocated     0.00E+00 Mbytes, locked:    0 /   0

     iteration # 20     ecut=    90.00 Ry     beta= 0.20
     Davidson diagonalization with overlap

---- Real-time Memory Report at c_bands before calling an iterative solver
          6995 MiB given to the printing process from OS
          1991 MiB allocation reported by mallinfo(arena+hblkhd)
         52833 MiB available memory on the node where the printing process lives
     GPU memory used/free/total (MiB): 7542 / 8738 / 16280
------------------
     ethr =  6.35E-08,  avg # of iterations =  6.3

     negative rho (up, down):  0.000E+00 8.438E-05

     total cpu time spent up to now is      539.9 secs

     total energy              =   -1578.04830469 Ry
     estimated scf accuracy    <       0.00023167 Ry

     total magnetization       =     8.99 Bohr mag/cell
     absolute magnetization    =     9.42 Bohr mag/cell
[tb_dev] Currently allocated     1.24E+01 Mbytes, locked:    0 /   8
[tb_pin] Currently allocated     0.00E+00 Mbytes, locked:    0 /   0

     iteration # 21     ecut=    90.00 Ry     beta= 0.20
     Davidson diagonalization with overlap

---- Real-time Memory Report at c_bands before calling an iterative solver
          7003 MiB given to the printing process from OS
          1958 MiB allocation reported by mallinfo(arena+hblkhd)
         52833 MiB available memory on the node where the printing process lives
     GPU memory used/free/total (MiB): 7542 / 8738 / 16280
------------------
     ethr =  6.35E-08,  avg # of iterations =  2.5

     negative rho (up, down):  0.000E+00 9.052E-05

     total cpu time spent up to now is      561.3 secs

     total energy              =   -1578.04795380 Ry
     estimated scf accuracy    <       0.00024740 Ry

     total magnetization       =     8.93 Bohr mag/cell
     absolute magnetization    =     9.37 Bohr mag/cell
[tb_dev] Currently allocated     1.24E+01 Mbytes, locked:    0 /   8
[tb_pin] Currently allocated     0.00E+00 Mbytes, locked:    0 /   0

     iteration # 22     ecut=    90.00 Ry     beta= 0.20
     Davidson diagonalization with overlap

---- Real-time Memory Report at c_bands before calling an iterative solver
          7011 MiB given to the printing process from OS
          2007 MiB allocation reported by mallinfo(arena+hblkhd)
         52816 MiB available memory on the node where the printing process lives
     GPU memory used/free/total (MiB): 7542 / 8738 / 16280
------------------
     ethr =  6.35E-08,  avg # of iterations =  3.2

     negative rho (up, down):  0.000E+00 1.025E-04

     total cpu time spent up to now is      586.6 secs

     total energy              =   -1578.04699519 Ry
     estimated scf accuracy    <       0.00018275 Ry

     total magnetization       =     9.14 Bohr mag/cell
     absolute magnetization    =     9.57 Bohr mag/cell
[tb_dev] Currently allocated     1.24E+01 Mbytes, locked:    0 /   8
[tb_pin] Currently allocated     0.00E+00 Mbytes, locked:    0 /   0

     iteration # 23     ecut=    90.00 Ry     beta= 0.20
     Davidson diagonalization with overlap

---- Real-time Memory Report at c_bands before calling an iterative solver
          7020 MiB given to the printing process from OS
          1974 MiB allocation reported by mallinfo(arena+hblkhd)
         52817 MiB available memory on the node where the printing process lives
     GPU memory used/free/total (MiB): 7542 / 8738 / 16280
------------------
     ethr =  6.35E-08,  avg # of iterations =  4.8

     negative rho (up, down):  0.000E+00 9.160E-05

     total cpu time spent up to now is      616.6 secs

     total energy              =   -1578.04757979 Ry
     estimated scf accuracy    <       0.00027473 Ry

     total magnetization       =     9.48 Bohr mag/cell
     absolute magnetization    =     9.89 Bohr mag/cell
[tb_dev] Currently allocated     1.24E+01 Mbytes, locked:    0 /   8
[tb_pin] Currently allocated     0.00E+00 Mbytes, locked:    0 /   0

     iteration # 24     ecut=    90.00 Ry     beta= 0.20
     Davidson diagonalization with overlap

---- Real-time Memory Report at c_bands before calling an iterative solver
          7028 MiB given to the printing process from OS
          2023 MiB allocation reported by mallinfo(arena+hblkhd)
         52805 MiB available memory on the node where the printing process lives
     GPU memory used/free/total (MiB): 7542 / 8738 / 16280
------------------
     ethr =  6.35E-08,  avg # of iterations =  4.3

     negative rho (up, down):  0.000E+00 9.931E-05

     total cpu time spent up to now is      644.7 secs

     total energy              =   -1578.04760393 Ry
     estimated scf accuracy    <       0.00012334 Ry

     total magnetization       =     9.18 Bohr mag/cell
     absolute magnetization    =     9.61 Bohr mag/cell
[tb_dev] Currently allocated     1.24E+01 Mbytes, locked:    0 /   8
[tb_pin] Currently allocated     0.00E+00 Mbytes, locked:    0 /   0

     iteration # 25     ecut=    90.00 Ry     beta= 0.20
     Davidson diagonalization with overlap

---- Real-time Memory Report at c_bands before calling an iterative solver
          7035 MiB given to the printing process from OS
          1990 MiB allocation reported by mallinfo(arena+hblkhd)
         52802 MiB available memory on the node where the printing process lives
     GPU memory used/free/total (MiB): 7542 / 8738 / 16280
------------------
     ethr =  6.35E-08,  avg # of iterations =  3.7

     negative rho (up, down):  0.000E+00 9.602E-05

     total cpu time spent up to now is      671.3 secs

     total energy              =   -1578.04797612 Ry
     estimated scf accuracy    <       0.00015977 Ry

     total magnetization       =     9.40 Bohr mag/cell
     absolute magnetization    =     9.82 Bohr mag/cell
[tb_dev] Currently allocated     1.24E+01 Mbytes, locked:    0 /   8
[tb_pin] Currently allocated     0.00E+00 Mbytes, locked:    0 /   0

     iteration # 26     ecut=    90.00 Ry     beta= 0.20
     Davidson diagonalization with overlap

---- Real-time Memory Report at c_bands before calling an iterative solver
          7043 MiB given to the printing process from OS
          2039 MiB allocation reported by mallinfo(arena+hblkhd)
         52790 MiB available memory on the node where the printing process lives
     GPU memory used/free/total (MiB): 7542 / 8738 / 16280
------------------
     ethr =  6.35E-08,  avg # of iterations =  2.1

     negative rho (up, down):  0.000E+00 9.757E-05

     total cpu time spent up to now is      692.8 secs

     total energy              =   -1578.04796928 Ry
     estimated scf accuracy    <       0.00012342 Ry

     total magnetization       =     9.32 Bohr mag/cell
     absolute magnetization    =     9.74 Bohr mag/cell
[tb_dev] Currently allocated     1.24E+01 Mbytes, locked:    0 /   8
[tb_pin] Currently allocated     0.00E+00 Mbytes, locked:    0 /   0

     iteration # 27     ecut=    90.00 Ry     beta= 0.20
     Davidson diagonalization with overlap

---- Real-time Memory Report at c_bands before calling an iterative solver
          7051 MiB given to the printing process from OS
          2006 MiB allocation reported by mallinfo(arena+hblkhd)
         52787 MiB available memory on the node where the printing process lives
     GPU memory used/free/total (MiB): 7542 / 8738 / 16280
------------------
     ethr =  6.35E-08,  avg # of iterations =  1.2

     negative rho (up, down):  0.000E+00 8.870E-05

     total cpu time spent up to now is      712.7 secs

     total energy              =   -1578.04780337 Ry
     estimated scf accuracy    <       0.00013037 Ry

     total magnetization       =     9.36 Bohr mag/cell
     absolute magnetization    =     9.78 Bohr mag/cell
[tb_dev] Currently allocated     1.24E+01 Mbytes, locked:    0 /   8
[tb_pin] Currently allocated     0.00E+00 Mbytes, locked:    0 /   0

     iteration # 28     ecut=    90.00 Ry     beta= 0.20
     Davidson diagonalization with overlap

---- Real-time Memory Report at c_bands before calling an iterative solver
          7059 MiB given to the printing process from OS
         -2040 MiB allocation reported by mallinfo(arena+hblkhd)
         52773 MiB available memory on the node where the printing process lives
     GPU memory used/free/total (MiB): 7542 / 8738 / 16280
------------------
     ethr =  6.35E-08,  avg # of iterations =  4.1

     negative rho (up, down):  0.000E+00 1.106E-04

     total cpu time spent up to now is      740.0 secs

     total energy              =   -1578.04488816 Ry
     estimated scf accuracy    <       0.00009122 Ry

     total magnetization       =     9.09 Bohr mag/cell
     absolute magnetization    =     9.52 Bohr mag/cell
[tb_dev] Currently allocated     1.24E+01 Mbytes, locked:    0 /   8
[tb_pin] Currently allocated     0.00E+00 Mbytes, locked:    0 /   0

     iteration # 29     ecut=    90.00 Ry     beta= 0.20
     Davidson diagonalization with overlap

---- Real-time Memory Report at c_bands before calling an iterative solver
          7068 MiB given to the printing process from OS
          2022 MiB allocation reported by mallinfo(arena+hblkhd)
         52773 MiB available memory on the node where the printing process lives
     GPU memory used/free/total (MiB): 7542 / 8738 / 16280
------------------
     ethr =  6.35E-08,  avg # of iterations =  5.6

     negative rho (up, down):  0.000E+00 8.689E-05

     total cpu time spent up to now is      772.2 secs

     total energy              =   -1578.04579664 Ry
     estimated scf accuracy    <       0.00073503 Ry

     total magnetization       =     9.63 Bohr mag/cell
     absolute magnetization    =    10.05 Bohr mag/cell
[tb_dev] Currently allocated     1.24E+01 Mbytes, locked:    0 /   8
[tb_pin] Currently allocated     0.00E+00 Mbytes, locked:    0 /   0

     iteration # 30     ecut=    90.00 Ry     beta= 0.20
     Davidson diagonalization with overlap

---- Real-time Memory Report at c_bands before calling an iterative solver
          7075 MiB given to the printing process from OS
         -2024 MiB allocation reported by mallinfo(arena+hblkhd)
         52755 MiB available memory on the node where the printing process lives
     GPU memory used/free/total (MiB): 7542 / 8738 / 16280
------------------
     ethr =  6.35E-08,  avg # of iterations =  5.8

     negative rho (up, down):  0.000E+00 8.742E-05

     total cpu time spent up to now is      804.9 secs

     total energy              =   -1578.04823835 Ry
     estimated scf accuracy    <       0.00014615 Ry

     total magnetization       =     9.02 Bohr mag/cell
     absolute magnetization    =     9.46 Bohr mag/cell
[tb_dev] Currently allocated     1.24E+01 Mbytes, locked:    0 /   8
[tb_pin] Currently allocated     0.00E+00 Mbytes, locked:    0 /   0

     iteration # 31     ecut=    90.00 Ry     beta= 0.20
     Davidson diagonalization with overlap

---- Real-time Memory Report at c_bands before calling an iterative solver
          7083 MiB given to the printing process from OS
          2038 MiB allocation reported by mallinfo(arena+hblkhd)
         52756 MiB available memory on the node where the printing process lives
     GPU memory used/free/total (MiB): 7542 / 8738 / 16280
------------------
     ethr =  6.35E-08,  avg # of iterations =  1.5

     negative rho (up, down):  0.000E+00 8.526E-05

     total cpu time spent up to now is      824.9 secs

     total energy              =   -1578.04826206 Ry
     estimated scf accuracy    <       0.00014471 Ry

     total magnetization       =     9.04 Bohr mag/cell
     absolute magnetization    =     9.47 Bohr mag/cell
[tb_dev] Currently allocated     1.24E+01 Mbytes, locked:    0 /   8
[tb_pin] Currently allocated     0.00E+00 Mbytes, locked:    0 /   0

     iteration # 32     ecut=    90.00 Ry     beta= 0.20
     Davidson diagonalization with overlap

---- Real-time Memory Report at c_bands before calling an iterative solver
          7091 MiB given to the printing process from OS
         -2008 MiB allocation reported by mallinfo(arena+hblkhd)
         52742 MiB available memory on the node where the printing process lives
     GPU memory used/free/total (MiB): 7542 / 8738 / 16280
------------------
     ethr =  6.35E-08,  avg # of iterations =  1.6

     negative rho (up, down):  0.000E+00 9.213E-05

     total cpu time spent up to now is      845.7 secs

     total energy              =   -1578.04787274 Ry
     estimated scf accuracy    <       0.00014365 Ry

     total magnetization       =     8.97 Bohr mag/cell
     absolute magnetization    =     9.41 Bohr mag/cell
[tb_dev] Currently allocated     1.24E+01 Mbytes, locked:    0 /   8
[tb_pin] Currently allocated     0.00E+00 Mbytes, locked:    0 /   0

     iteration # 33     ecut=    90.00 Ry     beta= 0.20
     Davidson diagonalization with overlap

---- Real-time Memory Report at c_bands before calling an iterative solver
          7099 MiB given to the printing process from OS
         -2041 MiB allocation reported by mallinfo(arena+hblkhd)
         52724 MiB available memory on the node where the printing process lives
     GPU memory used/free/total (MiB): 7542 / 8738 / 16280
------------------
     ethr =  6.35E-08,  avg # of iterations =  3.1

     negative rho (up, down):  0.000E+00 8.909E-05

     total cpu time spent up to now is      871.4 secs

     total energy              =   -1578.04816444 Ry
     estimated scf accuracy    <       0.00018580 Ry

     total magnetization       =     9.19 Bohr mag/cell
     absolute magnetization    =     9.61 Bohr mag/cell
[tb_dev] Currently allocated     1.24E+01 Mbytes, locked:    0 /   8
[tb_pin] Currently allocated     0.00E+00 Mbytes, locked:    0 /   0

     iteration # 34     ecut=    90.00 Ry     beta= 0.20
     Davidson diagonalization with overlap

---- Real-time Memory Report at c_bands before calling an iterative solver
          7108 MiB given to the printing process from OS
         -1992 MiB allocation reported by mallinfo(arena+hblkhd)
         52717 MiB available memory on the node where the printing process lives
     GPU memory used/free/total (MiB): 7542 / 8738 / 16280
------------------
     ethr =  6.35E-08,  avg # of iterations =  2.0

     negative rho (up, down):  0.000E+00 8.623E-05

     total cpu time spent up to now is      892.7 secs

     total energy              =   -1578.04823328 Ry
     estimated scf accuracy    <       0.00025274 Ry

     total magnetization       =     9.09 Bohr mag/cell
     absolute magnetization    =     9.52 Bohr mag/cell
[tb_dev] Currently allocated     1.24E+01 Mbytes, locked:    0 /   8
[tb_pin] Currently allocated     0.00E+00 Mbytes, locked:    0 /   0

     iteration # 35     ecut=    90.00 Ry     beta= 0.20
     Davidson diagonalization with overlap

---- Real-time Memory Report at c_bands before calling an iterative solver
          7116 MiB given to the printing process from OS
         -2025 MiB allocation reported by mallinfo(arena+hblkhd)
         52717 MiB available memory on the node where the printing process lives
     GPU memory used/free/total (MiB): 7542 / 8738 / 16280
------------------
     ethr =  6.35E-08,  avg # of iterations =  2.3

     negative rho (up, down):  0.000E+00 9.750E-05

     total cpu time spent up to now is      914.9 secs

     total energy              =   -1578.04726296 Ry
     estimated scf accuracy    <       0.00026647 Ry

     total magnetization       =     8.99 Bohr mag/cell
     absolute magnetization    =     9.43 Bohr mag/cell
[tb_dev] Currently allocated     1.24E+01 Mbytes, locked:    0 /   8
[tb_pin] Currently allocated     0.00E+00 Mbytes, locked:    0 /   0

     iteration # 36     ecut=    90.00 Ry     beta= 0.20
     Davidson diagonalization with overlap

---- Real-time Memory Report at c_bands before calling an iterative solver
          7123 MiB given to the printing process from OS
         -1976 MiB allocation reported by mallinfo(arena+hblkhd)
         52701 MiB available memory on the node where the printing process lives
     GPU memory used/free/total (MiB): 7542 / 8738 / 16280
------------------
     ethr =  6.35E-08,  avg # of iterations =  4.5

     negative rho (up, down):  0.000E+00 9.926E-05

     total cpu time spent up to now is      943.5 secs

     total energy              =   -1578.04790294 Ry
     estimated scf accuracy    <       0.00022634 Ry

     total magnetization       =     9.35 Bohr mag/cell
     absolute magnetization    =     9.76 Bohr mag/cell
[tb_dev] Currently allocated     1.24E+01 Mbytes, locked:    0 /   8
[tb_pin] Currently allocated     0.00E+00 Mbytes, locked:    0 /   0

     iteration # 37     ecut=    90.00 Ry     beta= 0.20
     Davidson diagonalization with overlap

---- Real-time Memory Report at c_bands before calling an iterative solver
          7131 MiB given to the printing process from OS
         -2009 MiB allocation reported by mallinfo(arena+hblkhd)
         52705 MiB available memory on the node where the printing process lives
     GPU memory used/free/total (MiB): 7542 / 8738 / 16280
------------------
     ethr =  6.35E-08,  avg # of iterations =  1.6

     negative rho (up, down):  0.000E+00 1.014E-04

     total cpu time spent up to now is      964.2 secs

     total energy              =   -1578.04782227 Ry
     estimated scf accuracy    <       0.00029515 Ry

     total magnetization       =     9.39 Bohr mag/cell
     absolute magnetization    =     9.81 Bohr mag/cell
[tb_dev] Currently allocated     1.24E+01 Mbytes, locked:    0 /   8
[tb_pin] Currently allocated     0.00E+00 Mbytes, locked:    0 /   0

     iteration # 38     ecut=    90.00 Ry     beta= 0.20
     Davidson diagonalization with overlap

---- Real-time Memory Report at c_bands before calling an iterative solver
          7139 MiB given to the printing process from OS
         -1960 MiB allocation reported by mallinfo(arena+hblkhd)
         52689 MiB available memory on the node where the printing process lives
     GPU memory used/free/total (MiB): 7542 / 8738 / 16280
------------------
     ethr =  6.35E-08,  avg # of iterations =  2.1

     negative rho (up, down):  0.000E+00 8.317E-05

     total cpu time spent up to now is      985.8 secs

     total energy              =   -1578.04662213 Ry
     estimated scf accuracy    <       0.00038280 Ry

     total magnetization       =     9.44 Bohr mag/cell
     absolute magnetization    =     9.86 Bohr mag/cell
[tb_dev] Currently allocated     1.24E+01 Mbytes, locked:    0 /   8
[tb_pin] Currently allocated     0.00E+00 Mbytes, locked:    0 /   0

     iteration # 39     ecut=    90.00 Ry     beta= 0.20
     Davidson diagonalization with overlap

---- Real-time Memory Report at c_bands before calling an iterative solver
          7147 MiB given to the printing process from OS
         -1993 MiB allocation reported by mallinfo(arena+hblkhd)
         52690 MiB available memory on the node where the printing process lives
     GPU memory used/free/total (MiB): 7542 / 8738 / 16280
------------------
     ethr =  6.35E-08,  avg # of iterations =  5.2

     negative rho (up, down):  0.000E+00 8.961E-05

     total cpu time spent up to now is     1017.0 secs

     total energy              =   -1578.04795360 Ry
     estimated scf accuracy    <       0.00016480 Ry

     total magnetization       =     8.89 Bohr mag/cell
     absolute magnetization    =     9.33 Bohr mag/cell
[tb_dev] Currently allocated     1.24E+01 Mbytes, locked:    0 /   8
[tb_pin] Currently allocated     0.00E+00 Mbytes, locked:    0 /   0

     iteration # 40     ecut=    90.00 Ry     beta= 0.20
     Davidson diagonalization with overlap

---- Real-time Memory Report at c_bands before calling an iterative solver
          7156 MiB given to the printing process from OS
         -1944 MiB allocation reported by mallinfo(arena+hblkhd)
         52676 MiB available memory on the node where the printing process lives
     GPU memory used/free/total (MiB): 7542 / 8738 / 16280
------------------
     ethr =  6.35E-08,  avg # of iterations =  3.3

     negative rho (up, down):  0.000E+00 8.379E-05

     total cpu time spent up to now is     1042.6 secs

     total energy              =   -1578.04813765 Ry
     estimated scf accuracy    <       0.00014403 Ry

     total magnetization       =     9.11 Bohr mag/cell
     absolute magnetization    =     9.54 Bohr mag/cell
[tb_dev] Currently allocated     1.24E+01 Mbytes, locked:    0 /   8
[tb_pin] Currently allocated     0.00E+00 Mbytes, locked:    0 /   0

     iteration # 41     ecut=    90.00 Ry     beta= 0.20
     Davidson diagonalization with overlap

---- Real-time Memory Report at c_bands before calling an iterative solver
          7164 MiB given to the printing process from OS
         -1977 MiB allocation reported by mallinfo(arena+hblkhd)
         52672 MiB available memory on the node where the printing process lives
     GPU memory used/free/total (MiB): 7542 / 8738 / 16280
------------------
     ethr =  6.35E-08,  avg # of iterations =  3.1

     negative rho (up, down):  0.000E+00 8.981E-05

     total cpu time spent up to now is     1067.7 secs

     total energy              =   -1578.04797619 Ry
     estimated scf accuracy    <       0.00016766 Ry

     total magnetization       =     8.91 Bohr mag/cell
     absolute magnetization    =     9.35 Bohr mag/cell
[tb_dev] Currently allocated     1.24E+01 Mbytes, locked:    0 /   8
[tb_pin] Currently allocated     0.00E+00 Mbytes, locked:    0 /   0

     iteration # 42     ecut=    90.00 Ry     beta= 0.20
     Davidson diagonalization with overlap

---- Real-time Memory Report at c_bands before calling an iterative solver
          7171 MiB given to the printing process from OS
         -1928 MiB allocation reported by mallinfo(arena+hblkhd)
         52660 MiB available memory on the node where the printing process lives
     GPU memory used/free/total (MiB): 7542 / 8738 / 16280
------------------
     ethr =  6.35E-08,  avg # of iterations =  3.1

     negative rho (up, down):  0.000E+00 9.325E-05

     total cpu time spent up to now is     1093.0 secs

     total energy              =   -1578.04803219 Ry
     estimated scf accuracy    <       0.00012032 Ry

     total magnetization       =     9.12 Bohr mag/cell
     absolute magnetization    =     9.55 Bohr mag/cell
[tb_dev] Currently allocated     1.24E+01 Mbytes, locked:    0 /   8
[tb_pin] Currently allocated     0.00E+00 Mbytes, locked:    0 /   0

     iteration # 43     ecut=    90.00 Ry     beta= 0.20
     Davidson diagonalization with overlap

---- Real-time Memory Report at c_bands before calling an iterative solver
          7179 MiB given to the printing process from OS
         -1961 MiB allocation reported by mallinfo(arena+hblkhd)
         52659 MiB available memory on the node where the printing process lives
     GPU memory used/free/total (MiB): 7542 / 8738 / 16280
------------------
     ethr =  6.35E-08,  avg # of iterations =  2.5

     negative rho (up, down):  0.000E+00 5.623E-05

     total cpu time spent up to now is     1116.1 secs

     total energy              =   -1578.04114847 Ry
     estimated scf accuracy    <       0.00013110 Ry

     total magnetization       =     9.23 Bohr mag/cell
     absolute magnetization    =     9.65 Bohr mag/cell
[tb_dev] Currently allocated     1.24E+01 Mbytes, locked:    0 /   8
[tb_pin] Currently allocated     0.00E+00 Mbytes, locked:    0 /   0

     iteration # 44     ecut=    90.00 Ry     beta= 0.20
     Davidson diagonalization with overlap

---- Real-time Memory Report at c_bands before calling an iterative solver
          7187 MiB given to the printing process from OS
         -1912 MiB allocation reported by mallinfo(arena+hblkhd)
         52641 MiB available memory on the node where the printing process lives
     GPU memory used/free/total (MiB): 7542 / 8738 / 16280
------------------
     ethr =  6.35E-08,  avg # of iterations =  6.5

     negative rho (up, down):  0.000E+00 6.593E-05

     total cpu time spent up to now is     1153.5 secs

     total energy              =   -1578.04832998 Ry
     estimated scf accuracy    <       0.00049072 Ry

     total magnetization       =     7.86 Bohr mag/cell
     absolute magnetization    =     8.38 Bohr mag/cell
[tb_dev] Currently allocated     1.24E+01 Mbytes, locked:    0 /   8
[tb_pin] Currently allocated     0.00E+00 Mbytes, locked:    0 /   0

     iteration # 45     ecut=    90.00 Ry     beta= 0.20
     Davidson diagonalization with overlap

---- Real-time Memory Report at c_bands before calling an iterative solver
          7195 MiB given to the printing process from OS
         -1945 MiB allocation reported by mallinfo(arena+hblkhd)
         52643 MiB available memory on the node where the printing process lives
     GPU memory used/free/total (MiB): 7542 / 8738 / 16280
------------------
     ethr =  6.35E-08,  avg # of iterations =  4.1

     negative rho (up, down):  0.000E+00 6.606E-05

     total cpu time spent up to now is     1181.1 secs

     total energy              =   -1578.04895141 Ry
     estimated scf accuracy    <       0.00037719 Ry

     total magnetization       =     8.23 Bohr mag/cell
     absolute magnetization    =     8.72 Bohr mag/cell
[tb_dev] Currently allocated     1.24E+01 Mbytes, locked:    0 /   8
[tb_pin] Currently allocated     0.00E+00 Mbytes, locked:    0 /   0

     iteration # 46     ecut=    90.00 Ry     beta= 0.20
     Davidson diagonalization with overlap

---- Real-time Memory Report at c_bands before calling an iterative solver
          7204 MiB given to the printing process from OS
         -1896 MiB allocation reported by mallinfo(arena+hblkhd)
         52628 MiB available memory on the node where the printing process lives
     GPU memory used/free/total (MiB): 7542 / 8738 / 16280
------------------
     ethr =  6.35E-08,  avg # of iterations =  1.1

     negative rho (up, down):  0.000E+00 1.267E-04

     total cpu time spent up to now is     1200.9 secs

     total energy              =   -1578.02393923 Ry
     estimated scf accuracy    <       0.00037535 Ry

     total magnetization       =     8.23 Bohr mag/cell
     absolute magnetization    =     8.72 Bohr mag/cell
[tb_dev] Currently allocated     1.24E+01 Mbytes, locked:    0 /   8
[tb_pin] Currently allocated     0.00E+00 Mbytes, locked:    0 /   0

     iteration # 47     ecut=    90.00 Ry     beta= 0.20
     Davidson diagonalization with overlap

---- Real-time Memory Report at c_bands before calling an iterative solver
          7212 MiB given to the printing process from OS
         -1929 MiB allocation reported by mallinfo(arena+hblkhd)
         52624 MiB available memory on the node where the printing process lives
     GPU memory used/free/total (MiB): 7542 / 8738 / 16280
------------------
     ethr =  6.35E-08,  avg # of iterations =  7.9

     negative rho (up, down):  0.000E+00 9.228E-05

     total cpu time spent up to now is     1245.2 secs

     total energy              =   -1578.04429271 Ry
     estimated scf accuracy    <       0.00422119 Ry

     total magnetization       =     9.78 Bohr mag/cell
     absolute magnetization    =    10.24 Bohr mag/cell
[tb_dev] Currently allocated     1.24E+01 Mbytes, locked:    0 /   8
[tb_pin] Currently allocated     0.00E+00 Mbytes, locked:    0 /   0

     iteration # 48     ecut=    90.00 Ry     beta= 0.20
     Davidson diagonalization with overlap

---- Real-time Memory Report at c_bands before calling an iterative solver
          7219 MiB given to the printing process from OS
         -1880 MiB allocation reported by mallinfo(arena+hblkhd)
         52612 MiB available memory on the node where the printing process lives
     GPU memory used/free/total (MiB): 7542 / 8738 / 16280
------------------
     ethr =  6.35E-08,  avg # of iterations =  6.3

     negative rho (up, down):  0.000E+00 8.393E-05

     total cpu time spent up to now is     1281.3 secs

     total energy              =   -1578.04793088 Ry
     estimated scf accuracy    <       0.00012570 Ry

     total magnetization       =     9.20 Bohr mag/cell
     absolute magnetization    =     9.63 Bohr mag/cell
[tb_dev] Currently allocated     1.24E+01 Mbytes, locked:    0 /   8
[tb_pin] Currently allocated     0.00E+00 Mbytes, locked:    0 /   0

     iteration # 49     ecut=    90.00 Ry     beta= 0.20
     Davidson diagonalization with overlap

---- Real-time Memory Report at c_bands before calling an iterative solver
          7227 MiB given to the printing process from OS
         -1913 MiB allocation reported by mallinfo(arena+hblkhd)
         52609 MiB available memory on the node where the printing process lives
     GPU memory used/free/total (MiB): 7542 / 8738 / 16280
------------------
     ethr =  6.35E-08,  avg # of iterations =  4.7

     negative rho (up, down):  0.000E+00 7.093E-05

     total cpu time spent up to now is     1310.3 secs

     total energy              =   -1578.04765580 Ry
     estimated scf accuracy    <       0.00009943 Ry

     total magnetization       =     8.93 Bohr mag/cell
     absolute magnetization    =     9.37 Bohr mag/cell
[tb_dev] Currently allocated     1.24E+01 Mbytes, locked:    0 /   8
[tb_pin] Currently allocated     0.00E+00 Mbytes, locked:    0 /   0

     iteration # 50     ecut=    90.00 Ry     beta= 0.20
     Davidson diagonalization with overlap

---- Real-time Memory Report at c_bands before calling an iterative solver
          7235 MiB given to the printing process from OS
         -1864 MiB allocation reported by mallinfo(arena+hblkhd)
         52597 MiB available memory on the node where the printing process lives
     GPU memory used/free/total (MiB): 7542 / 8738 / 16280
------------------
     ethr =  6.35E-08,  avg # of iterations =  4.7

     negative rho (up, down):  0.000E+00 7.204E-05

     total cpu time spent up to now is     1340.8 secs

     total energy              =   -1578.04868505 Ry
     estimated scf accuracy    <       0.00025986 Ry

     total magnetization       =     8.43 Bohr mag/cell
     absolute magnetization    =     8.90 Bohr mag/cell
[tb_dev] Currently allocated     1.24E+01 Mbytes, locked:    0 /   8
[tb_pin] Currently allocated     0.00E+00 Mbytes, locked:    0 /   0

     iteration # 51     ecut=    90.00 Ry     beta= 0.20
     Davidson diagonalization with overlap

---- Real-time Memory Report at c_bands before calling an iterative solver
          7244 MiB given to the printing process from OS
         -1897 MiB allocation reported by mallinfo(arena+hblkhd)
         52596 MiB available memory on the node where the printing process lives
     GPU memory used/free/total (MiB): 7542 / 8738 / 16280
------------------
     ethr =  6.35E-08,  avg # of iterations =  1.1

     negative rho (up, down):  0.000E+00 6.563E-05

     total cpu time spent up to now is     1360.5 secs

     total energy              =   -1578.04870863 Ry
     estimated scf accuracy    <       0.00024856 Ry

     total magnetization       =     8.47 Bohr mag/cell
     absolute magnetization    =     8.94 Bohr mag/cell
[tb_dev] Currently allocated     1.24E+01 Mbytes, locked:    0 /   8
[tb_pin] Currently allocated     0.00E+00 Mbytes, locked:    0 /   0

     iteration # 52     ecut=    90.00 Ry     beta= 0.20
     Davidson diagonalization with overlap

---- Real-time Memory Report at c_bands before calling an iterative solver
          7252 MiB given to the printing process from OS
         -1848 MiB allocation reported by mallinfo(arena+hblkhd)
         52578 MiB available memory on the node where the printing process lives
     GPU memory used/free/total (MiB): 7542 / 8738 / 16280
------------------
     ethr =  6.35E-08,  avg # of iterations =  3.7

     negative rho (up, down):  0.000E+00 6.426E-05

     total cpu time spent up to now is     1387.0 secs

     total energy              =   -1578.04904345 Ry
     estimated scf accuracy    <       0.00042258 Ry

     total magnetization       =     8.21 Bohr mag/cell
     absolute magnetization    =     8.71 Bohr mag/cell
[tb_dev] Currently allocated     1.24E+01 Mbytes, locked:    0 /   8
[tb_pin] Currently allocated     0.00E+00 Mbytes, locked:    0 /   0

     iteration # 53     ecut=    90.00 Ry     beta= 0.20
     Davidson diagonalization with overlap

---- Real-time Memory Report at c_bands before calling an iterative solver
          7260 MiB given to the printing process from OS
         -1881 MiB allocation reported by mallinfo(arena+hblkhd)
         52579 MiB available memory on the node where the printing process lives
     GPU memory used/free/total (MiB): 7542 / 8738 / 16280
------------------
     ethr =  6.35E-08,  avg # of iterations =  1.4

     negative rho (up, down):  0.000E+00 6.769E-05

     total cpu time spent up to now is     1407.2 secs

     total energy              =   -1578.04882751 Ry
     estimated scf accuracy    <       0.00043985 Ry

     total magnetization       =     8.16 Bohr mag/cell
     absolute magnetization    =     8.66 Bohr mag/cell
[tb_dev] Currently allocated     1.24E+01 Mbytes, locked:    0 /   8
[tb_pin] Currently allocated     0.00E+00 Mbytes, locked:    0 /   0

     iteration # 54     ecut=    90.00 Ry     beta= 0.20
     Davidson diagonalization with overlap

---- Real-time Memory Report at c_bands before calling an iterative solver
          7267 MiB given to the printing process from OS
         -1832 MiB allocation reported by mallinfo(arena+hblkhd)
         52564 MiB available memory on the node where the printing process lives
     GPU memory used/free/total (MiB): 7542 / 8738 / 16280
------------------
     ethr =  6.35E-08,  avg # of iterations =  2.2

     negative rho (up, down):  0.000E+00 6.781E-05

     total cpu time spent up to now is     1428.9 secs

     total energy              =   -1578.04889889 Ry
     estimated scf accuracy    <       0.00036597 Ry

     total magnetization       =     8.30 Bohr mag/cell
     absolute magnetization    =     8.78 Bohr mag/cell
[tb_dev] Currently allocated     1.24E+01 Mbytes, locked:    0 /   8
[tb_pin] Currently allocated     0.00E+00 Mbytes, locked:    0 /   0

     iteration # 55     ecut=    90.00 Ry     beta= 0.20
     Davidson diagonalization with overlap

---- Real-time Memory Report at c_bands before calling an iterative solver
          7276 MiB given to the printing process from OS
         -1865 MiB allocation reported by mallinfo(arena+hblkhd)
         52561 MiB available memory on the node where the printing process lives
     GPU memory used/free/total (MiB): 7542 / 8738 / 16280
------------------
     ethr =  6.35E-08,  avg # of iterations =  1.0

     negative rho (up, down):  0.000E+00 6.751E-05

     total cpu time spent up to now is     1448.6 secs

     total energy              =   -1578.04891337 Ry
     estimated scf accuracy    <       0.00037366 Ry

     total magnetization       =     8.30 Bohr mag/cell
     absolute magnetization    =     8.79 Bohr mag/cell
[tb_dev] Currently allocated     1.24E+01 Mbytes, locked:    0 /   8
[tb_pin] Currently allocated     0.00E+00 Mbytes, locked:    0 /   0

     iteration # 56     ecut=    90.00 Ry     beta= 0.20
     Davidson diagonalization with overlap

---- Real-time Memory Report at c_bands before calling an iterative solver
          7283 MiB given to the printing process from OS
         -1816 MiB allocation reported by mallinfo(arena+hblkhd)
         52548 MiB available memory on the node where the printing process lives
     GPU memory used/free/total (MiB): 7542 / 8738 / 16280
------------------
     ethr =  6.35E-08,  avg # of iterations =  1.0

     negative rho (up, down):  0.000E+00 9.825E-05

     total cpu time spent up to now is     1468.3 secs

     total energy              =   -1578.04183720 Ry
     estimated scf accuracy    <       0.00037293 Ry

     total magnetization       =     8.29 Bohr mag/cell
     absolute magnetization    =     8.78 Bohr mag/cell
[tb_dev] Currently allocated     1.24E+01 Mbytes, locked:    0 /   8
[tb_pin] Currently allocated     0.00E+00 Mbytes, locked:    0 /   0

     iteration # 57     ecut=    90.00 Ry     beta= 0.20
     Davidson diagonalization with overlap

---- Real-time Memory Report at c_bands before calling an iterative solver
          7292 MiB given to the printing process from OS
         -1849 MiB allocation reported by mallinfo(arena+hblkhd)
         52547 MiB available memory on the node where the printing process lives
     GPU memory used/free/total (MiB): 7542 / 8738 / 16280
------------------
     ethr =  6.35E-08,  avg # of iterations =  6.3

     negative rho (up, down):  0.000E+00 1.152E-04

     total cpu time spent up to now is     1503.4 secs

     total energy              =   -1578.04530874 Ry
     estimated scf accuracy    <       0.00008817 Ry

     total magnetization       =     9.39 Bohr mag/cell
     absolute magnetization    =     9.81 Bohr mag/cell
[tb_dev] Currently allocated     1.24E+01 Mbytes, locked:    0 /   8
[tb_pin] Currently allocated     0.00E+00 Mbytes, locked:    0 /   0

     iteration # 58     ecut=    90.00 Ry     beta= 0.20
     Davidson diagonalization with overlap

[...]
     GPU memory used/free/total (MiB): 7542 / 8738 / 16280
------------------
     ethr =  6.35E-08,  avg # of iterations =  1.0

     negative rho (up, down):  0.000E+00 5.588E-05

     total cpu time spent up to now is     1704.2 secs

     total energy              =   -1578.04836748 Ry
     estimated scf accuracy    <       0.00028858 Ry

     total magnetization       =     8.38 Bohr mag/cell
     absolute magnetization    =     8.85 Bohr mag/cell
[tb_dev] Currently allocated     1.24E+01 Mbytes, locked:    0 /   8
[tb_pin] Currently allocated     0.00E+00 Mbytes, locked:    0 /   0

     iteration # 66     ecut=    90.00 Ry     beta= 0.20
     Davidson diagonalization with overlap

---- Real-time Memory Report at c_bands before calling an iterative solver
          7364 MiB given to the printing process from OS
         -1735 MiB allocation reported by mallinfo(arena+hblkhd)
         52466 MiB available memory on the node where the printing process lives
     GPU memory used/free/total (MiB): 7542 / 8738 / 16280
------------------
     ethr =  6.35E-08,  avg # of iterations =  4.7

     negative rho (up, down):  0.000E+00 2.317E-05

     total cpu time spent up to now is     1733.6 secs

     total energy              =   -1578.04563111 Ry
     estimated scf accuracy    <       0.00070486 Ry

     total magnetization       =     7.83 Bohr mag/cell
     absolute magnetization    =     8.36 Bohr mag/cell
[tb_dev] Currently allocated     1.24E+01 Mbytes, locked:    0 /   8
[tb_pin] Currently allocated     0.00E+00 Mbytes, locked:    0 /   0

     iteration # 67     ecut=    90.00 Ry     beta= 0.20
     Davidson diagonalization with overlap

---- Real-time Memory Report at c_bands before calling an iterative solver
          7372 MiB given to the printing process from OS
         -1769 MiB allocation reported by mallinfo(arena+hblkhd)
         52468 MiB available memory on the node where the printing process lives
     GPU memory used/free/total (MiB): 7542 / 8738 / 16280
------------------
     ethr =  6.35E-08,  avg # of iterations =  6.7

     negative rho (up, down):  0.000E+00 8.497E-05

     total cpu time spent up to now is     1771.5 secs

     total energy              =   -1578.02861669 Ry
     estimated scf accuracy    <       0.00113306 Ry

     total magnetization       =     7.07 Bohr mag/cell
     absolute magnetization    =     7.57 Bohr mag/cell
[tb_dev] Currently allocated     1.24E+01 Mbytes, locked:    0 /   8
[tb_pin] Currently allocated     0.00E+00 Mbytes, locked:    0 /   0

     iteration # 68     ecut=    90.00 Ry     beta= 0.20
     Davidson diagonalization with overlap

---- Real-time Memory Report at c_bands before calling an iterative solver
          7380 MiB given to the printing process from OS
         -1719 MiB allocation reported by mallinfo(arena+hblkhd)
         52452 MiB available memory on the node where the printing process lives
     GPU memory used/free/total (MiB): 7542 / 8738 / 16280
------------------
     ethr =  6.35E-08,  avg # of iterations =  7.7

     negative rho (up, down):  0.000E+00 1.023E-04

     total cpu time spent up to now is     1813.6 secs

     total energy              =   -1578.04563885 Ry
     estimated scf accuracy    <       0.00006651 Ry

     total magnetization       =     9.00 Bohr mag/cell
     absolute magnetization    =     9.43 Bohr mag/cell
[tb_dev] Currently allocated     1.24E+01 Mbytes, locked:    0 /   8
[tb_pin] Currently allocated     0.00E+00 Mbytes, locked:    0 /   0

     iteration # 69     ecut=    90.00 Ry     beta= 0.20
     Davidson diagonalization with overlap

---- Real-time Memory Report at c_bands before calling an iterative solver
          7395 MiB given to the printing process from OS
         -1753 MiB allocation reported by mallinfo(arena+hblkhd)
         52449 MiB available memory on the node where the printing process lives
     GPU memory used/free/total (MiB): 7542 / 8738 / 16280
------------------
     ethr =  5.64E-08,  avg # of iterations =  5.9

     negative rho (up, down):  0.000E+00 7.417E-05

     total cpu time spent up to now is     1847.6 secs

     total energy              =   -1578.04442156 Ry
     estimated scf accuracy    <       0.00031256 Ry

     total magnetization       =     9.49 Bohr mag/cell
     absolute magnetization    =     9.90 Bohr mag/cell
[tb_dev] Currently allocated     1.24E+01 Mbytes, locked:    0 /   8
[tb_pin] Currently allocated     0.00E+00 Mbytes, locked:    0 /   0

     iteration # 70     ecut=    90.00 Ry     beta= 0.20
     Davidson diagonalization with overlap

---- Real-time Memory Report at c_bands before calling an iterative solver
          7404 MiB given to the printing process from OS
         -1703 MiB allocation reported by mallinfo(arena+hblkhd)
         52427 MiB available memory on the node where the printing process lives
     GPU memory used/free/total (MiB): 7542 / 8738 / 16280
------------------
     ethr =  5.64E-08,  avg # of iterations =  6.2

     negative rho (up, down):  0.000E+00 9.447E-05

     total cpu time spent up to now is     1882.6 secs

     total energy              =   -1578.04536103 Ry
     estimated scf accuracy    <       0.00029116 Ry

     total magnetization       =     8.57 Bohr mag/cell
     absolute magnetization    =     9.03 Bohr mag/cell
[tb_dev] Currently allocated     1.24E+01 Mbytes, locked:    0 /   8
[tb_pin] Currently allocated     0.00E+00 Mbytes, locked:    0 /   0

     iteration # 71     ecut=    90.00 Ry     beta= 0.20
     Davidson diagonalization with overlap

---- Real-time Memory Report at c_bands before calling an iterative solver
          7411 MiB given to the printing process from OS
         -1736 MiB allocation reported by mallinfo(arena+hblkhd)
         52432 MiB available memory on the node where the printing process lives
     GPU memory used/free/total (MiB): 7542 / 8738 / 16280
------------------
     ethr =  5.64E-08,  avg # of iterations =  5.6

     negative rho (up, down):  0.000E+00 9.738E-05

     total cpu time spent up to now is     1914.9 secs

     total energy              =   -1578.04780529 Ry
     estimated scf accuracy    <       0.00018833 Ry

     total magnetization       =     9.28 Bohr mag/cell
     absolute magnetization    =     9.70 Bohr mag/cell
[tb_dev] Currently allocated     1.24E+01 Mbytes, locked:    0 /   8
[tb_pin] Currently allocated     0.00E+00 Mbytes, locked:    0 /   0

     iteration # 72     ecut=    90.00 Ry     beta= 0.20
     Davidson diagonalization with overlap

---- Real-time Memory Report at c_bands before calling an iterative solver
          7419 MiB given to the printing process from OS
         -1687 MiB allocation reported by mallinfo(arena+hblkhd)
         52413 MiB available memory on the node where the printing process lives
     GPU memory used/free/total (MiB): 7542 / 8738 / 16280
------------------
     ethr =  5.64E-08,  avg # of iterations =  2.3

     negative rho (up, down):  0.000E+00 1.292E-04

     total cpu time spent up to now is     1937.0 secs

     total energy              =   -1578.04052790 Ry
     estimated scf accuracy    <       0.00021841 Ry

     total magnetization       =     9.35 Bohr mag/cell
     absolute magnetization    =     9.77 Bohr mag/cell
[tb_dev] Currently allocated     1.24E+01 Mbytes, locked:    0 /   8
[tb_pin] Currently allocated     0.00E+00 Mbytes, locked:    0 /   0

     iteration # 73     ecut=    90.00 Ry     beta= 0.20
     Davidson diagonalization with overlap

---- Real-time Memory Report at c_bands before calling an iterative solver
          7427 MiB given to the printing process from OS
         -1720 MiB allocation reported by mallinfo(arena+hblkhd)
         52420 MiB available memory on the node where the printing process lives
     GPU memory used/free/total (MiB): 7542 / 8738 / 16280
------------------
     ethr =  5.64E-08,  avg # of iterations =  6.9

     negative rho (up, down):  0.000E+00 9.765E-05

     total cpu time spent up to now is     1975.6 secs

     total energy              =   -1578.04501382 Ry
     estimated scf accuracy    <       0.00504656 Ry

     total magnetization       =     9.79 Bohr mag/cell
     absolute magnetization    =    10.26 Bohr mag/cell
[tb_dev] Currently allocated     1.24E+01 Mbytes, locked:    0 /   8
[tb_pin] Currently allocated     0.00E+00 Mbytes, locked:    0 /   0

     iteration # 74     ecut=    90.00 Ry     beta= 0.20
     Davidson diagonalization with overlap

---- Real-time Memory Report at c_bands before calling an iterative solver
          7435 MiB given to the printing process from OS
         -1671 MiB allocation reported by mallinfo(arena+hblkhd)
         52393 MiB available memory on the node where the printing process lives
     GPU memory used/free/total (MiB): 7542 / 8738 / 16280
------------------
     ethr =  5.64E-08,  avg # of iterations =  6.3

     negative rho (up, down):  0.000E+00 1.060E-04

     total cpu time spent up to now is     2011.4 secs

     total energy              =   -1578.04724848 Ry
     estimated scf accuracy    <       0.00015443 Ry

     total magnetization       =     9.36 Bohr mag/cell
     absolute magnetization    =     9.77 Bohr mag/cell
[tb_dev] Currently allocated     1.24E+01 Mbytes, locked:    0 /   8
[tb_pin] Currently allocated     0.00E+00 Mbytes, locked:    0 /   0

     iteration # 75     ecut=    90.00 Ry     beta= 0.20
     Davidson diagonalization with overlap

---- Real-time Memory Report at c_bands before calling an iterative solver
          7444 MiB given to the printing process from OS
         -1704 MiB allocation reported by mallinfo(arena+hblkhd)
         52402 MiB available memory on the node where the printing process lives
     GPU memory used/free/total (MiB): 7542 / 8738 / 16280
------------------
     ethr =  5.64E-08,  avg # of iterations =  4.0

     negative rho (up, down):  0.000E+00 7.942E-05

     total cpu time spent up to now is     2038.5 secs

     total energy              =   -1578.04495153 Ry
     estimated scf accuracy    <       0.00038218 Ry

     total magnetization       =     9.55 Bohr mag/cell
     absolute magnetization    =     9.97 Bohr mag/cell
[tb_dev] Currently allocated     1.24E+01 Mbytes, locked:    0 /   8
[tb_pin] Currently allocated     0.00E+00 Mbytes, locked:    0 /   0

     iteration # 76     ecut=    90.00 Ry     beta= 0.20
     Davidson diagonalization with overlap

---- Real-time Memory Report at c_bands before calling an iterative solver
          7452 MiB given to the printing process from OS
         -1655 MiB allocation reported by mallinfo(arena+hblkhd)
         52380 MiB available memory on the node where the printing process lives
     GPU memory used/free/total (MiB): 7542 / 8738 / 16280
------------------
     ethr =  5.64E-08,  avg # of iterations =  6.1

     negative rho (up, down):  0.000E+00 7.748E-05

     total cpu time spent up to now is     2073.7 secs

     total energy              =   -1578.04846368 Ry
     estimated scf accuracy    <       0.00015713 Ry

     total magnetization       =     8.75 Bohr mag/cell
     absolute magnetization    =     9.20 Bohr mag/cell
[tb_dev] Currently allocated     1.24E+01 Mbytes, locked:    0 /   8
[tb_pin] Currently allocated     0.00E+00 Mbytes, locked:    0 /   0

     iteration # 77     ecut=    90.00 Ry     beta= 0.20
     Davidson diagonalization with overlap

---- Real-time Memory Report at c_bands before calling an iterative solver
          7459 MiB given to the printing process from OS
         -1688 MiB allocation reported by mallinfo(arena+hblkhd)
         52384 MiB available memory on the node where the printing process lives
     GPU memory used/free/total (MiB): 7542 / 8738 / 16280
------------------
     ethr =  5.64E-08,  avg # of iterations =  2.0

     negative rho (up, down):  0.000E+00 7.408E-05

     total cpu time spent up to now is     2094.7 secs

     total energy              =   -1578.04852612 Ry
     estimated scf accuracy    <       0.00017468 Ry

     total magnetization       =     8.68 Bohr mag/cell
     absolute magnetization    =     9.14 Bohr mag/cell
[tb_dev] Currently allocated     1.24E+01 Mbytes, locked:    0 /   8
[tb_pin] Currently allocated     0.00E+00 Mbytes, locked:    0 /   0

     iteration # 78     ecut=    90.00 Ry     beta= 0.20
     Davidson diagonalization with overlap

---- Real-time Memory Report at c_bands before calling an iterative solver
          7467 MiB given to the printing process from OS
         -1639 MiB allocation reported by mallinfo(arena+hblkhd)
         52365 MiB available memory on the node where the printing process lives
     GPU memory used/free/total (MiB): 7542 / 8738 / 16280
------------------
     ethr =  5.64E-08,  avg # of iterations =  2.7

     negative rho (up, down):  0.000E+00 7.270E-05

     total cpu time spent up to now is     2118.2 secs

     total energy              =   -1578.04864728 Ry
     estimated scf accuracy    <       0.00020782 Ry

     total magnetization       =     8.55 Bohr mag/cell
     absolute magnetization    =     9.02 Bohr mag/cell
[tb_dev] Currently allocated     1.24E+01 Mbytes, locked:    0 /   8
[tb_pin] Currently allocated     0.00E+00 Mbytes, locked:    0 /   0

     iteration # 79     ecut=    90.00 Ry     beta= 0.20
     Davidson diagonalization with overlap

---- Real-time Memory Report at c_bands before calling an iterative solver
          7475 MiB given to the printing process from OS
         -1672 MiB allocation reported by mallinfo(arena+hblkhd)
         52372 MiB available memory on the node where the printing process lives
     GPU memory used/free/total (MiB): 7542 / 8738 / 16280
------------------
     ethr =  5.64E-08,  avg # of iterations =  1.8

     negative rho (up, down):  0.000E+00 6.132E-05

     total cpu time spent up to now is     2139.2 secs

     total energy              =   -1578.04831446 Ry
     estimated scf accuracy    <       0.00023279 Ry

     total magnetization       =     8.50 Bohr mag/cell
     absolute magnetization    =     8.97 Bohr mag/cell
[tb_dev] Currently allocated     1.24E+01 Mbytes, locked:    0 /   8
[tb_pin] Currently allocated     0.00E+00 Mbytes, locked:    0 /   0

     iteration # 80     ecut=    90.00 Ry     beta= 0.20
     Davidson diagonalization with overlap

---- Real-time Memory Report at c_bands before calling an iterative solver
          7483 MiB given to the printing process from OS
         -1623 MiB allocation reported by mallinfo(arena+hblkhd)
         52348 MiB available memory on the node where the printing process lives
     GPU memory used/free/total (MiB): 7542 / 8738 / 16280
------------------
     ethr =  5.64E-08,  avg # of iterations =  5.0

     negative rho (up, down):  0.000E+00 6.621E-05

     total cpu time spent up to now is     2170.1 secs

     total energy              =   -1578.04879995 Ry
     estimated scf accuracy    <       0.00042673 Ry

     total magnetization       =     8.05 Bohr mag/cell
     absolute magnetization    =     8.55 Bohr mag/cell

     End of self-consistent calculation

     convergence NOT achieved after  80 iterations: stopping

     Writing config to output data dir ./out/aiida.save/
 
     init_run     :     40.40s CPU     10.62s WALL (       1 calls)
     electrons    :   3535.15s CPU   2158.83s WALL (       1 calls)

     Called by init_run:
     wfcinit      :      0.88s CPU      0.88s WALL (       1 calls)
                                        0.88s GPU  (       1 calls)
     potinit      :     20.18s CPU      2.22s WALL (       1 calls)
     hinit0       :     11.61s CPU      5.42s WALL (       1 calls)

     Called by electrons:
     c_bands      :   1545.53s CPU   1631.94s WALL (      81 calls)
     sum_band     :    319.64s CPU    330.68s WALL (      81 calls)
     v_of_rho     :     84.14s CPU     15.26s WALL (      81 calls)
     v_h          :     24.03s CPU      2.27s WALL (      81 calls)
     v_xc         :     60.10s CPU     12.99s WALL (      81 calls)
     newd         :    208.20s CPU     53.48s WALL (      81 calls)
                                       53.48s GPU  (      81 calls)
     PAW_pot      :   1198.76s CPU    108.60s WALL (      81 calls)
     mix_rho      :    141.47s CPU     13.64s WALL (      81 calls)

     Called by c_bands:
     init_us_2    :     39.91s CPU     56.04s WALL (   21060 calls)
     init_us_2:gp :     39.49s CPU     55.62s WALL (   21060 calls)
     cegterg      :   1273.95s CPU   1327.64s WALL (   10530 calls)

     Called by sum_band:
     sum_band:wei :      0.73s CPU      0.74s WALL (      81 calls)
                                        0.73s GPU  (      81 calls)
     sum_band:loo :    266.22s CPU    277.04s WALL (      81 calls)
                                      277.04s GPU  (      81 calls)
     sum_band:buf :    109.10s CPU    110.18s WALL (   10530 calls)
                                      110.10s GPU  (   10530 calls)
     sum_band:ini :     19.57s CPU     24.48s WALL (   10530 calls)
                                       24.41s GPU  (   10530 calls)
     sum_band:cal :      0.46s CPU     15.31s WALL (   10530 calls)
                                       13.24s GPU  (   10530 calls)
     sum_band:bec :      3.82s CPU      4.02s WALL (   10530 calls)
                                        3.95s GPU  (   10530 calls)
     addusdens    :     39.24s CPU     39.42s WALL (      81 calls)
                                       39.42s GPU  (      81 calls)
     addusd:skk   :      0.11s CPU      0.11s WALL (     243 calls)
                                        0.11s GPU  (     243 calls)

     Called by *egterg:
     cdiaghg      :    256.83s CPU    294.17s WALL (   47827 calls)
                                      293.84s GPU  (   47827 calls)
     cegterg:over :     40.72s CPU     41.62s WALL (   37557 calls)
     cegterg:upda :     43.30s CPU     44.91s WALL (   37557 calls)
     cegterg:last :     48.81s CPU     49.30s WALL (   26243 calls)
     h_psi        :    789.36s CPU    801.48s WALL (   48087 calls)
                                      799.68s GPU  (   48087 calls)
     s_psi        :     11.97s CPU     54.77s WALL (   48087 calls)
                                       50.44s GPU  (   48087 calls)
     g_psi        :      0.27s CPU      4.98s WALL (   37557 calls)
                                        4.74s GPU  (   37557 calls)

     Called by h_psi:
     h_psi:calbec :      1.69s CPU     44.71s WALL (   48087 calls)
                                       44.40s GPU  (   48087 calls)
     vloc_psi     :    683.43s CPU    693.38s WALL (   48087 calls)
                                      693.08s GPU  (   48087 calls)
     add_vuspsi   :     14.17s CPU     54.26s WALL (   48087 calls)
                                       53.94s GPU  (   48087 calls)

     General routines
     calbec       :      1.62s CPU      1.66s WALL (   58617 calls)
     fft          :      8.44s CPU      1.90s WALL (    2025 calls)
                                        1.32s GPU  (    1863 calls)
     ffts         :      0.27s CPU      0.11s WALL (     324 calls)
                                        0.03s GPU  (     162 calls)
     fftw         :      7.17s CPU    572.08s WALL (  377476 calls)
                                      568.03s GPU  (  377476 calls)
     interpolate  :     24.90s CPU      2.16s WALL (     162 calls)
     davcio       :      0.16s CPU      5.47s WALL (     278 calls)
 
     Parallel routines

     PAW routines
     PAW_pot      :   1198.76s CPU    108.60s WALL (      81 calls)
     PAW_symme    :      0.51s CPU      0.08s WALL (     161 calls)
 
     PWSCF        :  59m39.08s CPU  36m14.28s WALL

 
   This run was terminated on:  21: 5: 3  23Oct2023            

=------------------------------------------------------------------------------=
   JOB DONE.
=------------------------------------------------------------------------------=
