
     Program PWSCF v.7.2 starts on 22Oct2023 at 23:13:12 

     This program is part of the open-source Quantum ESPRESSO suite
     for quantum simulation of materials; please cite
         "P. Giannozzi et al., J. Phys.:Condens. Matter 21 395502 (2009);
         "P. Giannozzi et al., J. Phys.:Condens. Matter 29 465901 (2017);
         "P. Giannozzi et al., J. Chem. Phys. 152 154105 (2020);
          URL http://www.quantum-espresso.org", 
     in publications or presentations arising from this work. More details at
     http://www.quantum-espresso.org/quote

     Parallel version (MPI & OpenMP), running on      12 processor cores
     Number of MPI processes:                 1
     Threads/MPI process:                    12

     MPI processes distributed on     1 nodes
     60385 MiB available memory on the printing compute node when the environment starts
 
     Reading input from aiida.in

     Current dimensions of program PWSCF are:
     Max number of different atomic species (ntypx) = 10
     Max number of k-points (npk) =  40000
     Max angular momentum in pseudopotentials (lmaxx) =  4
     file Ga.pbesol-dn-kjpaw_psl.1.0.0.UPF: wavefunction(s)  4S renormalized
     Message from routine setup:
     using ibrav=0 with symmetry is DISCOURAGED, use correct ibrav instead
 
     Subspace diagonalization in iterative solution of the eigenvalue problem:
     a serial algorithm will be used

 
     G-vector sticks info
     --------------------
     sticks:   dense  smooth     PW     G-vecs:    dense   smooth      PW
     Sum        3463    1237    367               134435    28763    4645
 
     Using Slab Decomposition
 


     bravais-lattice index     =            0
     lattice parameter (alat)  =       8.0174  a.u.
     unit-cell volume          =     364.4101 (a.u.)^3
     number of atoms/cell      =            4
     number of atomic types    =            3
     number of electrons       =        59.00
     number of Kohn-Sham states=           36
     kinetic-energy cutoff     =      70.0000  Ry
     charge density cutoff     =     780.0000  Ry
     scf convergence threshold =      8.0E-10
     mixing beta               =       0.4000
     number of iterations used =            8  plain     mixing
     Exchange-correlation= PBESOL
                           (   1   4  10   8   0   0   0)

     GPU acceleration is ACTIVE.


     GPU used by master process:

        Device Number: 0
        Device name: Tesla P100-PCIE-16GB
        Compute capability : 60
        Ratio of single to double precision performance  : 2
        Memory Clock Rate (KHz): 715000
        Memory Bus Width (bits): 4096
        Peak Memory Bandwidth (GB/s): 732.16

     celldm(1)=   8.017429  celldm(2)=   0.000000  celldm(3)=   0.000000
     celldm(4)=   0.000000  celldm(5)=   0.000000  celldm(6)=   0.000000

     crystal axes: (cart. coord. in units of alat)
               a(1) = (   0.000000   0.707107   0.707107 )  
               a(2) = (   0.707107   0.000000   0.707107 )  
               a(3) = (   0.707107   0.707107   0.000000 )  

     reciprocal axes: (cart. coord. in units 2 pi/alat)
               b(1) = ( -0.707107  0.707107  0.707107 )  
               b(2) = (  0.707107 -0.707107  0.707107 )  
               b(3) = (  0.707107  0.707107 -0.707107 )  


     PseudoPot. # 1 for Ga read from file:
     ./pseudo/Ga.pbesol-dn-kjpaw_psl.1.0.0.UPF
     MD5 check sum: 2a7819223b42fad6ccd7f29fc9cbee49
     Pseudo is Projector augmented-wave + core cor, Zval = 13.0
     Generated using "atomic" code by A. Dal Corso  v.6.0 svn rev. 13079
     Shape of augmentation charge: PSQ
     Using radial grid of 1205 points,  6 beta functions with: 
                l(1) =   0
                l(2) =   0
                l(3) =   1
                l(4) =   1
                l(5) =   2
                l(6) =   2
     Q(r) pseudized with 0 coefficients 


     PseudoPot. # 2 for Mn read from file:
     ./pseudo/mn_pbesol_v1.5.uspp.F.UPF
     MD5 check sum: 0716d5f563e6e95a34f9080f4c78c109
     Pseudo is Ultrasoft + core correction, Zval = 15.0
     Generated by new atomic code, or converted to UPF format
     Using radial grid of  859 points,  6 beta functions with: 
                l(1) =   0
                l(2) =   0
                l(3) =   1
                l(4) =   1
                l(5) =   2
                l(6) =   2
     Q(r) pseudized with  8 coefficients,  rinner =    0.950   0.950   0.950
                                                       0.950   0.950

     PseudoPot. # 3 for Ru read from file:
     ./pseudo/Ru_ONCV_PBEsol-1.0.upf
     MD5 check sum: 8f986bf37b5af91b2f53a4f9afee5fd8
     Pseudo is Norm-conserving, Zval = 16.0
     Generated using ONCVPSP code by D. R. Hamann
     Using radial grid of 1440 points,  6 beta functions with: 
                l(1) =   0
                l(2) =   0
                l(3) =   1
                l(4) =   1
                l(5) =   2
                l(6) =   2

     atomic species   valence    mass     pseudopotential
        Ga            13.00    69.72300     Ga( 1.00)
        Mn            15.00    54.93805     Mn( 1.00)
        Ru            16.00   101.07000     Ru( 1.00)

     Starting magnetic structure 
     atomic species   magnetization
        Ga           0.100
        Mn           0.333
        Ru           0.313

     24 Sym. Ops. (no inversion) found


                                    s                        frac. trans.

      isym =  1     identity                                     

 cryst.   s( 1) = (     1          0          0      )
                  (     0          1          0      )
                  (     0          0          1      )

 cart.    s( 1) = (  1.0000000 -0.0000000  0.0000000 )
                  ( -0.0000000  1.0000000  0.0000000 )
                  ( -0.0000000  0.0000000  1.0000000 )


      isym =  2     180 deg rotation - cart. axis [0,0,1]        

 cryst.   s( 2) = (     0          1         -1      )
                  (     1          0         -1      )
                  (     0          0         -1      )

 cart.    s( 2) = ( -1.0000000  0.0000000  0.0000000 )
                  (  0.0000000 -1.0000000  0.0000000 )
                  (  0.0000000 -0.0000000  1.0000000 )


      isym =  3     180 deg rotation - cart. axis [0,1,0]        

 cryst.   s( 3) = (     0         -1          1      )
                  (     0         -1          0      )
                  (     1         -1          0      )

 cart.    s( 3) = ( -1.0000000 -0.0000000 -0.0000000 )
                  (  0.0000000  1.0000000 -0.0000000 )
                  (  0.0000000  0.0000000 -1.0000000 )


      isym =  4     180 deg rotation - cart. axis [1,0,0]        

 cryst.   s( 4) = (    -1          0          0      )
                  (    -1          0          1      )
                  (    -1          1          0      )

 cart.    s( 4) = (  1.0000000  0.0000000 -0.0000000 )
                  ( -0.0000000 -1.0000000 -0.0000000 )
                  ( -0.0000000 -0.0000000 -1.0000000 )


      isym =  5     120 deg rotation - cart. axis [-1,-1,-1]     

 cryst.   s( 5) = (     0          0          1      )
                  (     1          0          0      )
                  (     0          1          0      )

 cart.    s( 5) = (  0.0000000  1.0000000 -0.0000000 )
                  (  0.0000000 -0.0000000  1.0000000 )
                  (  1.0000000 -0.0000000  0.0000000 )


      isym =  6     120 deg rotation - cart. axis [-1,1,1]       

 cryst.   s( 6) = (     1         -1          0      )
                  (     0         -1          1      )
                  (     0         -1          0      )

 cart.    s( 6) = ( -0.0000000 -1.0000000 -0.0000000 )
                  ( -0.0000000  0.0000000  1.0000000 )
                  ( -1.0000000  0.0000000  0.0000000 )


      isym =  7     120 deg rotation - cart. axis [1,1,-1]       

 cryst.   s( 7) = (    -1          1          0      )
                  (    -1          0          0      )
                  (    -1          0          1      )

 cart.    s( 7) = ( -0.0000000  1.0000000  0.0000000 )
                  ( -0.0000000 -0.0000000 -1.0000000 )
                  ( -1.0000000 -0.0000000 -0.0000000 )


      isym =  8     120 deg rotation - cart. axis [1,-1,1]       

 cryst.   s( 8) = (     0          0         -1      )
                  (     0          1         -1      )
                  (     1          0         -1      )

 cart.    s( 8) = (  0.0000000 -1.0000000  0.0000000 )
                  (  0.0000000  0.0000000 -1.0000000 )
                  (  1.0000000  0.0000000 -0.0000000 )


      isym =  9     120 deg rotation - cart. axis [1,1,1]        

 cryst.   s( 9) = (     0          1          0      )
                  (     0          0          1      )
                  (     1          0          0      )

 cart.    s( 9) = ( -0.0000000  0.0000000  1.0000000 )
                  (  1.0000000  0.0000000 -0.0000000 )
                  (  0.0000000  1.0000000 -0.0000000 )


      isym = 10     120 deg rotation - cart. axis [-1,1,-1]      

 cryst.   s(10) = (    -1          0          1      )
                  (    -1          1          0      )
                  (    -1          0          0      )

 cart.    s(10) = (  0.0000000 -0.0000000  1.0000000 )
                  ( -1.0000000 -0.0000000 -0.0000000 )
                  ( -0.0000000 -1.0000000 -0.0000000 )


      isym = 11     120 deg rotation - cart. axis [1,-1,-1]      

 cryst.   s(11) = (     1          0         -1      )
                  (     0          0         -1      )
                  (     0          1         -1      )

 cart.    s(11) = (  0.0000000  0.0000000 -1.0000000 )
                  ( -1.0000000  0.0000000  0.0000000 )
                  ( -0.0000000  1.0000000  0.0000000 )


      isym = 12     120 deg rotation - cart. axis [-1,-1,1]      

 cryst.   s(12) = (     0         -1          0      )
                  (     1         -1          0      )
                  (     0         -1          1      )

 cart.    s(12) = ( -0.0000000 -0.0000000 -1.0000000 )
                  (  1.0000000 -0.0000000  0.0000000 )
                  (  0.0000000 -1.0000000  0.0000000 )


      isym = 13     inv. 180 deg rotation - cart. axis [1,1,0]   

 cryst.   s(13) = (     1          0         -1      )
                  (     0          1         -1      )
                  (     0          0         -1      )

 cart.    s(13) = (  0.0000000 -1.0000000  0.0000000 )
                  ( -1.0000000  0.0000000  0.0000000 )
                  ( -0.0000000  0.0000000  1.0000000 )


      isym = 14     inv. 180 deg rotation - cart. axis [1,-1,0]  

 cryst.   s(14) = (     0          1          0      )
                  (     1          0          0      )
                  (     0          0          1      )

 cart.    s(14) = ( -0.0000000  1.0000000  0.0000000 )
                  (  1.0000000 -0.0000000  0.0000000 )
                  (  0.0000000 -0.0000000  1.0000000 )


      isym = 15     inv.  90 deg rotation - cart. axis [0,0,-1]  

 cryst.   s(15) = (     0         -1          0      )
                  (     0         -1          1      )
                  (     1         -1          0      )

 cart.    s(15) = ( -0.0000000 -1.0000000 -0.0000000 )
                  (  1.0000000  0.0000000 -0.0000000 )
                  (  0.0000000  0.0000000 -1.0000000 )


      isym = 16     inv.  90 deg rotation - cart. axis [0,0,1]   

 cryst.   s(16) = (    -1          0          1      )
                  (    -1          0          0      )
                  (    -1          1          0      )

 cart.    s(16) = (  0.0000000  1.0000000 -0.0000000 )
                  ( -1.0000000 -0.0000000 -0.0000000 )
                  ( -0.0000000 -0.0000000 -1.0000000 )


      isym = 17     inv. 180 deg rotation - cart. axis [1,0,1]   

 cryst.   s(17) = (     1         -1          0      )
                  (     0         -1          0      )
                  (     0         -1          1      )

 cart.    s(17) = ( -0.0000000 -0.0000000 -1.0000000 )
                  ( -0.0000000  1.0000000  0.0000000 )
                  ( -1.0000000  0.0000000  0.0000000 )


      isym = 18     inv. 180 deg rotation - cart. axis [-1,0,1]  

 cryst.   s(18) = (     0          0          1      )
                  (     0          1          0      )
                  (     1          0          0      )

 cart.    s(18) = (  0.0000000 -0.0000000  1.0000000 )
                  (  0.0000000  1.0000000 -0.0000000 )
                  (  1.0000000  0.0000000 -0.0000000 )


      isym = 19     inv.  90 deg rotation - cart. axis [0,1,0]   

 cryst.   s(19) = (     0          0         -1      )
                  (     1          0         -1      )
                  (     0          1         -1      )

 cart.    s(19) = (  0.0000000  0.0000000 -1.0000000 )
                  (  0.0000000 -1.0000000  0.0000000 )
                  (  1.0000000 -0.0000000  0.0000000 )


      isym = 20     inv.  90 deg rotation - cart. axis [0,-1,0]  

 cryst.   s(20) = (    -1          1          0      )
                  (    -1          0          1      )
                  (    -1          0          0      )

 cart.    s(20) = ( -0.0000000  0.0000000  1.0000000 )
                  ( -0.0000000 -1.0000000 -0.0000000 )
                  ( -1.0000000 -0.0000000 -0.0000000 )


      isym = 21     inv. 180 deg rotation - cart. axis [0,1,1]   

 cryst.   s(21) = (    -1          0          0      )
                  (    -1          1          0      )
                  (    -1          0          1      )

 cart.    s(21) = (  1.0000000 -0.0000000  0.0000000 )
                  ( -0.0000000 -0.0000000 -1.0000000 )
                  ( -0.0000000 -1.0000000 -0.0000000 )


      isym = 22     inv. 180 deg rotation - cart. axis [0,1,-1]  

 cryst.   s(22) = (     1          0          0      )
                  (     0          0          1      )
                  (     0          1          0      )

 cart.    s(22) = (  1.0000000  0.0000000 -0.0000000 )
                  ( -0.0000000  0.0000000  1.0000000 )
                  ( -0.0000000  1.0000000  0.0000000 )


      isym = 23     inv.  90 deg rotation - cart. axis [-1,0,0]  

 cryst.   s(23) = (     0          1         -1      )
                  (     0          0         -1      )
                  (     1          0         -1      )

 cart.    s(23) = ( -1.0000000  0.0000000  0.0000000 )
                  (  0.0000000  0.0000000 -1.0000000 )
                  (  0.0000000  1.0000000 -0.0000000 )


      isym = 24     inv.  90 deg rotation - cart. axis [1,0,0]   

 cryst.   s(24) = (     0         -1          1      )
                  (     1         -1          0      )
                  (     0         -1          0      )

 cart.    s(24) = ( -1.0000000 -0.0000000 -0.0000000 )
                  (  0.0000000 -0.0000000  1.0000000 )
                  (  0.0000000 -1.0000000  0.0000000 )


   Cartesian axes

     site n.     atom                  positions (alat units)
         1           Mn  tau(   1) = (   0.3535534   0.3535534   1.0606602  )
         2           Mn  tau(   2) = (   0.0000000   0.0000000   0.0000000  )
         3           Ga  tau(   3) = (   0.3535534   0.3535534   0.3535534  )
         4           Ru  tau(   4) = (   0.7071068   0.0000000   0.0000000  )

   Crystallographic axes

     site n.     atom                  positions (cryst. coord.)
         1           Mn  tau(   1) = (  0.7500000  0.7500000 -0.2500000  )
         2           Mn  tau(   2) = (  0.0000000  0.0000000  0.0000000  )
         3           Ga  tau(   3) = (  0.2500000  0.2500000  0.2500000  )
         4           Ru  tau(   4) = ( -0.5000000  0.5000000  0.5000000  )

     number of k points=    84  Marzari-Vanderbilt smearing, width (Ry)=  0.0100
                       cart. coord. in units 2pi/alat
        k(    1) = (   0.0000000   0.0000000   0.0000000), wk =   0.0004552
        k(    2) = (   0.0543928   0.0543928  -0.0543928), wk =   0.0036413
        k(    3) = (   0.1087857   0.1087857  -0.1087857), wk =   0.0036413
        k(    4) = (   0.1631785   0.1631785  -0.1631785), wk =   0.0036413
        k(    5) = (   0.2175713   0.2175713  -0.2175713), wk =   0.0036413
        k(    6) = (   0.2719641   0.2719641  -0.2719641), wk =   0.0036413
        k(    7) = (   0.3263570   0.3263570  -0.3263570), wk =   0.0036413
        k(    8) = (   0.1087857  -0.0000000   0.0000000), wk =   0.0027310
        k(    9) = (   0.1631785   0.0543928  -0.0543928), wk =   0.0109240
        k(   10) = (   0.2175713   0.1087857  -0.1087857), wk =   0.0109240
        k(   11) = (   0.2719641   0.1631785  -0.1631785), wk =   0.0109240
        k(   12) = (   0.3263570   0.2175713  -0.2175713), wk =   0.0109240
        k(   13) = (   0.3807498   0.2719641  -0.2719641), wk =   0.0109240
        k(   14) = (  -0.2719641  -0.3807498   0.3807498), wk =   0.0109240
        k(   15) = (  -0.2175713  -0.3263570   0.3263570), wk =   0.0109240
        k(   16) = (  -0.1631785  -0.2719641   0.2719641), wk =   0.0109240
        k(   17) = (  -0.1087857  -0.2175713   0.2175713), wk =   0.0109240
        k(   18) = (  -0.0543928  -0.1631785   0.1631785), wk =   0.0109240
        k(   19) = (   0.0000000  -0.1087857   0.1087857), wk =   0.0054620
        k(   20) = (   0.2175713  -0.0000000   0.0000000), wk =   0.0027310
        k(   21) = (   0.2719641   0.0543928  -0.0543928), wk =   0.0109240
        k(   22) = (   0.3263570   0.1087857  -0.1087857), wk =   0.0109240
        k(   23) = (   0.3807498   0.1631785  -0.1631785), wk =   0.0109240
        k(   24) = (   0.4351426   0.2175713  -0.2175713), wk =   0.0109240
        k(   25) = (  -0.2175713  -0.4351426   0.4351426), wk =   0.0109240
        k(   26) = (  -0.1631785  -0.3807498   0.3807498), wk =   0.0109240
        k(   27) = (  -0.1087857  -0.3263570   0.3263570), wk =   0.0109240
        k(   28) = (  -0.0543928  -0.2719641   0.2719641), wk =   0.0109240
        k(   29) = (   0.0000000  -0.2175713   0.2175713), wk =   0.0054620
        k(   30) = (   0.3263570  -0.0000000   0.0000000), wk =   0.0027310
        k(   31) = (   0.3807498   0.0543928  -0.0543928), wk =   0.0109240
        k(   32) = (   0.4351426   0.1087857  -0.1087857), wk =   0.0109240
        k(   33) = (   0.4895355   0.1631785  -0.1631785), wk =   0.0109240
        k(   34) = (  -0.1631785  -0.4895355   0.4895355), wk =   0.0109240
        k(   35) = (  -0.1087857  -0.4351426   0.4351426), wk =   0.0109240
        k(   36) = (  -0.0543928  -0.3807498   0.3807498), wk =   0.0109240
        k(   37) = (   0.0000000  -0.3263570   0.3263570), wk =   0.0054620
        k(   38) = (   0.4351426  -0.0000000   0.0000000), wk =   0.0027310
        k(   39) = (   0.4895355   0.0543928  -0.0543928), wk =   0.0109240
        k(   40) = (   0.5439283   0.1087857  -0.1087857), wk =   0.0109240
        k(   41) = (  -0.1087857  -0.5439283   0.5439283), wk =   0.0109240
        k(   42) = (  -0.0543928  -0.4895355   0.4895355), wk =   0.0109240
        k(   43) = (   0.0000000  -0.4351426   0.4351426), wk =   0.0054620
        k(   44) = (   0.5439283  -0.0000000   0.0000000), wk =   0.0027310
        k(   45) = (   0.5983211   0.0543928  -0.0543928), wk =   0.0109240
        k(   46) = (  -0.0543928  -0.5983211   0.5983211), wk =   0.0109240
        k(   47) = (   0.0000000  -0.5439283   0.5439283), wk =   0.0054620
        k(   48) = (   0.6527140  -0.0000000   0.0000000), wk =   0.0027310
        k(   49) = (   0.0000000  -0.6527140   0.6527140), wk =   0.0054620
        k(   50) = (   0.2175713   0.1087857   0.0000000), wk =   0.0109240
        k(   51) = (   0.2719641   0.1631785  -0.0543928), wk =   0.0218480
        k(   52) = (   0.3263570   0.2175713  -0.1087857), wk =   0.0218480
        k(   53) = (   0.3807498   0.2719641  -0.1631785), wk =   0.0218480
        k(   54) = (  -0.2719641  -0.3807498   0.4895355), wk =   0.0218480
        k(   55) = (   0.3263570   0.1087857   0.0000000), wk =   0.0109240
        k(   56) = (   0.3807498   0.1631785  -0.0543928), wk =   0.0218480
        k(   57) = (   0.4351426   0.2175713  -0.1087857), wk =   0.0218480
        k(   58) = (  -0.2175713  -0.4351426   0.5439283), wk =   0.0218480
        k(   59) = (  -0.1631785  -0.3807498   0.4895355), wk =   0.0218480
        k(   60) = (  -0.1087857  -0.3263570   0.4351426), wk =   0.0218480
        k(   61) = (  -0.0543928  -0.2719641   0.3807498), wk =   0.0218480
        k(   62) = (   0.0000000  -0.2175713   0.3263570), wk =   0.0109240
        k(   63) = (   0.4351426   0.1087857   0.0000000), wk =   0.0109240
        k(   64) = (   0.4895355   0.1631785  -0.0543928), wk =   0.0218480
        k(   65) = (  -0.1631785  -0.4895355   0.5983211), wk =   0.0218480
        k(   66) = (  -0.1087857  -0.4351426   0.5439283), wk =   0.0218480
        k(   67) = (  -0.0543928  -0.3807498   0.4895355), wk =   0.0218480
        k(   68) = (   0.0000000  -0.3263570   0.4351426), wk =   0.0109240
        k(   69) = (   0.5439283   0.1087857   0.0000000), wk =   0.0109240
        k(   70) = (  -0.1087857  -0.5439283   0.6527140), wk =   0.0218480
        k(   71) = (  -0.0543928  -0.4895355   0.5983211), wk =   0.0218480
        k(   72) = (   0.0000000  -0.4351426   0.5439283), wk =   0.0109240
        k(   73) = (  -0.0543928  -0.5983211   0.7071068), wk =   0.0109240
        k(   74) = (   0.0000000  -0.5439283   0.6527140), wk =   0.0109240
        k(   75) = (   0.4351426   0.2175713   0.0000000), wk =   0.0109240
        k(   76) = (  -0.2175713  -0.4351426   0.6527140), wk =   0.0218480
        k(   77) = (  -0.1631785  -0.3807498   0.5983211), wk =   0.0218480
        k(   78) = (  -0.1631785  -0.4895355   0.7071068), wk =   0.0109240
        k(   79) = (  -0.1087857  -0.4351426   0.6527140), wk =   0.0218480
        k(   80) = (  -0.0543928  -0.3807498   0.5983211), wk =   0.0218480
        k(   81) = (   0.0000000  -0.3263570   0.5439283), wk =   0.0109240
        k(   82) = (  -0.0543928  -0.4895355   0.7071068), wk =   0.0109240
        k(   83) = (   0.0000000  -0.4351426   0.6527140), wk =   0.0109240
        k(   84) = (  -0.0543928  -0.3807498   0.7071068), wk =   0.0109240

                       cryst. coord.
        k(    1) = (   0.0000000   0.0000000   0.0000000), wk =   0.0004552
        k(    2) = (  -0.0000000  -0.0000000   0.0769231), wk =   0.0036413
        k(    3) = (  -0.0000000  -0.0000000   0.1538462), wk =   0.0036413
        k(    4) = (  -0.0000000  -0.0000000   0.2307692), wk =   0.0036413
        k(    5) = (  -0.0000000  -0.0000000   0.3076923), wk =   0.0036413
        k(    6) = (   0.0000000   0.0000000   0.3846154), wk =   0.0036413
        k(    7) = (  -0.0000000  -0.0000000   0.4615385), wk =   0.0036413
        k(    8) = (  -0.0000000   0.0769231   0.0769231), wk =   0.0027310
        k(    9) = (  -0.0000000   0.0769231   0.1538462), wk =   0.0109240
        k(   10) = (  -0.0000000   0.0769231   0.2307692), wk =   0.0109240
        k(   11) = (  -0.0000000   0.0769231   0.3076923), wk =   0.0109240
        k(   12) = (  -0.0000000   0.0769231   0.3846154), wk =   0.0109240
        k(   13) = (   0.0000000   0.0769231   0.4615385), wk =   0.0109240
        k(   14) = (   0.0000000   0.0769231  -0.4615385), wk =   0.0109240
        k(   15) = (   0.0000000   0.0769231  -0.3846154), wk =   0.0109240
        k(   16) = (  -0.0000000   0.0769231  -0.3076923), wk =   0.0109240
        k(   17) = (  -0.0000000   0.0769231  -0.2307692), wk =   0.0109240
        k(   18) = (   0.0000000   0.0769231  -0.1538462), wk =   0.0109240
        k(   19) = (  -0.0000000   0.0769231  -0.0769231), wk =   0.0054620
        k(   20) = (  -0.0000000   0.1538462   0.1538462), wk =   0.0027310
        k(   21) = (  -0.0000000   0.1538462   0.2307692), wk =   0.0109240
        k(   22) = (  -0.0000000   0.1538462   0.3076923), wk =   0.0109240
        k(   23) = (  -0.0000000   0.1538462   0.3846154), wk =   0.0109240
        k(   24) = (  -0.0000000   0.1538462   0.4615385), wk =   0.0109240
        k(   25) = (   0.0000000   0.1538462  -0.4615385), wk =   0.0109240
        k(   26) = (   0.0000000   0.1538462  -0.3846154), wk =   0.0109240
        k(   27) = (   0.0000000   0.1538462  -0.3076923), wk =   0.0109240
        k(   28) = (   0.0000000   0.1538462  -0.2307692), wk =   0.0109240
        k(   29) = (   0.0000000   0.1538462  -0.1538462), wk =   0.0054620
        k(   30) = (   0.0000000   0.2307692   0.2307692), wk =   0.0027310
        k(   31) = (   0.0000000   0.2307692   0.3076923), wk =   0.0109240
        k(   32) = (  -0.0000000   0.2307692   0.3846154), wk =   0.0109240
        k(   33) = (  -0.0000000   0.2307692   0.4615385), wk =   0.0109240
        k(   34) = (  -0.0000000   0.2307692  -0.4615385), wk =   0.0109240
        k(   35) = (   0.0000000   0.2307692  -0.3846154), wk =   0.0109240
        k(   36) = (   0.0000000   0.2307692  -0.3076923), wk =   0.0109240
        k(   37) = (   0.0000000   0.2307692  -0.2307692), wk =   0.0054620
        k(   38) = (  -0.0000000   0.3076923   0.3076923), wk =   0.0027310
        k(   39) = (  -0.0000000   0.3076923   0.3846154), wk =   0.0109240
        k(   40) = (  -0.0000000   0.3076923   0.4615385), wk =   0.0109240
        k(   41) = (  -0.0000000   0.3076923  -0.4615385), wk =   0.0109240
        k(   42) = (   0.0000000   0.3076923  -0.3846154), wk =   0.0109240
        k(   43) = (   0.0000000   0.3076923  -0.3076923), wk =   0.0054620
        k(   44) = (  -0.0000000   0.3846154   0.3846154), wk =   0.0027310
        k(   45) = (  -0.0000000   0.3846154   0.4615385), wk =   0.0109240
        k(   46) = (  -0.0000000   0.3846154  -0.4615385), wk =   0.0109240
        k(   47) = (  -0.0000000   0.3846154  -0.3846154), wk =   0.0054620
        k(   48) = (   0.0000000   0.4615385   0.4615385), wk =   0.0027310
        k(   49) = (   0.0000000   0.4615385  -0.4615385), wk =   0.0054620
        k(   50) = (   0.0769231   0.1538462   0.2307692), wk =   0.0109240
        k(   51) = (   0.0769231   0.1538462   0.3076923), wk =   0.0218480
        k(   52) = (   0.0769231   0.1538462   0.3846154), wk =   0.0218480
        k(   53) = (   0.0769231   0.1538462   0.4615385), wk =   0.0218480
        k(   54) = (   0.0769231   0.1538462  -0.4615385), wk =   0.0218480
        k(   55) = (   0.0769231   0.2307692   0.3076923), wk =   0.0109240
        k(   56) = (   0.0769231   0.2307692   0.3846154), wk =   0.0218480
        k(   57) = (   0.0769231   0.2307692   0.4615385), wk =   0.0218480
        k(   58) = (   0.0769231   0.2307692  -0.4615385), wk =   0.0218480
        k(   59) = (   0.0769231   0.2307692  -0.3846154), wk =   0.0218480
        k(   60) = (   0.0769231   0.2307692  -0.3076923), wk =   0.0218480
        k(   61) = (   0.0769231   0.2307692  -0.2307692), wk =   0.0218480
        k(   62) = (   0.0769231   0.2307692  -0.1538462), wk =   0.0109240
        k(   63) = (   0.0769231   0.3076923   0.3846154), wk =   0.0109240
        k(   64) = (   0.0769231   0.3076923   0.4615385), wk =   0.0218480
        k(   65) = (   0.0769231   0.3076923  -0.4615385), wk =   0.0218480
        k(   66) = (   0.0769231   0.3076923  -0.3846154), wk =   0.0218480
        k(   67) = (   0.0769231   0.3076923  -0.3076923), wk =   0.0218480
        k(   68) = (   0.0769231   0.3076923  -0.2307692), wk =   0.0109240
        k(   69) = (   0.0769231   0.3846154   0.4615385), wk =   0.0109240
        k(   70) = (   0.0769231   0.3846154  -0.4615385), wk =   0.0218480
        k(   71) = (   0.0769231   0.3846154  -0.3846154), wk =   0.0218480
        k(   72) = (   0.0769231   0.3846154  -0.3076923), wk =   0.0109240
        k(   73) = (   0.0769231   0.4615385  -0.4615385), wk =   0.0109240
        k(   74) = (   0.0769231   0.4615385  -0.3846154), wk =   0.0109240
        k(   75) = (   0.1538462   0.3076923   0.4615385), wk =   0.0109240
        k(   76) = (   0.1538462   0.3076923  -0.4615385), wk =   0.0218480
        k(   77) = (   0.1538462   0.3076923  -0.3846154), wk =   0.0218480
        k(   78) = (   0.1538462   0.3846154  -0.4615385), wk =   0.0109240
        k(   79) = (   0.1538462   0.3846154  -0.3846154), wk =   0.0218480
        k(   80) = (   0.1538462   0.3846154  -0.3076923), wk =   0.0218480
        k(   81) = (   0.1538462   0.3846154  -0.2307692), wk =   0.0109240
        k(   82) = (   0.1538462   0.4615385  -0.3846154), wk =   0.0109240
        k(   83) = (   0.1538462   0.4615385  -0.3076923), wk =   0.0109240
        k(   84) = (   0.2307692   0.4615385  -0.3076923), wk =   0.0109240

     Dense  grid:   134435 G-vectors     FFT dimensions: (  72,  72,  72)

     Smooth grid:    28763 G-vectors     FFT dimensions: (  45,  45,  45)

     Dynamical RAM for                 wfc:       1.98 MB

     Dynamical RAM for     wfc (w. buffer):     334.58 MB

     Dynamical RAM for           str. fact:       6.15 MB

     Dynamical RAM for           local pot:       0.00 MB

     Dynamical RAM for          nlocal pot:       3.96 MB

     Dynamical RAM for                qrad:       6.72 MB

     Dynamical RAM for          rho,v,vnew:      29.39 MB

     Dynamical RAM for               rhoin:       9.80 MB

     Dynamical RAM for            rho*nmix:      65.64 MB

     Dynamical RAM for           G-vectors:       7.91 MB

     Dynamical RAM for          h,s,v(r/c):       0.24 MB

     Dynamical RAM for          <psi|beta>:       0.04 MB

     Dynamical RAM for                 psi:       3.96 MB

     Dynamical RAM for                hpsi:       3.96 MB

     Dynamical RAM for                spsi:       3.96 MB

     Dynamical RAM for      wfcinit/wfcrot:       5.00 MB

     Dynamical RAM for           addusdens:     387.70 MB

     Dynamical RAM for          addusforce:     391.82 MB

     Dynamical RAM for         addusstress:     415.39 MB

     Estimated static dynamical RAM per process >     423.80 MB

     Estimated max dynamical RAM per process >     904.84 MB

     Check: negative core charge=   -0.000012
     Generating pointlists ...
     new r_m :   0.2526 (alat units)  2.0252 (a.u.) for type    1
     new r_m :   0.2526 (alat units)  2.0252 (a.u.) for type    2
     new r_m :   0.2526 (alat units)  2.0252 (a.u.) for type    3

     Initial potential from superposition of free atoms

     starting charge      57.9966, renormalised to      59.0000
     Starting wfcs are   45 randomized atomic wfcs
     Checking if some PAW data can be deallocated... 

     total cpu time spent up to now is        6.2 secs

     per-process dynamical memory:  1077.7 Mb

     Self-consistent Calculation
[tb_dev] Currently allocated     1.61E+00 Mbytes, locked:    0 /   9
[tb_pin] Currently allocated     0.00E+00 Mbytes, locked:    0 /   0

     iteration #  1     ecut=    70.00 Ry     beta= 0.40
     Davidson diagonalization with overlap

---- Real-time Memory Report at c_bands before calling an iterative solver
          1321 MiB given to the printing process from OS
          1063 MiB allocation reported by mallinfo(arena+hblkhd)
         57935 MiB available memory on the node where the printing process lives
     GPU memory used/free/total (MiB): 958 / 15322 / 16280
------------------
     ethr =  1.00E-02,  avg # of iterations =  2.0

     total cpu time spent up to now is       10.5 secs

     total energy              =    -885.04773710 Ry
     estimated scf accuracy    <       1.62265292 Ry

     total magnetization       =     7.92 Bohr mag/cell
     absolute magnetization    =     8.12 Bohr mag/cell
[tb_dev] Currently allocated     9.46E-01 Mbytes, locked:    0 /   6
[tb_pin] Currently allocated     0.00E+00 Mbytes, locked:    0 /   0

     iteration #  2     ecut=    70.00 Ry     beta= 0.40
     Davidson diagonalization with overlap

---- Real-time Memory Report at c_bands before calling an iterative solver
          1412 MiB given to the printing process from OS
          1124 MiB allocation reported by mallinfo(arena+hblkhd)
         57919 MiB available memory on the node where the printing process lives
     GPU memory used/free/total (MiB): 1476 / 14804 / 16280
------------------
     ethr =  2.75E-03,  avg # of iterations =  3.1

     total cpu time spent up to now is       16.1 secs

     total energy              =    -884.51753965 Ry
     estimated scf accuracy    <      11.50134946 Ry

     total magnetization       =     5.39 Bohr mag/cell
     absolute magnetization    =     5.57 Bohr mag/cell
[tb_dev] Currently allocated     9.46E-01 Mbytes, locked:    0 /   6
[tb_pin] Currently allocated     0.00E+00 Mbytes, locked:    0 /   0

     iteration #  3     ecut=    70.00 Ry     beta= 0.40
     Davidson diagonalization with overlap

---- Real-time Memory Report at c_bands before calling an iterative solver
          1485 MiB given to the printing process from OS
          1126 MiB allocation reported by mallinfo(arena+hblkhd)
         57914 MiB available memory on the node where the printing process lives
     GPU memory used/free/total (MiB): 1506 / 14774 / 16280
------------------
     ethr =  2.75E-03,  avg # of iterations =  2.3

     total cpu time spent up to now is       20.8 secs

     total energy              =    -885.48012750 Ry
     estimated scf accuracy    <       0.69567384 Ry

     total magnetization       =     7.50 Bohr mag/cell
     absolute magnetization    =     7.76 Bohr mag/cell
[tb_dev] Currently allocated     9.46E-01 Mbytes, locked:    0 /   6
[tb_pin] Currently allocated     0.00E+00 Mbytes, locked:    0 /   0

     iteration #  4     ecut=    70.00 Ry     beta= 0.40
     Davidson diagonalization with overlap

---- Real-time Memory Report at c_bands before calling an iterative solver
          1559 MiB given to the printing process from OS
          1128 MiB allocation reported by mallinfo(arena+hblkhd)
         57909 MiB available memory on the node where the printing process lives
     GPU memory used/free/total (MiB): 1506 / 14774 / 16280
------------------
     ethr =  1.18E-03,  avg # of iterations =  2.3

     total cpu time spent up to now is       25.4 secs

     total energy              =    -885.43088431 Ry
     estimated scf accuracy    <       2.71172360 Ry

     total magnetization       =     5.51 Bohr mag/cell
     absolute magnetization    =     5.82 Bohr mag/cell
[tb_dev] Currently allocated     9.46E-01 Mbytes, locked:    0 /   6
[tb_pin] Currently allocated     0.00E+00 Mbytes, locked:    0 /   0

     iteration #  5     ecut=    70.00 Ry     beta= 0.40
     Davidson diagonalization with overlap

---- Real-time Memory Report at c_bands before calling an iterative solver
          1628 MiB given to the printing process from OS
          1130 MiB allocation reported by mallinfo(arena+hblkhd)
         57906 MiB available memory on the node where the printing process lives
     GPU memory used/free/total (MiB): 1506 / 14774 / 16280
------------------
     ethr =  1.18E-03,  avg # of iterations =  2.1

     total cpu time spent up to now is       29.8 secs

     total energy              =    -885.64549807 Ry
     estimated scf accuracy    <       0.08097263 Ry

     total magnetization       =     6.96 Bohr mag/cell
     absolute magnetization    =     7.25 Bohr mag/cell
[tb_dev] Currently allocated     9.46E-01 Mbytes, locked:    0 /   6
[tb_pin] Currently allocated     0.00E+00 Mbytes, locked:    0 /   0

     iteration #  6     ecut=    70.00 Ry     beta= 0.40
     Davidson diagonalization with overlap

---- Real-time Memory Report at c_bands before calling an iterative solver
          1698 MiB given to the printing process from OS
          1132 MiB allocation reported by mallinfo(arena+hblkhd)
         57900 MiB available memory on the node where the printing process lives
     GPU memory used/free/total (MiB): 1506 / 14774 / 16280
------------------
     ethr =  1.37E-04,  avg # of iterations =  6.7

     total cpu time spent up to now is       38.0 secs

     total energy              =    -885.67779738 Ry
     estimated scf accuracy    <       0.02350186 Ry

     total magnetization       =     6.63 Bohr mag/cell
     absolute magnetization    =     6.92 Bohr mag/cell
[tb_dev] Currently allocated     9.46E-01 Mbytes, locked:    0 /   6
[tb_pin] Currently allocated     0.00E+00 Mbytes, locked:    0 /   0

     iteration #  7     ecut=    70.00 Ry     beta= 0.40
     Davidson diagonalization with overlap

---- Real-time Memory Report at c_bands before calling an iterative solver
          1767 MiB given to the printing process from OS
          1134 MiB allocation reported by mallinfo(arena+hblkhd)
         57896 MiB available memory on the node where the printing process lives
     GPU memory used/free/total (MiB): 1506 / 14774 / 16280
------------------
     ethr =  3.98E-05,  avg # of iterations =  2.7

     total cpu time spent up to now is       42.8 secs

     total energy              =    -885.67988217 Ry
     estimated scf accuracy    <       0.02054061 Ry

     total magnetization       =     6.62 Bohr mag/cell
     absolute magnetization    =     6.92 Bohr mag/cell
[tb_dev] Currently allocated     9.46E-01 Mbytes, locked:    0 /   6
[tb_pin] Currently allocated     0.00E+00 Mbytes, locked:    0 /   0

     iteration #  8     ecut=    70.00 Ry     beta= 0.40
     Davidson diagonalization with overlap

---- Real-time Memory Report at c_bands before calling an iterative solver
          1832 MiB given to the printing process from OS
          1136 MiB allocation reported by mallinfo(arena+hblkhd)
         57894 MiB available memory on the node where the printing process lives
     GPU memory used/free/total (MiB): 1506 / 14774 / 16280
------------------
     ethr =  3.48E-05,  avg # of iterations =  2.1

     total cpu time spent up to now is       47.4 secs

     total energy              =    -885.68249458 Ry
     estimated scf accuracy    <       0.00665270 Ry

     total magnetization       =     6.34 Bohr mag/cell
     absolute magnetization    =     6.66 Bohr mag/cell
[tb_dev] Currently allocated     9.46E-01 Mbytes, locked:    0 /   6
[tb_pin] Currently allocated     0.00E+00 Mbytes, locked:    0 /   0

     iteration #  9     ecut=    70.00 Ry     beta= 0.40
     Davidson diagonalization with overlap

---- Real-time Memory Report at c_bands before calling an iterative solver
          1854 MiB given to the printing process from OS
          1138 MiB allocation reported by mallinfo(arena+hblkhd)
         57890 MiB available memory on the node where the printing process lives
     GPU memory used/free/total (MiB): 1506 / 14774 / 16280
------------------
     ethr =  1.13E-05,  avg # of iterations =  6.1

     total cpu time spent up to now is       54.9 secs

     total energy              =    -885.68411662 Ry
     estimated scf accuracy    <       0.00687782 Ry

     total magnetization       =     6.28 Bohr mag/cell
     absolute magnetization    =     6.61 Bohr mag/cell
[tb_dev] Currently allocated     9.46E-01 Mbytes, locked:    0 /   6
[tb_pin] Currently allocated     0.00E+00 Mbytes, locked:    0 /   0

     iteration # 10     ecut=    70.00 Ry     beta= 0.40
     Davidson diagonalization with overlap

---- Real-time Memory Report at c_bands before calling an iterative solver
          1880 MiB given to the printing process from OS
          1140 MiB allocation reported by mallinfo(arena+hblkhd)
         57884 MiB available memory on the node where the printing process lives
     GPU memory used/free/total (MiB): 1506 / 14774 / 16280
------------------
     ethr =  1.13E-05,  avg # of iterations =  1.0

     total cpu time spent up to now is       58.7 secs

     total energy              =    -885.68288484 Ry
     estimated scf accuracy    <       0.00498098 Ry

     total magnetization       =     6.27 Bohr mag/cell
     absolute magnetization    =     6.60 Bohr mag/cell
[tb_dev] Currently allocated     9.46E-01 Mbytes, locked:    0 /   6
[tb_pin] Currently allocated     0.00E+00 Mbytes, locked:    0 /   0

     iteration # 11     ecut=    70.00 Ry     beta= 0.40
     Davidson diagonalization with overlap

---- Real-time Memory Report at c_bands before calling an iterative solver
          1903 MiB given to the printing process from OS
          1142 MiB allocation reported by mallinfo(arena+hblkhd)
         57883 MiB available memory on the node where the printing process lives
     GPU memory used/free/total (MiB): 1506 / 14774 / 16280
------------------
     ethr =  8.44E-06,  avg # of iterations =  5.1

     total cpu time spent up to now is       65.4 secs

     total energy              =    -885.68364902 Ry
     estimated scf accuracy    <       0.00161117 Ry

     total magnetization       =     6.18 Bohr mag/cell
     absolute magnetization    =     6.51 Bohr mag/cell
[tb_dev] Currently allocated     9.46E-01 Mbytes, locked:    0 /   6
[tb_pin] Currently allocated     0.00E+00 Mbytes, locked:    0 /   0

     iteration # 12     ecut=    70.00 Ry     beta= 0.40
     Davidson diagonalization with overlap

---- Real-time Memory Report at c_bands before calling an iterative solver
          1925 MiB given to the printing process from OS
          1144 MiB allocation reported by mallinfo(arena+hblkhd)
         57880 MiB available memory on the node where the printing process lives
     GPU memory used/free/total (MiB): 1506 / 14774 / 16280
------------------
     ethr =  2.73E-06,  avg # of iterations =  5.2

     total cpu time spent up to now is       72.1 secs

     total energy              =    -885.68387469 Ry
     estimated scf accuracy    <       0.00192403 Ry

     total magnetization       =     6.15 Bohr mag/cell
     absolute magnetization    =     6.48 Bohr mag/cell
[tb_dev] Currently allocated     9.46E-01 Mbytes, locked:    0 /   6
[tb_pin] Currently allocated     0.00E+00 Mbytes, locked:    0 /   0

     iteration # 13     ecut=    70.00 Ry     beta= 0.40
     Davidson diagonalization with overlap

---- Real-time Memory Report at c_bands before calling an iterative solver
          1948 MiB given to the printing process from OS
          1146 MiB allocation reported by mallinfo(arena+hblkhd)
         57882 MiB available memory on the node where the printing process lives
     GPU memory used/free/total (MiB): 1506 / 14774 / 16280
------------------
     ethr =  2.73E-06,  avg # of iterations =  2.0

     total cpu time spent up to now is       76.6 secs

     total energy              =    -885.68408582 Ry
     estimated scf accuracy    <       0.00027708 Ry

     total magnetization       =     6.04 Bohr mag/cell
     absolute magnetization    =     6.37 Bohr mag/cell
[tb_dev] Currently allocated     9.46E-01 Mbytes, locked:    0 /   6
[tb_pin] Currently allocated     0.00E+00 Mbytes, locked:    0 /   0

     iteration # 14     ecut=    70.00 Ry     beta= 0.40
     Davidson diagonalization with overlap

---- Real-time Memory Report at c_bands before calling an iterative solver
          1971 MiB given to the printing process from OS
          1148 MiB allocation reported by mallinfo(arena+hblkhd)
         57875 MiB available memory on the node where the printing process lives
     GPU memory used/free/total (MiB): 1506 / 14774 / 16280
------------------
     ethr =  4.70E-07,  avg # of iterations =  6.0

     total cpu time spent up to now is       84.2 secs

     total energy              =    -885.68438149 Ry
     estimated scf accuracy    <       0.00021551 Ry

     total magnetization       =     6.00 Bohr mag/cell
     absolute magnetization    =     6.32 Bohr mag/cell
[tb_dev] Currently allocated     9.46E-01 Mbytes, locked:    0 /   6
[tb_pin] Currently allocated     0.00E+00 Mbytes, locked:    0 /   0

     iteration # 15     ecut=    70.00 Ry     beta= 0.40
     Davidson diagonalization with overlap

---- Real-time Memory Report at c_bands before calling an iterative solver
          1993 MiB given to the printing process from OS
          1150 MiB allocation reported by mallinfo(arena+hblkhd)
         57874 MiB available memory on the node where the printing process lives
     GPU memory used/free/total (MiB): 1506 / 14774 / 16280
------------------
     ethr =  3.65E-07,  avg # of iterations =  3.6

     total cpu time spent up to now is       89.6 secs

     total energy              =    -885.68412899 Ry
     estimated scf accuracy    <       0.00076387 Ry

     total magnetization       =     6.02 Bohr mag/cell
     absolute magnetization    =     6.35 Bohr mag/cell
[tb_dev] Currently allocated     9.46E-01 Mbytes, locked:    0 /   6
[tb_pin] Currently allocated     0.00E+00 Mbytes, locked:    0 /   0

     iteration # 16     ecut=    70.00 Ry     beta= 0.40
     Davidson diagonalization with overlap

---- Real-time Memory Report at c_bands before calling an iterative solver
          2014 MiB given to the printing process from OS
          1152 MiB allocation reported by mallinfo(arena+hblkhd)
         57874 MiB available memory on the node where the printing process lives
     GPU memory used/free/total (MiB): 1506 / 14774 / 16280
------------------
     ethr =  3.65E-07,  avg # of iterations =  5.3

     total cpu time spent up to now is       96.7 secs

     total energy              =    -885.68419397 Ry
     estimated scf accuracy    <       0.00041588 Ry

     total magnetization       =     5.98 Bohr mag/cell
     absolute magnetization    =     6.31 Bohr mag/cell
[tb_dev] Currently allocated     9.46E-01 Mbytes, locked:    0 /   6
[tb_pin] Currently allocated     0.00E+00 Mbytes, locked:    0 /   0

     iteration # 17     ecut=    70.00 Ry     beta= 0.40
     Davidson diagonalization with overlap

---- Real-time Memory Report at c_bands before calling an iterative solver
          2036 MiB given to the printing process from OS
          1154 MiB allocation reported by mallinfo(arena+hblkhd)
         57870 MiB available memory on the node where the printing process lives
     GPU memory used/free/total (MiB): 1506 / 14774 / 16280
------------------
     ethr =  3.65E-07,  avg # of iterations =  5.4

     total cpu time spent up to now is      103.9 secs

     total energy              =    -885.68388040 Ry
     estimated scf accuracy    <       0.00043117 Ry

     total magnetization       =     5.91 Bohr mag/cell
     absolute magnetization    =     6.24 Bohr mag/cell
[tb_dev] Currently allocated     9.46E-01 Mbytes, locked:    0 /   6
[tb_pin] Currently allocated     0.00E+00 Mbytes, locked:    0 /   0

     iteration # 18     ecut=    70.00 Ry     beta= 0.40
     Davidson diagonalization with overlap

---- Real-time Memory Report at c_bands before calling an iterative solver
          2050 MiB given to the printing process from OS
          1156 MiB allocation reported by mallinfo(arena+hblkhd)
         57870 MiB available memory on the node where the printing process lives
     GPU memory used/free/total (MiB): 1506 / 14774 / 16280
------------------
     c_bands:  1 eigenvalues not converged
     ethr =  3.65E-07,  avg # of iterations =  5.4

     total cpu time spent up to now is      111.5 secs

     total energy              =    -885.68445051 Ry
     estimated scf accuracy    <       0.00033307 Ry

     total magnetization       =     5.67 Bohr mag/cell
     absolute magnetization    =     6.00 Bohr mag/cell
[tb_dev] Currently allocated     9.46E-01 Mbytes, locked:    0 /   6
[tb_pin] Currently allocated     0.00E+00 Mbytes, locked:    0 /   0

     iteration # 19     ecut=    70.00 Ry     beta= 0.40
     Davidson diagonalization with overlap

---- Real-time Memory Report at c_bands before calling an iterative solver
          2062 MiB given to the printing process from OS
          1158 MiB allocation reported by mallinfo(arena+hblkhd)
         57871 MiB available memory on the node where the printing process lives
     GPU memory used/free/total (MiB): 1506 / 14774 / 16280
------------------
     ethr =  3.65E-07,  avg # of iterations =  1.0

     total cpu time spent up to now is      115.3 secs

     total energy              =    -885.68436942 Ry
     estimated scf accuracy    <       0.00025966 Ry

     total magnetization       =     5.72 Bohr mag/cell
     absolute magnetization    =     6.05 Bohr mag/cell
[tb_dev] Currently allocated     9.46E-01 Mbytes, locked:    0 /   6
[tb_pin] Currently allocated     0.00E+00 Mbytes, locked:    0 /   0

     iteration # 20     ecut=    70.00 Ry     beta= 0.40
     Davidson diagonalization with overlap

---- Real-time Memory Report at c_bands before calling an iterative solver
          2063 MiB given to the printing process from OS
          1160 MiB allocation reported by mallinfo(arena+hblkhd)
         57866 MiB available memory on the node where the printing process lives
     GPU memory used/free/total (MiB): 1506 / 14774 / 16280
------------------
     ethr =  3.65E-07,  avg # of iterations =  2.1

     total cpu time spent up to now is      119.9 secs

     total energy              =    -885.68462914 Ry
     estimated scf accuracy    <       0.00021813 Ry

     total magnetization       =     5.57 Bohr mag/cell
     absolute magnetization    =     5.91 Bohr mag/cell
[tb_dev] Currently allocated     9.46E-01 Mbytes, locked:    0 /   6
[tb_pin] Currently allocated     0.00E+00 Mbytes, locked:    0 /   0

     iteration # 21     ecut=    70.00 Ry     beta= 0.40
     Davidson diagonalization with overlap

---- Real-time Memory Report at c_bands before calling an iterative solver
          2065 MiB given to the printing process from OS
          1162 MiB allocation reported by mallinfo(arena+hblkhd)
         57864 MiB available memory on the node where the printing process lives
     GPU memory used/free/total (MiB): 1506 / 14774 / 16280
------------------
     ethr =  3.65E-07,  avg # of iterations =  5.0

     total cpu time spent up to now is      126.5 secs

     total energy              =    -885.68458620 Ry
     estimated scf accuracy    <       0.00140285 Ry

     total magnetization       =     5.65 Bohr mag/cell
     absolute magnetization    =     5.98 Bohr mag/cell
[tb_dev] Currently allocated     9.46E-01 Mbytes, locked:    0 /   6
[tb_pin] Currently allocated     0.00E+00 Mbytes, locked:    0 /   0

     iteration # 22     ecut=    70.00 Ry     beta= 0.40
     Davidson diagonalization with overlap

---- Real-time Memory Report at c_bands before calling an iterative solver
          2067 MiB given to the printing process from OS
          1164 MiB allocation reported by mallinfo(arena+hblkhd)
         57865 MiB available memory on the node where the printing process lives
     GPU memory used/free/total (MiB): 1506 / 14774 / 16280
------------------
     ethr =  3.65E-07,  avg # of iterations =  1.0

     total cpu time spent up to now is      130.3 secs

     total energy              =    -885.68459396 Ry
     estimated scf accuracy    <       0.00101653 Ry

     total magnetization       =     5.68 Bohr mag/cell
     absolute magnetization    =     6.01 Bohr mag/cell
[tb_dev] Currently allocated     9.46E-01 Mbytes, locked:    0 /   6
[tb_pin] Currently allocated     0.00E+00 Mbytes, locked:    0 /   0

     iteration # 23     ecut=    70.00 Ry     beta= 0.40
     Davidson diagonalization with overlap

---- Real-time Memory Report at c_bands before calling an iterative solver
          2070 MiB given to the printing process from OS
          1166 MiB allocation reported by mallinfo(arena+hblkhd)
         57862 MiB available memory on the node where the printing process lives
     GPU memory used/free/total (MiB): 1506 / 14774 / 16280
------------------
     ethr =  3.65E-07,  avg # of iterations =  1.0

     total cpu time spent up to now is      134.2 secs

     total energy              =    -885.68446334 Ry
     estimated scf accuracy    <       0.00100947 Ry

     total magnetization       =     5.67 Bohr mag/cell
     absolute magnetization    =     6.00 Bohr mag/cell
[tb_dev] Currently allocated     9.46E-01 Mbytes, locked:    0 /   6
[tb_pin] Currently allocated     0.00E+00 Mbytes, locked:    0 /   0

     iteration # 24     ecut=    70.00 Ry     beta= 0.40
     Davidson diagonalization with overlap

---- Real-time Memory Report at c_bands before calling an iterative solver
          2071 MiB given to the printing process from OS
          1168 MiB allocation reported by mallinfo(arena+hblkhd)
         57860 MiB available memory on the node where the printing process lives
     GPU memory used/free/total (MiB): 1506 / 14774 / 16280
------------------
     ethr =  3.65E-07,  avg # of iterations =  2.1

     total cpu time spent up to now is      138.7 secs

     total energy              =    -885.68447972 Ry
     estimated scf accuracy    <       0.00065730 Ry

     total magnetization       =     5.71 Bohr mag/cell
     absolute magnetization    =     6.04 Bohr mag/cell
[tb_dev] Currently allocated     9.46E-01 Mbytes, locked:    0 /   6
[tb_pin] Currently allocated     0.00E+00 Mbytes, locked:    0 /   0

     iteration # 25     ecut=    70.00 Ry     beta= 0.40
     Davidson diagonalization with overlap

---- Real-time Memory Report at c_bands before calling an iterative solver
          2073 MiB given to the printing process from OS
          1170 MiB allocation reported by mallinfo(arena+hblkhd)
         57857 MiB available memory on the node where the printing process lives
     GPU memory used/free/total (MiB): 1506 / 14774 / 16280
------------------
     ethr =  3.65E-07,  avg # of iterations =  1.2

     total cpu time spent up to now is      142.6 secs

     total energy              =    -885.68448890 Ry
     estimated scf accuracy    <       0.00076372 Ry

     total magnetization       =     5.76 Bohr mag/cell
     absolute magnetization    =     6.09 Bohr mag/cell
[tb_dev] Currently allocated     9.46E-01 Mbytes, locked:    0 /   6
[tb_pin] Currently allocated     0.00E+00 Mbytes, locked:    0 /   0

     iteration # 26     ecut=    70.00 Ry     beta= 0.40
     Davidson diagonalization with overlap

---- Real-time Memory Report at c_bands before calling an iterative solver
          2076 MiB given to the printing process from OS
          1172 MiB allocation reported by mallinfo(arena+hblkhd)
         57856 MiB available memory on the node where the printing process lives
     GPU memory used/free/total (MiB): 1506 / 14774 / 16280
------------------
     ethr =  3.65E-07,  avg # of iterations =  1.5

     total cpu time spent up to now is      146.7 secs

     total energy              =    -885.68443106 Ry
     estimated scf accuracy    <       0.00074477 Ry

     total magnetization       =     5.68 Bohr mag/cell
     absolute magnetization    =     6.01 Bohr mag/cell
[tb_dev] Currently allocated     9.46E-01 Mbytes, locked:    0 /   6
[tb_pin] Currently allocated     0.00E+00 Mbytes, locked:    0 /   0

     iteration # 27     ecut=    70.00 Ry     beta= 0.40
     Davidson diagonalization with overlap

---- Real-time Memory Report at c_bands before calling an iterative solver
          2078 MiB given to the printing process from OS
          1174 MiB allocation reported by mallinfo(arena+hblkhd)
         57851 MiB available memory on the node where the printing process lives
     GPU memory used/free/total (MiB): 1506 / 14774 / 16280
------------------
     ethr =  3.65E-07,  avg # of iterations =  2.2

     total cpu time spent up to now is      151.3 secs

     total energy              =    -885.68425070 Ry
     estimated scf accuracy    <       0.00054118 Ry

     total magnetization       =     5.55 Bohr mag/cell
     absolute magnetization    =     5.89 Bohr mag/cell
[tb_dev] Currently allocated     9.46E-01 Mbytes, locked:    0 /   6
[tb_pin] Currently allocated     0.00E+00 Mbytes, locked:    0 /   0

     iteration # 28     ecut=    70.00 Ry     beta= 0.40
     Davidson diagonalization with overlap

---- Real-time Memory Report at c_bands before calling an iterative solver
          2081 MiB given to the printing process from OS
          1176 MiB allocation reported by mallinfo(arena+hblkhd)
         57852 MiB available memory on the node where the printing process lives
     GPU memory used/free/total (MiB): 1506 / 14774 / 16280
------------------
     c_bands:  1 eigenvalues not converged
     ethr =  3.65E-07,  avg # of iterations =  5.4

     total cpu time spent up to now is      158.9 secs

     total energy              =    -885.68416497 Ry
     estimated scf accuracy    <       0.00001877 Ry

     total magnetization       =     5.35 Bohr mag/cell
     absolute magnetization    =     5.71 Bohr mag/cell
[tb_dev] Currently allocated     9.46E-01 Mbytes, locked:    0 /   6
[tb_pin] Currently allocated     0.00E+00 Mbytes, locked:    0 /   0

     iteration # 29     ecut=    70.00 Ry     beta= 0.40
     Davidson diagonalization with overlap

---- Real-time Memory Report at c_bands before calling an iterative solver
          2083 MiB given to the printing process from OS
          1178 MiB allocation reported by mallinfo(arena+hblkhd)
         57846 MiB available memory on the node where the printing process lives
     GPU memory used/free/total (MiB): 1506 / 14774 / 16280
------------------
     ethr =  3.18E-08,  avg # of iterations =  8.2

     total cpu time spent up to now is      169.0 secs

     total energy              =    -885.68440793 Ry
     estimated scf accuracy    <       0.00029370 Ry

     total magnetization       =     5.58 Bohr mag/cell
     absolute magnetization    =     5.92 Bohr mag/cell
[tb_dev] Currently allocated     9.46E-01 Mbytes, locked:    0 /   6
[tb_pin] Currently allocated     0.00E+00 Mbytes, locked:    0 /   0

     iteration # 30     ecut=    70.00 Ry     beta= 0.40
     Davidson diagonalization with overlap

---- Real-time Memory Report at c_bands before calling an iterative solver
          2088 MiB given to the printing process from OS
          1180 MiB allocation reported by mallinfo(arena+hblkhd)
         57844 MiB available memory on the node where the printing process lives
     GPU memory used/free/total (MiB): 1506 / 14774 / 16280
------------------
     ethr =  3.18E-08,  avg # of iterations =  4.3

     total cpu time spent up to now is      175.8 secs

     total energy              =    -885.68404996 Ry
     estimated scf accuracy    <       0.00021793 Ry

     total magnetization       =     5.42 Bohr mag/cell
     absolute magnetization    =     5.76 Bohr mag/cell
[tb_dev] Currently allocated     9.46E-01 Mbytes, locked:    0 /   6
[tb_pin] Currently allocated     0.00E+00 Mbytes, locked:    0 /   0

     iteration # 31     ecut=    70.00 Ry     beta= 0.40
     Davidson diagonalization with overlap

---- Real-time Memory Report at c_bands before calling an iterative solver
          2089 MiB given to the printing process from OS
          1182 MiB allocation reported by mallinfo(arena+hblkhd)
         57839 MiB available memory on the node where the printing process lives
     GPU memory used/free/total (MiB): 1506 / 14774 / 16280
------------------
     ethr =  3.18E-08,  avg # of iterations =  5.3

     total cpu time spent up to now is      183.4 secs

     total energy              =    -885.68446066 Ry
     estimated scf accuracy    <       0.00014782 Ry

     total magnetization       =     5.68 Bohr mag/cell
     absolute magnetization    =     6.01 Bohr mag/cell
[tb_dev] Currently allocated     9.46E-01 Mbytes, locked:    0 /   6
[tb_pin] Currently allocated     0.00E+00 Mbytes, locked:    0 /   0

     iteration # 32     ecut=    70.00 Ry     beta= 0.40
     Davidson diagonalization with overlap

---- Real-time Memory Report at c_bands before calling an iterative solver
          2091 MiB given to the printing process from OS
          1184 MiB allocation reported by mallinfo(arena+hblkhd)
         57842 MiB available memory on the node where the printing process lives
     GPU memory used/free/total (MiB): 1506 / 14774 / 16280
------------------
     ethr =  3.18E-08,  avg # of iterations =  2.1

     total cpu time spent up to now is      187.8 secs

     total energy              =    -885.68430101 Ry
     estimated scf accuracy    <       0.00013183 Ry

     total magnetization       =     5.66 Bohr mag/cell
     absolute magnetization    =     6.00 Bohr mag/cell
[tb_dev] Currently allocated     9.46E-01 Mbytes, locked:    0 /   6
[tb_pin] Currently allocated     0.00E+00 Mbytes, locked:    0 /   0

     iteration # 33     ecut=    70.00 Ry     beta= 0.40
     Davidson diagonalization with overlap

---- Real-time Memory Report at c_bands before calling an iterative solver
          2094 MiB given to the printing process from OS
          1186 MiB allocation reported by mallinfo(arena+hblkhd)
         57838 MiB available memory on the node where the printing process lives
     GPU memory used/free/total (MiB): 1506 / 14774 / 16280
------------------
     ethr =  3.18E-08,  avg # of iterations =  4.6

     total cpu time spent up to now is      194.6 secs

     total energy              =    -885.68455390 Ry
     estimated scf accuracy    <       0.00018075 Ry

     total magnetization       =     5.47 Bohr mag/cell
     absolute magnetization    =     5.81 Bohr mag/cell
[tb_dev] Currently allocated     9.46E-01 Mbytes, locked:    0 /   6
[tb_pin] Currently allocated     0.00E+00 Mbytes, locked:    0 /   0

     iteration # 34     ecut=    70.00 Ry     beta= 0.40
     Davidson diagonalization with overlap

---- Real-time Memory Report at c_bands before calling an iterative solver
          2096 MiB given to the printing process from OS
          1188 MiB allocation reported by mallinfo(arena+hblkhd)
         57839 MiB available memory on the node where the printing process lives
     GPU memory used/free/total (MiB): 1506 / 14774 / 16280
------------------
     ethr =  3.18E-08,  avg # of iterations =  3.5

     total cpu time spent up to now is      200.5 secs

     total energy              =    -885.68432226 Ry
     estimated scf accuracy    <       0.00021930 Ry

     total magnetization       =     5.39 Bohr mag/cell
     absolute magnetization    =     5.73 Bohr mag/cell
[tb_dev] Currently allocated     9.46E-01 Mbytes, locked:    0 /   6
[tb_pin] Currently allocated     0.00E+00 Mbytes, locked:    0 /   0

     iteration # 35     ecut=    70.00 Ry     beta= 0.40
     Davidson diagonalization with overlap

---- Real-time Memory Report at c_bands before calling an iterative solver
          2097 MiB given to the printing process from OS
          1190 MiB allocation reported by mallinfo(arena+hblkhd)
         57837 MiB available memory on the node where the printing process lives
     GPU memory used/free/total (MiB): 1506 / 14774 / 16280
------------------
     ethr =  3.18E-08,  avg # of iterations =  4.3

     total cpu time spent up to now is      207.2 secs

     total energy              =    -885.68032147 Ry
     estimated scf accuracy    <       0.00011393 Ry

     total magnetization       =     5.55 Bohr mag/cell
     absolute magnetization    =     5.89 Bohr mag/cell
[tb_dev] Currently allocated     9.46E-01 Mbytes, locked:    0 /   6
[tb_pin] Currently allocated     0.00E+00 Mbytes, locked:    0 /   0

     iteration # 36     ecut=    70.00 Ry     beta= 0.40
     Davidson diagonalization with overlap

---- Real-time Memory Report at c_bands before calling an iterative solver
          2100 MiB given to the printing process from OS
          1193 MiB allocation reported by mallinfo(arena+hblkhd)
         57835 MiB available memory on the node where the printing process lives
     GPU memory used/free/total (MiB): 1506 / 14774 / 16280
------------------
     ethr =  3.18E-08,  avg # of iterations = 10.5

     total cpu time spent up to now is      220.0 secs

     total energy              =    -885.68332891 Ry
     estimated scf accuracy    <       0.00025110 Ry

     total magnetization       =     6.23 Bohr mag/cell
     absolute magnetization    =     6.55 Bohr mag/cell
[tb_dev] Currently allocated     9.46E-01 Mbytes, locked:    0 /   6
[tb_pin] Currently allocated     0.00E+00 Mbytes, locked:    0 /   0

     iteration # 37     ecut=    70.00 Ry     beta= 0.40
     Davidson diagonalization with overlap

---- Real-time Memory Report at c_bands before calling an iterative solver
          2102 MiB given to the printing process from OS
          1195 MiB allocation reported by mallinfo(arena+hblkhd)
         57831 MiB available memory on the node where the printing process lives
     GPU memory used/free/total (MiB): 1506 / 14774 / 16280
------------------
     c_bands:  1 eigenvalues not converged
     ethr =  3.18E-08,  avg # of iterations =  7.5

     total cpu time spent up to now is      229.3 secs

     total energy              =    -885.68312352 Ry
     estimated scf accuracy    <       0.00010015 Ry

     total magnetization       =     5.87 Bohr mag/cell
     absolute magnetization    =     6.19 Bohr mag/cell
[tb_dev] Currently allocated     9.46E-01 Mbytes, locked:    0 /   6
[tb_pin] Currently allocated     0.00E+00 Mbytes, locked:    0 /   0

     iteration # 38     ecut=    70.00 Ry     beta= 0.40
     Davidson diagonalization with overlap

---- Real-time Memory Report at c_bands before calling an iterative solver
          2103 MiB given to the printing process from OS
          1197 MiB allocation reported by mallinfo(arena+hblkhd)
         57830 MiB available memory on the node where the printing process lives
     GPU memory used/free/total (MiB): 1506 / 14774 / 16280
------------------
     ethr =  3.18E-08,  avg # of iterations =  7.3

     total cpu time spent up to now is      239.4 secs

     total energy              =    -885.68455271 Ry
     estimated scf accuracy    <       0.00002182 Ry

     total magnetization       =     5.40 Bohr mag/cell
     absolute magnetization    =     5.75 Bohr mag/cell
[tb_dev] Currently allocated     9.46E-01 Mbytes, locked:    0 /   6
[tb_pin] Currently allocated     0.00E+00 Mbytes, locked:    0 /   0

     iteration # 39     ecut=    70.00 Ry     beta= 0.40
     Davidson diagonalization with overlap

---- Real-time Memory Report at c_bands before calling an iterative solver
          2108 MiB given to the printing process from OS
          1199 MiB allocation reported by mallinfo(arena+hblkhd)
         57807 MiB available memory on the node where the printing process lives
     GPU memory used/free/total (MiB): 1506 / 14774 / 16280
------------------
     ethr =  3.18E-08,  avg # of iterations =  2.2

     total cpu time spent up to now is      244.0 secs

     total energy              =    -885.68454861 Ry
     estimated scf accuracy    <       0.00001689 Ry

     total magnetization       =     5.37 Bohr mag/cell
     absolute magnetization    =     5.72 Bohr mag/cell
[tb_dev] Currently allocated     9.46E-01 Mbytes, locked:    0 /   6
[tb_pin] Currently allocated     0.00E+00 Mbytes, locked:    0 /   0

     iteration # 40     ecut=    70.00 Ry     beta= 0.40
     Davidson diagonalization with overlap

---- Real-time Memory Report at c_bands before calling an iterative solver
          2111 MiB given to the printing process from OS
          1201 MiB allocation reported by mallinfo(arena+hblkhd)
         57807 MiB available memory on the node where the printing process lives
     GPU memory used/free/total (MiB): 1506 / 14774 / 16280
------------------
     ethr =  2.86E-08,  avg # of iterations =  5.5

     total cpu time spent up to now is      251.7 secs

     total energy              =    -885.68434698 Ry
     estimated scf accuracy    <       0.00005856 Ry

     total magnetization       =     5.27 Bohr mag/cell
     absolute magnetization    =     5.62 Bohr mag/cell
[tb_dev] Currently allocated     9.46E-01 Mbytes, locked:    0 /   6
[tb_pin] Currently allocated     0.00E+00 Mbytes, locked:    0 /   0

     iteration # 41     ecut=    70.00 Ry     beta= 0.40
     Davidson diagonalization with overlap

---- Real-time Memory Report at c_bands before calling an iterative solver
          2113 MiB given to the printing process from OS
          1203 MiB allocation reported by mallinfo(arena+hblkhd)
         57809 MiB available memory on the node where the printing process lives
     GPU memory used/free/total (MiB): 1506 / 14774 / 16280
------------------
     ethr =  2.86E-08,  avg # of iterations =  4.3

     total cpu time spent up to now is      258.5 secs

     total energy              =    -885.68451763 Ry
     estimated scf accuracy    <       0.00004733 Ry

     total magnetization       =     5.44 Bohr mag/cell
     absolute magnetization    =     5.79 Bohr mag/cell
[tb_dev] Currently allocated     9.46E-01 Mbytes, locked:    0 /   6
[tb_pin] Currently allocated     0.00E+00 Mbytes, locked:    0 /   0

     iteration # 42     ecut=    70.00 Ry     beta= 0.40
     Davidson diagonalization with overlap

---- Real-time Memory Report at c_bands before calling an iterative solver
          2116 MiB given to the printing process from OS
          1205 MiB allocation reported by mallinfo(arena+hblkhd)
         57802 MiB available memory on the node where the printing process lives
     GPU memory used/free/total (MiB): 1506 / 14774 / 16280
------------------
     ethr =  2.86E-08,  avg # of iterations =  1.6

     total cpu time spent up to now is      262.8 secs

     total energy              =    -885.68418876 Ry
     estimated scf accuracy    <       0.00002965 Ry

     total magnetization       =     5.47 Bohr mag/cell
     absolute magnetization    =     5.81 Bohr mag/cell
[tb_dev] Currently allocated     9.46E-01 Mbytes, locked:    0 /   6
[tb_pin] Currently allocated     0.00E+00 Mbytes, locked:    0 /   0

     iteration # 43     ecut=    70.00 Ry     beta= 0.40
     Davidson diagonalization with overlap

---- Real-time Memory Report at c_bands before calling an iterative solver
          2119 MiB given to the printing process from OS
          1207 MiB allocation reported by mallinfo(arena+hblkhd)
         57804 MiB available memory on the node where the printing process lives
     GPU memory used/free/total (MiB): 1506 / 14774 / 16280
------------------
     ethr =  2.86E-08,  avg # of iterations =  5.0

     total cpu time spent up to now is      269.9 secs

     total energy              =    -885.68463488 Ry
     estimated scf accuracy    <       0.00004572 Ry

     total magnetization       =     5.19 Bohr mag/cell
     absolute magnetization    =     5.55 Bohr mag/cell
[tb_dev] Currently allocated     9.46E-01 Mbytes, locked:    0 /   6
[tb_pin] Currently allocated     0.00E+00 Mbytes, locked:    0 /   0

     iteration # 44     ecut=    70.00 Ry     beta= 0.40
     Davidson diagonalization with overlap

---- Real-time Memory Report at c_bands before calling an iterative solver
          2121 MiB given to the printing process from OS
          1209 MiB allocation reported by mallinfo(arena+hblkhd)
         57803 MiB available memory on the node where the printing process lives
     GPU memory used/free/total (MiB): 1506 / 14774 / 16280
------------------
     ethr =  2.86E-08,  avg # of iterations =  5.1

     total cpu time spent up to now is      277.1 secs

     total energy              =    -885.68367761 Ry
     estimated scf accuracy    <       0.00006073 Ry

     total magnetization       =     5.07 Bohr mag/cell
     absolute magnetization    =     5.45 Bohr mag/cell
[tb_dev] Currently allocated     9.46E-01 Mbytes, locked:    0 /   6
[tb_pin] Currently allocated     0.00E+00 Mbytes, locked:    0 /   0

     iteration # 45     ecut=    70.00 Ry     beta= 0.40
     Davidson diagonalization with overlap

---- Real-time Memory Report at c_bands before calling an iterative solver
          2122 MiB given to the printing process from OS
          1211 MiB allocation reported by mallinfo(arena+hblkhd)
         57803 MiB available memory on the node where the printing process lives
     GPU memory used/free/total (MiB): 1506 / 14774 / 16280
------------------
     ethr =  2.86E-08,  avg # of iterations =  6.7

     total cpu time spent up to now is      285.8 secs

     total energy              =    -885.68185947 Ry
     estimated scf accuracy    <       0.00003379 Ry

     total magnetization       =     5.44 Bohr mag/cell
     absolute magnetization    =     5.79 Bohr mag/cell
[tb_dev] Currently allocated     9.46E-01 Mbytes, locked:    0 /   6
[tb_pin] Currently allocated     0.00E+00 Mbytes, locked:    0 /   0

     iteration # 46     ecut=    70.00 Ry     beta= 0.40
     Davidson diagonalization with overlap

---- Real-time Memory Report at c_bands before calling an iterative solver
          2124 MiB given to the printing process from OS
          1213 MiB allocation reported by mallinfo(arena+hblkhd)
         57800 MiB available memory on the node where the printing process lives
     GPU memory used/free/total (MiB): 1506 / 14774 / 16280
------------------
     ethr =  2.86E-08,  avg # of iterations =  9.6

     negative rho (up, down):  0.000E+00 3.116E-06

     total cpu time spent up to now is      297.3 secs

     total energy              =    -885.68251864 Ry
     estimated scf accuracy    <       0.00007032 Ry

     total magnetization       =     6.02 Bohr mag/cell
     absolute magnetization    =     6.34 Bohr mag/cell
[tb_dev] Currently allocated     9.46E-01 Mbytes, locked:    0 /   6
[tb_pin] Currently allocated     0.00E+00 Mbytes, locked:    0 /   0

     iteration # 47     ecut=    70.00 Ry     beta= 0.40
     Davidson diagonalization with overlap

---- Real-time Memory Report at c_bands before calling an iterative solver
          2127 MiB given to the printing process from OS
          1215 MiB allocation reported by mallinfo(arena+hblkhd)
         57801 MiB available memory on the node where the printing process lives
     GPU memory used/free/total (MiB): 1506 / 14774 / 16280
------------------
     ethr =  2.86E-08,  avg # of iterations =  8.8

     total cpu time spent up to now is      307.7 secs

     total energy              =    -885.67382535 Ry
     estimated scf accuracy    <       0.00036670 Ry

     total magnetization       =     6.37 Bohr mag/cell
     absolute magnetization    =     6.68 Bohr mag/cell
[tb_dev] Currently allocated     9.46E-01 Mbytes, locked:    0 /   6
[tb_pin] Currently allocated     0.00E+00 Mbytes, locked:    0 /   0

     iteration # 48     ecut=    70.00 Ry     beta= 0.40
     Davidson diagonalization with overlap

---- Real-time Memory Report at c_bands before calling an iterative solver
          2129 MiB given to the printing process from OS
          1217 MiB allocation reported by mallinfo(arena+hblkhd)
         57799 MiB available memory on the node where the printing process lives
     GPU memory used/free/total (MiB): 1506 / 14774 / 16280
------------------
     ethr =  2.86E-08,  avg # of iterations = 12.5

     total cpu time spent up to now is      321.9 secs

     total energy              =    -885.67650051 Ry
     estimated scf accuracy    <       0.00004545 Ry

     total magnetization       =     5.09 Bohr mag/cell
     absolute magnetization    =     5.46 Bohr mag/cell
[tb_dev] Currently allocated     9.46E-01 Mbytes, locked:    0 /   6
[tb_pin] Currently allocated     0.00E+00 Mbytes, locked:    0 /   0

     iteration # 49     ecut=    70.00 Ry     beta= 0.40
     Davidson diagonalization with overlap

---- Real-time Memory Report at c_bands before calling an iterative solver
          2130 MiB given to the printing process from OS
          1219 MiB allocation reported by mallinfo(arena+hblkhd)
         57798 MiB available memory on the node where the printing process lives
     GPU memory used/free/total (MiB): 1506 / 14774 / 16280
------------------
     ethr =  2.86E-08,  avg # of iterations = 11.1

     total cpu time spent up to now is      334.9 secs

     total energy              =    -885.68359514 Ry
     estimated scf accuracy    <       0.00010298 Ry

     total magnetization       =     6.12 Bohr mag/cell
     absolute magnetization    =     6.44 Bohr mag/cell
[tb_dev] Currently allocated     9.46E-01 Mbytes, locked:    0 /   6
[tb_pin] Currently allocated     0.00E+00 Mbytes, locked:    0 /   0

     iteration # 50     ecut=    70.00 Ry     beta= 0.40
     Davidson diagonalization with overlap

---- Real-time Memory Report at c_bands before calling an iterative solver
          2133 MiB given to the printing process from OS
          1221 MiB allocation reported by mallinfo(arena+hblkhd)
         57797 MiB available memory on the node where the printing process lives
     GPU memory used/free/total (MiB): 1506 / 14774 / 16280
------------------
     ethr =  2.86E-08,  avg # of iterations =  7.6

     total cpu time spent up to now is      344.4 secs

     total energy              =    -885.68430915 Ry
     estimated scf accuracy    <       0.00002113 Ry

     total magnetization       =     5.80 Bohr mag/cell
     absolute magnetization    =     6.12 Bohr mag/cell
[tb_dev] Currently allocated     9.46E-01 Mbytes, locked:    0 /   6
[tb_pin] Currently allocated     0.00E+00 Mbytes, locked:    0 /   0

     iteration # 51     ecut=    70.00 Ry     beta= 0.40
     Davidson diagonalization with overlap

---- Real-time Memory Report at c_bands before calling an iterative solver
          2136 MiB given to the printing process from OS
          1223 MiB allocation reported by mallinfo(arena+hblkhd)
         57797 MiB available memory on the node where the printing process lives
     GPU memory used/free/total (MiB): 1506 / 14774 / 16280
------------------
     ethr =  2.86E-08,  avg # of iterations =  4.6

     total cpu time spent up to now is      351.3 secs

     total energy              =    -885.68389736 Ry
     estimated scf accuracy    <       0.00001650 Ry

     total magnetization       =     5.65 Bohr mag/cell
     absolute magnetization    =     5.98 Bohr mag/cell
[tb_dev] Currently allocated     9.46E-01 Mbytes, locked:    0 /   6
[tb_pin] Currently allocated     0.00E+00 Mbytes, locked:    0 /   0

     iteration # 52     ecut=    70.00 Ry     beta= 0.40
     Davidson diagonalization with overlap

---- Real-time Memory Report at c_bands before calling an iterative solver
          2136 MiB given to the printing process from OS
          1225 MiB allocation reported by mallinfo(arena+hblkhd)
         57795 MiB available memory on the node where the printing process lives
     GPU memory used/free/total (MiB): 1506 / 14774 / 16280
------------------
     ethr =  2.80E-08,  avg # of iterations =  7.6

     total cpu time spent up to now is      360.8 secs

     total energy              =    -885.68458941 Ry
     estimated scf accuracy    <       0.00002289 Ry

     total magnetization       =     5.32 Bohr mag/cell
     absolute magnetization    =     5.67 Bohr mag/cell
[tb_dev] Currently allocated     9.46E-01 Mbytes, locked:    0 /   6
[tb_pin] Currently allocated     0.00E+00 Mbytes, locked:    0 /   0

     iteration # 53     ecut=    70.00 Ry     beta= 0.40
     Davidson diagonalization with overlap

---- Real-time Memory Report at c_bands before calling an iterative solver
          2139 MiB given to the printing process from OS
          1227 MiB allocation reported by mallinfo(arena+hblkhd)
         57788 MiB available memory on the node where the printing process lives
     GPU memory used/free/total (MiB): 1506 / 14774 / 16280
------------------
     ethr =  2.80E-08,  avg # of iterations =  1.1

     total cpu time spent up to now is      364.6 secs

     total energy              =    -885.68459971 Ry
     estimated scf accuracy    <       0.00002449 Ry

     total magnetization       =     5.30 Bohr mag/cell
     absolute magnetization    =     5.66 Bohr mag/cell
[...]
[tb_dev] Currently allocated     9.46E-01 Mbytes, locked:    0 /   6
[tb_pin] Currently allocated     0.00E+00 Mbytes, locked:    0 /   0

     iteration # 65     ecut=    70.00 Ry     beta= 0.40
     Davidson diagonalization with overlap

---- Real-time Memory Report at c_bands before calling an iterative solver
          2165 MiB given to the printing process from OS
          1251 MiB allocation reported by mallinfo(arena+hblkhd)
         57766 MiB available memory on the node where the printing process lives
     GPU memory used/free/total (MiB): 1506 / 14774 / 16280
------------------
     ethr =  2.58E-08,  avg # of iterations =  6.8

     total cpu time spent up to now is      455.0 secs

     total energy              =    -885.68447042 Ry
     estimated scf accuracy    <       0.00001285 Ry

     total magnetization       =     5.61 Bohr mag/cell
     absolute magnetization    =     5.95 Bohr mag/cell
[tb_dev] Currently allocated     9.46E-01 Mbytes, locked:    0 /   6
[tb_pin] Currently allocated     0.00E+00 Mbytes, locked:    0 /   0

     iteration # 66     ecut=    70.00 Ry     beta= 0.40
     Davidson diagonalization with overlap

---- Real-time Memory Report at c_bands before calling an iterative solver
          2166 MiB given to the printing process from OS
          1253 MiB allocation reported by mallinfo(arena+hblkhd)
         57766 MiB available memory on the node where the printing process lives
     GPU memory used/free/total (MiB): 1506 / 14774 / 16280
------------------
     ethr =  2.18E-08,  avg # of iterations =  1.6

     total cpu time spent up to now is      459.2 secs

     total energy              =    -885.68429070 Ry
     estimated scf accuracy    <       0.00001311 Ry

     total magnetization       =     5.60 Bohr mag/cell
     absolute magnetization    =     5.93 Bohr mag/cell
[tb_dev] Currently allocated     9.46E-01 Mbytes, locked:    0 /   6
[tb_pin] Currently allocated     0.00E+00 Mbytes, locked:    0 /   0

     iteration # 67     ecut=    70.00 Ry     beta= 0.40
     Davidson diagonalization with overlap

---- Real-time Memory Report at c_bands before calling an iterative solver
          2168 MiB given to the printing process from OS
          1255 MiB allocation reported by mallinfo(arena+hblkhd)
         57765 MiB available memory on the node where the printing process lives
     GPU memory used/free/total (MiB): 1506 / 14774 / 16280
------------------
     ethr =  2.18E-08,  avg # of iterations =  4.2

     total cpu time spent up to now is      466.0 secs

     total energy              =    -885.68440955 Ry
     estimated scf accuracy    <       0.00001512 Ry

     total magnetization       =     5.74 Bohr mag/cell
     absolute magnetization    =     6.06 Bohr mag/cell
[tb_dev] Currently allocated     9.46E-01 Mbytes, locked:    0 /   6
[tb_pin] Currently allocated     0.00E+00 Mbytes, locked:    0 /   0

     iteration # 68     ecut=    70.00 Ry     beta= 0.40
     Davidson diagonalization with overlap

---- Real-time Memory Report at c_bands before calling an iterative solver
          2171 MiB given to the printing process from OS
          1257 MiB allocation reported by mallinfo(arena+hblkhd)
         57761 MiB available memory on the node where the printing process lives
     GPU memory used/free/total (MiB): 1506 / 14774 / 16280
------------------
     ethr =  2.18E-08,  avg # of iterations =  1.0

     total cpu time spent up to now is      469.8 secs

     total energy              =    -885.68438003 Ry
     estimated scf accuracy    <       0.00001560 Ry

     total magnetization       =     5.75 Bohr mag/cell
     absolute magnetization    =     6.08 Bohr mag/cell
[tb_dev] Currently allocated     9.46E-01 Mbytes, locked:    0 /   6
[tb_pin] Currently allocated     0.00E+00 Mbytes, locked:    0 /   0

     iteration # 69     ecut=    70.00 Ry     beta= 0.40
     Davidson diagonalization with overlap

---- Real-time Memory Report at c_bands before calling an iterative solver
          2173 MiB given to the printing process from OS
          1259 MiB allocation reported by mallinfo(arena+hblkhd)
         57759 MiB available memory on the node where the printing process lives
     GPU memory used/free/total (MiB): 1506 / 14774 / 16280
------------------
     ethr =  2.18E-08,  avg # of iterations =  2.6

     total cpu time spent up to now is      474.8 secs

     total energy              =    -885.68439838 Ry
     estimated scf accuracy    <       0.00001821 Ry

     total magnetization       =     5.79 Bohr mag/cell
     absolute magnetization    =     6.11 Bohr mag/cell
[tb_dev] Currently allocated     9.46E-01 Mbytes, locked:    0 /   6
[tb_pin] Currently allocated     0.00E+00 Mbytes, locked:    0 /   0

     iteration # 70     ecut=    70.00 Ry     beta= 0.40
     Davidson diagonalization with overlap

---- Real-time Memory Report at c_bands before calling an iterative solver
          2174 MiB given to the printing process from OS
          1261 MiB allocation reported by mallinfo(arena+hblkhd)
         57756 MiB available memory on the node where the printing process lives
     GPU memory used/free/total (MiB): 1506 / 14774 / 16280
------------------
     ethr =  2.18E-08,  avg # of iterations =  2.5

     total cpu time spent up to now is      479.6 secs

     total energy              =    -885.68428622 Ry
     estimated scf accuracy    <       0.00001459 Ry

     total magnetization       =     5.74 Bohr mag/cell
     absolute magnetization    =     6.07 Bohr mag/cell
[tb_dev] Currently allocated     9.46E-01 Mbytes, locked:    0 /   6
[tb_pin] Currently allocated     0.00E+00 Mbytes, locked:    0 /   0

     iteration # 71     ecut=    70.00 Ry     beta= 0.40
     Davidson diagonalization with overlap

---- Real-time Memory Report at c_bands before calling an iterative solver
          2176 MiB given to the printing process from OS
          1264 MiB allocation reported by mallinfo(arena+hblkhd)
         57757 MiB available memory on the node where the printing process lives
     GPU memory used/free/total (MiB): 1506 / 14774 / 16280
------------------
     ethr =  2.18E-08,  avg # of iterations =  4.3

     total cpu time spent up to now is      486.4 secs

     total energy              =    -885.68322951 Ry
     estimated scf accuracy    <       0.00002337 Ry

     total magnetization       =     5.85 Bohr mag/cell
     absolute magnetization    =     6.17 Bohr mag/cell
[tb_dev] Currently allocated     9.46E-01 Mbytes, locked:    0 /   6
[tb_pin] Currently allocated     0.00E+00 Mbytes, locked:    0 /   0

     iteration # 72     ecut=    70.00 Ry     beta= 0.40
     Davidson diagonalization with overlap

---- Real-time Memory Report at c_bands before calling an iterative solver
          2179 MiB given to the printing process from OS
          1266 MiB allocation reported by mallinfo(arena+hblkhd)
         57756 MiB available memory on the node where the printing process lives
     GPU memory used/free/total (MiB): 1506 / 14774 / 16280
------------------
     ethr =  2.18E-08,  avg # of iterations =  8.7

     total cpu time spent up to now is      496.6 secs

     total energy              =    -885.68004212 Ry
     estimated scf accuracy    <       0.00001482 Ry

     total magnetization       =     5.39 Bohr mag/cell
     absolute magnetization    =     5.74 Bohr mag/cell
[tb_dev] Currently allocated     9.46E-01 Mbytes, locked:    0 /   6
[tb_pin] Currently allocated     0.00E+00 Mbytes, locked:    0 /   0

     iteration # 73     ecut=    70.00 Ry     beta= 0.40
     Davidson diagonalization with overlap

---- Real-time Memory Report at c_bands before calling an iterative solver
          2180 MiB given to the printing process from OS
          1285 MiB allocation reported by mallinfo(arena+hblkhd)
         57752 MiB available memory on the node where the printing process lives
     GPU memory used/free/total (MiB): 1506 / 14774 / 16280
------------------
     ethr =  2.18E-08,  avg # of iterations = 10.0

     total cpu time spent up to now is      508.5 secs

     total energy              =    -885.67983842 Ry
     estimated scf accuracy    <       0.00010047 Ry

     total magnetization       =     6.14 Bohr mag/cell
     absolute magnetization    =     6.45 Bohr mag/cell
[tb_dev] Currently allocated     9.46E-01 Mbytes, locked:    0 /   6
[tb_pin] Currently allocated     0.00E+00 Mbytes, locked:    0 /   0

     iteration # 74     ecut=    70.00 Ry     beta= 0.40
     Davidson diagonalization with overlap

---- Real-time Memory Report at c_bands before calling an iterative solver
          2183 MiB given to the printing process from OS
          1287 MiB allocation reported by mallinfo(arena+hblkhd)
         57751 MiB available memory on the node where the printing process lives
     GPU memory used/free/total (MiB): 1506 / 14774 / 16280
------------------
     ethr =  2.18E-08,  avg # of iterations = 10.3

     total cpu time spent up to now is      520.9 secs

     total energy              =    -885.68386301 Ry
     estimated scf accuracy    <       0.00002150 Ry

     total magnetization       =     5.28 Bohr mag/cell
     absolute magnetization    =     5.64 Bohr mag/cell
[tb_dev] Currently allocated     9.46E-01 Mbytes, locked:    0 /   6
[tb_pin] Currently allocated     0.00E+00 Mbytes, locked:    0 /   0

     iteration # 75     ecut=    70.00 Ry     beta= 0.40
     Davidson diagonalization with overlap

---- Real-time Memory Report at c_bands before calling an iterative solver
          2186 MiB given to the printing process from OS
          1289 MiB allocation reported by mallinfo(arena+hblkhd)
         57743 MiB available memory on the node where the printing process lives
     GPU memory used/free/total (MiB): 1506 / 14774 / 16280
------------------
     ethr =  2.18E-08,  avg # of iterations =  8.9

     total cpu time spent up to now is      531.3 secs

     total energy              =    -885.68462781 Ry
     estimated scf accuracy    <       0.00009114 Ry

     total magnetization       =     4.87 Bohr mag/cell
     absolute magnetization    =     5.29 Bohr mag/cell
[tb_dev] Currently allocated     9.46E-01 Mbytes, locked:    0 /   6
[tb_pin] Currently allocated     0.00E+00 Mbytes, locked:    0 /   0

     iteration # 76     ecut=    70.00 Ry     beta= 0.40
     Davidson diagonalization with overlap

---- Real-time Memory Report at c_bands before calling an iterative solver
          2189 MiB given to the printing process from OS
          1291 MiB allocation reported by mallinfo(arena+hblkhd)
         57747 MiB available memory on the node where the printing process lives
     GPU memory used/free/total (MiB): 1506 / 14774 / 16280
------------------
     ethr =  2.18E-08,  avg # of iterations =  4.1

     total cpu time spent up to now is      537.9 secs

     total energy              =    -885.68045021 Ry
     estimated scf accuracy    <       0.00005361 Ry

     total magnetization       =     5.02 Bohr mag/cell
     absolute magnetization    =     5.40 Bohr mag/cell
[tb_dev] Currently allocated     9.46E-01 Mbytes, locked:    0 /   6
[tb_pin] Currently allocated     0.00E+00 Mbytes, locked:    0 /   0

     iteration # 77     ecut=    70.00 Ry     beta= 0.40
     Davidson diagonalization with overlap

---- Real-time Memory Report at c_bands before calling an iterative solver
          2189 MiB given to the printing process from OS
          1293 MiB allocation reported by mallinfo(arena+hblkhd)
         57741 MiB available memory on the node where the printing process lives
     GPU memory used/free/total (MiB): 1506 / 14774 / 16280
------------------
     ethr =  2.18E-08,  avg # of iterations = 10.7

     total cpu time spent up to now is      550.4 secs

     total energy              =    -885.68436414 Ry
     estimated scf accuracy    <       0.00001840 Ry

     total magnetization       =     5.80 Bohr mag/cell
     absolute magnetization    =     6.12 Bohr mag/cell
[tb_dev] Currently allocated     9.46E-01 Mbytes, locked:    0 /   6
[tb_pin] Currently allocated     0.00E+00 Mbytes, locked:    0 /   0

     iteration # 78     ecut=    70.00 Ry     beta= 0.40
     Davidson diagonalization with overlap

---- Real-time Memory Report at c_bands before calling an iterative solver
          2192 MiB given to the printing process from OS
          1295 MiB allocation reported by mallinfo(arena+hblkhd)
         57742 MiB available memory on the node where the printing process lives
     GPU memory used/free/total (MiB): 1506 / 14774 / 16280
------------------
     ethr =  2.18E-08,  avg # of iterations =  3.9

     total cpu time spent up to now is      556.8 secs

     total energy              =    -885.68428859 Ry
     estimated scf accuracy    <       0.00001339 Ry

     total magnetization       =     5.70 Bohr mag/cell
     absolute magnetization    =     6.03 Bohr mag/cell
[tb_dev] Currently allocated     9.46E-01 Mbytes, locked:    0 /   6
[tb_pin] Currently allocated     0.00E+00 Mbytes, locked:    0 /   0

     iteration # 79     ecut=    70.00 Ry     beta= 0.40
     Davidson diagonalization with overlap

---- Real-time Memory Report at c_bands before calling an iterative solver
          2199 MiB given to the printing process from OS
          1297 MiB allocation reported by mallinfo(arena+hblkhd)
         57734 MiB available memory on the node where the printing process lives
     GPU memory used/free/total (MiB): 1506 / 14774 / 16280
------------------
     ethr =  2.18E-08,  avg # of iterations =  6.5

     total cpu time spent up to now is      564.9 secs

     total energy              =    -885.68449462 Ry
     estimated scf accuracy    <       0.00001168 Ry

     total magnetization       =     5.52 Bohr mag/cell
     absolute magnetization    =     5.86 Bohr mag/cell
[tb_dev] Currently allocated     9.46E-01 Mbytes, locked:    0 /   6
[tb_pin] Currently allocated     0.00E+00 Mbytes, locked:    0 /   0

     iteration # 80     ecut=    70.00 Ry     beta= 0.40
     Davidson diagonalization with overlap

---- Real-time Memory Report at c_bands before calling an iterative solver
          2200 MiB given to the printing process from OS
          1299 MiB allocation reported by mallinfo(arena+hblkhd)
         57731 MiB available memory on the node where the printing process lives
     GPU memory used/free/total (MiB): 1506 / 14774 / 16280
------------------
     ethr =  1.98E-08,  avg # of iterations =  1.4

     total cpu time spent up to now is      568.9 secs

     total energy              =    -885.68443626 Ry
     estimated scf accuracy    <       0.00001180 Ry

     total magnetization       =     5.54 Bohr mag/cell
     absolute magnetization    =     5.87 Bohr mag/cell

     End of self-consistent calculation

     convergence NOT achieved after  80 iterations: stopping

     Writing config to output data dir ./out/aiida.save/
 
     init_run     :     21.75s CPU      5.51s WALL (       1 calls)
     electrons    :    972.17s CPU    562.74s WALL (       1 calls)

     Called by init_run:
     wfcinit      :      1.97s CPU      3.03s WALL (       1 calls)
                                        3.03s GPU  (       1 calls)
     wfcinit:atom :      0.05s CPU      0.07s WALL (     168 calls)
                                        0.07s GPU  (     168 calls)
     wfcinit:wfcr :      1.24s CPU      1.94s WALL (     168 calls)
                                        1.94s GPU  (     168 calls)
     potinit      :      8.07s CPU      0.77s WALL (       1 calls)
     hinit0       :      7.09s CPU      1.04s WALL (       1 calls)

     Called by electrons:
     c_bands      :    543.09s CPU    477.17s WALL (      80 calls)
     sum_band     :     43.90s CPU     50.46s WALL (      80 calls)
     v_of_rho     :     24.61s CPU      2.25s WALL (      81 calls)
     v_h          :      3.40s CPU      0.30s WALL (      81 calls)
     v_xc         :     21.20s CPU      1.95s WALL (      81 calls)
     newd         :     35.03s CPU      3.46s WALL (      81 calls)
                                        3.45s GPU  (      81 calls)
     PAW_pot      :    307.93s CPU     27.86s WALL (      81 calls)
     mix_rho      :     17.26s CPU      1.69s WALL (      80 calls)

     Called by c_bands:
     init_us_2    :     28.79s CPU     27.74s WALL (   27048 calls)
     init_us_2:gp :     28.28s CPU     27.29s WALL (   27048 calls)
     cegterg      :    497.22s CPU    439.93s WALL (   13440 calls)

     Called by sum_band:
     sum_band:wei :      0.46s CPU      0.46s WALL (      80 calls)
                                        0.46s GPU  (      80 calls)
     sum_band:loo :     38.60s CPU     44.92s WALL (      80 calls)
                                       44.92s GPU  (      80 calls)
     sum_band:buf :      7.35s CPU      8.53s WALL (   13440 calls)
                                        8.45s GPU  (   13440 calls)
     sum_band:ini :     11.19s CPU     13.54s WALL (   13440 calls)
                                       13.46s GPU  (   13440 calls)
     sum_band:cal :      0.42s CPU      1.23s WALL (   13440 calls)
                                        1.06s GPU  (   13440 calls)
     sum_band:bec :      1.58s CPU      1.97s WALL (   13440 calls)
                                        1.89s GPU  (   13440 calls)
     addusdens    :      3.51s CPU      3.71s WALL (      80 calls)
                                        3.71s GPU  (      80 calls)
     addusd:skk   :      0.01s CPU      0.01s WALL (     160 calls)
                                        0.01s GPU  (     160 calls)

     Called by *egterg:
     cdiaghg      :    247.19s CPU    229.34s WALL (   78302 calls)
                                      228.82s GPU  (   78302 calls)
     cegterg:over :     10.72s CPU      9.28s WALL (   64862 calls)
     cegterg:upda :     23.20s CPU     20.16s WALL (   64862 calls)
     cegterg:last :      6.57s CPU      5.72s WALL (   35636 calls)
     h_psi        :    172.68s CPU    146.42s WALL (   78470 calls)
                                      145.98s GPU  (   78470 calls)
     s_psi        :      7.54s CPU     10.21s WALL (   78470 calls)
                                        9.45s GPU  (   78470 calls)
     g_psi        :      0.56s CPU      1.50s WALL (   64862 calls)
                                        1.09s GPU  (   64862 calls)

     Called by h_psi:
     h_psi:calbec :      3.11s CPU      7.41s WALL (   78470 calls)
                                        6.94s GPU  (   78470 calls)
     vloc_psi     :    143.84s CPU    122.41s WALL (   78470 calls)
                                      121.95s GPU  (   78470 calls)
     add_vuspsi   :     10.05s CPU     11.62s WALL (   78470 calls)
                                       11.16s GPU  (   78470 calls)

     General routines
     calbec       :      2.66s CPU      2.31s WALL (   91910 calls)
     fft          :      2.45s CPU      0.43s WALL (    2023 calls)
                                        0.36s GPU  (    1861 calls)
     ffts         :      0.05s CPU      0.03s WALL (     322 calls)
                                        0.01s GPU  (     160 calls)
     fftw         :      7.69s CPU     83.95s WALL (  329870 calls)
                                       82.14s GPU  (  329870 calls)
     interpolate  :      2.61s CPU      0.24s WALL (     162 calls)
     davcio       :      0.96s CPU      0.22s WALL (     186 calls)
 
     Parallel routines

     PAW routines
     PAW_pot      :    307.93s CPU     27.86s WALL (      81 calls)
     PAW_symme    :      0.38s CPU      0.06s WALL (     161 calls)
 
     PWSCF        :  16m37.93s CPU   9m29.28s WALL

 
   This run was terminated on:  23:22:42  22Oct2023            

=------------------------------------------------------------------------------=
   JOB DONE.
=------------------------------------------------------------------------------=
