
     Program PWSCF v.7.2 starts on 22Oct2023 at 23:19:21 

     This program is part of the open-source Quantum ESPRESSO suite
     for quantum simulation of materials; please cite
         "P. Giannozzi et al., J. Phys.:Condens. Matter 21 395502 (2009);
         "P. Giannozzi et al., J. Phys.:Condens. Matter 29 465901 (2017);
         "P. Giannozzi et al., J. Chem. Phys. 152 154105 (2020);
          URL http://www.quantum-espresso.org", 
     in publications or presentations arising from this work. More details at
     http://www.quantum-espresso.org/quote

     Parallel version (MPI & OpenMP), running on      12 processor cores
     Number of MPI processes:                 1
     Threads/MPI process:                    12

     MPI processes distributed on     1 nodes
     60293 MiB available memory on the printing compute node when the environment starts
 
     Reading input from aiida.in

     Current dimensions of program PWSCF are:
     Max number of different atomic species (ntypx) = 10
     Max number of k-points (npk) =  40000
     Max angular momentum in pseudopotentials (lmaxx) =  4
     file Cd.pbesol-dn-rrkjus_psl.0.3.1.UPF: wavefunction(s)  4D renormalized
     file O.pbesol-n-kjpaw_psl.0.1.UPF: wavefunction(s)  2P renormalized
     Message from routine setup:
     using ibrav=0 with symmetry is DISCOURAGED, use correct ibrav instead
 
     Subspace diagonalization in iterative solution of the eigenvalue problem:
     a serial algorithm will be used

 
     G-vector sticks info
     --------------------
     sticks:   dense  smooth     PW     G-vecs:    dense   smooth      PW
     Sum        1969     981    293                66123    23359    3871
 
     Using Slab Decomposition
 


     bravais-lattice index     =            0
     lattice parameter (alat)  =       7.1810  a.u.
     unit-cell volume          =     372.2435 (a.u.)^3
     number of atoms/cell      =            5
     number of atomic types    =            3
     number of electrons       =        42.00
     number of Kohn-Sham states=           25
     kinetic-energy cutoff     =      60.0000  Ry
     charge density cutoff     =     480.0000  Ry
     scf convergence threshold =      1.0E-09
     mixing beta               =       0.4000
     number of iterations used =            8  plain     mixing
     Exchange-correlation= SLA  PW   PSX  PSC
                           (   1   4  10   8   0   0   0)

     GPU acceleration is ACTIVE.


     GPU used by master process:

        Device Number: 0
        Device name: Tesla P100-PCIE-16GB
        Compute capability : 60
        Ratio of single to double precision performance  : 2
        Memory Clock Rate (KHz): 715000
        Memory Bus Width (bits): 4096
        Peak Memory Bandwidth (GB/s): 732.16

     celldm(1)=   7.180959  celldm(2)=   0.000000  celldm(3)=   0.000000
     celldm(4)=   0.000000  celldm(5)=   0.000000  celldm(6)=   0.000000

     crystal axes: (cart. coord. in units of alat)
               a(1) = (   1.000000   0.000000   0.000000 )  
               a(2) = (   0.000000   1.000000   0.000000 )  
               a(3) = (   0.000000   0.000000   1.005263 )  

     reciprocal axes: (cart. coord. in units 2 pi/alat)
               b(1) = (  1.000000  0.000000  0.000000 )  
               b(2) = (  0.000000  1.000000  0.000000 )  
               b(3) = (  0.000000  0.000000  0.994764 )  


     PseudoPot. # 1 for Cd read from file:
     ./pseudo/Cd.pbesol-dn-rrkjus_psl.0.3.1.UPF
     MD5 check sum: 1f02951eb1ebb2be2329879281757063
     Pseudo is Ultrasoft + core correction, Zval = 12.0
     Generated using "atomic" code by A. Dal Corso  v.6.0 svn rev. 13079
     Using radial grid of 1239 points,  6 beta functions with: 
                l(1) =   0
                l(2) =   0
                l(3) =   1
                l(4) =   1
                l(5) =   2
                l(6) =   2
     Q(r) pseudized with 0 coefficients 


     PseudoPot. # 2 for O  read from file:
     ./pseudo/O.pbesol-n-kjpaw_psl.0.1.UPF
     MD5 check sum: 81d73d1479e654e5638b0319f0d6c2c7
     Pseudo is Projector augmented-wave + core cor, Zval =  6.0
     Generated using "atomic" code by A. Dal Corso  v.6.0 svn rev. 13079
     Shape of augmentation charge: BESSEL
     Using radial grid of 1095 points,  4 beta functions with: 
                l(1) =   0
                l(2) =   0
                l(3) =   1
                l(4) =   1
     Q(r) pseudized with 0 coefficients 


     PseudoPot. # 3 for Ti read from file:
     ./pseudo/ti_pbesol_v1.4.uspp.F.UPF
     MD5 check sum: 193cf2c0c3c6a4da613d69453fa7e3e9
     Pseudo is Ultrasoft + core correction, Zval = 12.0
     Generated by new atomic code, or converted to UPF format
     Using radial grid of  851 points,  6 beta functions with: 
                l(1) =   0
                l(2) =   0
                l(3) =   1
                l(4) =   1
                l(5) =   2
                l(6) =   2
     Q(r) pseudized with  6 coefficients,  rinner =    1.000   1.000   1.000
                                                       1.000   1.000

     atomic species   valence    mass     pseudopotential
        Cd            12.00   112.41100     Cd( 1.00)
        O              6.00    15.99940     O ( 1.00)
        Ti            12.00    47.86700     Ti( 1.00)

     Starting magnetic structure 
     atomic species   magnetization
        Cd           0.100
        O            0.100
        Ti           0.417

      8 Sym. Ops. (no inversion) found


                                    s                        frac. trans.

      isym =  1     identity                                     

 cryst.   s( 1) = (     1          0          0      )
                  (     0          1          0      )
                  (     0          0          1      )

 cart.    s( 1) = (  1.0000000  0.0000000  0.0000000 )
                  (  0.0000000  1.0000000  0.0000000 )
                  (  0.0000000  0.0000000  1.0000000 )


      isym =  2     180 deg rotation - cart. axis [0,0,1]        

 cryst.   s( 2) = (    -1          0          0      )
                  (     0         -1          0      )
                  (     0          0          1      )

 cart.    s( 2) = ( -1.0000000  0.0000000  0.0000000 )
                  (  0.0000000 -1.0000000  0.0000000 )
                  (  0.0000000  0.0000000  1.0000000 )


      isym =  3      90 deg rotation - cart. axis [0,0,-1]       

 cryst.   s( 3) = (     0         -1          0      )
                  (     1          0          0      )
                  (     0          0          1      )

 cart.    s( 3) = (  0.0000000  1.0000000  0.0000000 )
                  ( -1.0000000  0.0000000  0.0000000 )
                  (  0.0000000  0.0000000  1.0000000 )


      isym =  4      90 deg rotation - cart. axis [0,0,1]        

 cryst.   s( 4) = (     0          1          0      )
                  (    -1          0          0      )
                  (     0          0          1      )

 cart.    s( 4) = (  0.0000000 -1.0000000  0.0000000 )
                  (  1.0000000  0.0000000  0.0000000 )
                  (  0.0000000  0.0000000  1.0000000 )


      isym =  5     inv. 180 deg rotation - cart. axis [0,1,0]   

 cryst.   s( 5) = (     1          0          0      )
                  (     0         -1          0      )
                  (     0          0          1      )

 cart.    s( 5) = (  1.0000000  0.0000000  0.0000000 )
                  (  0.0000000 -1.0000000  0.0000000 )
                  (  0.0000000  0.0000000  1.0000000 )


      isym =  6     inv. 180 deg rotation - cart. axis [1,0,0]   

 cryst.   s( 6) = (    -1          0          0      )
                  (     0          1          0      )
                  (     0          0          1      )

 cart.    s( 6) = ( -1.0000000  0.0000000  0.0000000 )
                  (  0.0000000  1.0000000  0.0000000 )
                  (  0.0000000  0.0000000  1.0000000 )


      isym =  7     inv. 180 deg rotation - cart. axis [1,1,0]   

 cryst.   s( 7) = (     0         -1          0      )
                  (    -1          0          0      )
                  (     0          0          1      )

 cart.    s( 7) = (  0.0000000 -1.0000000  0.0000000 )
                  ( -1.0000000  0.0000000  0.0000000 )
                  (  0.0000000  0.0000000  1.0000000 )


      isym =  8     inv. 180 deg rotation - cart. axis [1,-1,0]  

 cryst.   s( 8) = (     0          1          0      )
                  (     1          0          0      )
                  (     0          0          1      )

 cart.    s( 8) = (  0.0000000  1.0000000  0.0000000 )
                  (  1.0000000  0.0000000  0.0000000 )
                  (  0.0000000  0.0000000  1.0000000 )


   Cartesian axes

     site n.     atom                  positions (alat units)
         1           Ti  tau(   1) = (   0.0000000   0.0000000   0.0000000  )
         2           Cd  tau(   2) = (   0.5000000   0.5000000   0.5251495  )
         3           O   tau(   3) = (   0.5000000   0.0000000   0.0330732  )
         4           O   tau(   4) = (   0.0000000   0.5000000   0.0330732  )
         5           O   tau(   5) = (   0.0000000   0.0000000   0.5496779  )

   Crystallographic axes

     site n.     atom                  positions (cryst. coord.)
         1           Ti  tau(   1) = (  0.0000000  0.0000000  0.0000000  )
         2           Cd  tau(   2) = (  0.5000000  0.5000000  0.5224000  )
         3           O   tau(   3) = (  0.5000000  0.0000000  0.0329000  )
         4           O   tau(   4) = (  0.0000000  0.5000000  0.0329000  )
         5           O   tau(   5) = (  0.0000000  0.0000000  0.5468000  )

     number of k points=   168  Marzari-Vanderbilt smearing, width (Ry)=  0.0100
                       cart. coord. in units 2pi/alat
        k(    1) = (   0.0000000   0.0000000   0.0000000), wk =   0.0006313
        k(    2) = (   0.0000000   0.0000000   0.0904331), wk =   0.0012626
        k(    3) = (   0.0000000   0.0000000   0.1808663), wk =   0.0012626
        k(    4) = (   0.0000000   0.0000000   0.2712994), wk =   0.0012626
        k(    5) = (   0.0000000   0.0000000   0.3617325), wk =   0.0012626
        k(    6) = (   0.0000000   0.0000000   0.4521656), wk =   0.0012626
        k(    7) = (   0.0000000   0.0833333   0.0000000), wk =   0.0025253
        k(    8) = (   0.0000000   0.0833333   0.0904331), wk =   0.0050505
        k(    9) = (   0.0000000   0.0833333   0.1808663), wk =   0.0050505
        k(   10) = (   0.0000000   0.0833333   0.2712994), wk =   0.0050505
        k(   11) = (   0.0000000   0.0833333   0.3617325), wk =   0.0050505
        k(   12) = (   0.0000000   0.0833333   0.4521656), wk =   0.0050505
        k(   13) = (   0.0000000   0.1666667   0.0000000), wk =   0.0025253
        k(   14) = (   0.0000000   0.1666667   0.0904331), wk =   0.0050505
        k(   15) = (   0.0000000   0.1666667   0.1808663), wk =   0.0050505
        k(   16) = (   0.0000000   0.1666667   0.2712994), wk =   0.0050505
        k(   17) = (   0.0000000   0.1666667   0.3617325), wk =   0.0050505
        k(   18) = (   0.0000000   0.1666667   0.4521656), wk =   0.0050505
        k(   19) = (   0.0000000   0.2500000   0.0000000), wk =   0.0025253
        k(   20) = (   0.0000000   0.2500000   0.0904331), wk =   0.0050505
        k(   21) = (   0.0000000   0.2500000   0.1808663), wk =   0.0050505
        k(   22) = (   0.0000000   0.2500000   0.2712994), wk =   0.0050505
        k(   23) = (   0.0000000   0.2500000   0.3617325), wk =   0.0050505
        k(   24) = (   0.0000000   0.2500000   0.4521656), wk =   0.0050505
        k(   25) = (   0.0000000   0.3333333   0.0000000), wk =   0.0025253
        k(   26) = (   0.0000000   0.3333333   0.0904331), wk =   0.0050505
        k(   27) = (   0.0000000   0.3333333   0.1808663), wk =   0.0050505
        k(   28) = (   0.0000000   0.3333333   0.2712994), wk =   0.0050505
        k(   29) = (   0.0000000   0.3333333   0.3617325), wk =   0.0050505
        k(   30) = (   0.0000000   0.3333333   0.4521656), wk =   0.0050505
        k(   31) = (   0.0000000   0.4166667   0.0000000), wk =   0.0025253
        k(   32) = (   0.0000000   0.4166667   0.0904331), wk =   0.0050505
        k(   33) = (   0.0000000   0.4166667   0.1808663), wk =   0.0050505
        k(   34) = (   0.0000000   0.4166667   0.2712994), wk =   0.0050505
        k(   35) = (   0.0000000   0.4166667   0.3617325), wk =   0.0050505
        k(   36) = (   0.0000000   0.4166667   0.4521656), wk =   0.0050505
        k(   37) = (   0.0000000  -0.5000000   0.0000000), wk =   0.0012626
        k(   38) = (   0.0000000  -0.5000000   0.0904331), wk =   0.0025253
        k(   39) = (   0.0000000  -0.5000000   0.1808663), wk =   0.0025253
        k(   40) = (   0.0000000  -0.5000000   0.2712994), wk =   0.0025253
        k(   41) = (   0.0000000  -0.5000000   0.3617325), wk =   0.0025253
        k(   42) = (   0.0000000  -0.5000000   0.4521656), wk =   0.0025253
        k(   43) = (   0.0833333   0.0833333   0.0000000), wk =   0.0025253
        k(   44) = (   0.0833333   0.0833333   0.0904331), wk =   0.0050505
        k(   45) = (   0.0833333   0.0833333   0.1808663), wk =   0.0050505
        k(   46) = (   0.0833333   0.0833333   0.2712994), wk =   0.0050505
        k(   47) = (   0.0833333   0.0833333   0.3617325), wk =   0.0050505
        k(   48) = (   0.0833333   0.0833333   0.4521656), wk =   0.0050505
        k(   49) = (   0.0833333   0.1666667   0.0000000), wk =   0.0050505
        k(   50) = (   0.0833333   0.1666667   0.0904331), wk =   0.0101010
        k(   51) = (   0.0833333   0.1666667   0.1808663), wk =   0.0101010
        k(   52) = (   0.0833333   0.1666667   0.2712994), wk =   0.0101010
        k(   53) = (   0.0833333   0.1666667   0.3617325), wk =   0.0101010
        k(   54) = (   0.0833333   0.1666667   0.4521656), wk =   0.0101010
        k(   55) = (   0.0833333   0.2500000   0.0000000), wk =   0.0050505
        k(   56) = (   0.0833333   0.2500000   0.0904331), wk =   0.0101010
        k(   57) = (   0.0833333   0.2500000   0.1808663), wk =   0.0101010
        k(   58) = (   0.0833333   0.2500000   0.2712994), wk =   0.0101010
        k(   59) = (   0.0833333   0.2500000   0.3617325), wk =   0.0101010
        k(   60) = (   0.0833333   0.2500000   0.4521656), wk =   0.0101010
        k(   61) = (   0.0833333   0.3333333   0.0000000), wk =   0.0050505
        k(   62) = (   0.0833333   0.3333333   0.0904331), wk =   0.0101010
        k(   63) = (   0.0833333   0.3333333   0.1808663), wk =   0.0101010
        k(   64) = (   0.0833333   0.3333333   0.2712994), wk =   0.0101010
        k(   65) = (   0.0833333   0.3333333   0.3617325), wk =   0.0101010
        k(   66) = (   0.0833333   0.3333333   0.4521656), wk =   0.0101010
        k(   67) = (   0.0833333   0.4166667   0.0000000), wk =   0.0050505
        k(   68) = (   0.0833333   0.4166667   0.0904331), wk =   0.0101010
        k(   69) = (   0.0833333   0.4166667   0.1808663), wk =   0.0101010
        k(   70) = (   0.0833333   0.4166667   0.2712994), wk =   0.0101010
        k(   71) = (   0.0833333   0.4166667   0.3617325), wk =   0.0101010
        k(   72) = (   0.0833333   0.4166667   0.4521656), wk =   0.0101010
        k(   73) = (   0.0833333  -0.5000000   0.0000000), wk =   0.0025253
        k(   74) = (   0.0833333  -0.5000000   0.0904331), wk =   0.0050505
        k(   75) = (   0.0833333  -0.5000000   0.1808663), wk =   0.0050505
        k(   76) = (   0.0833333  -0.5000000   0.2712994), wk =   0.0050505
        k(   77) = (   0.0833333  -0.5000000   0.3617325), wk =   0.0050505
        k(   78) = (   0.0833333  -0.5000000   0.4521656), wk =   0.0050505
        k(   79) = (   0.1666667   0.1666667   0.0000000), wk =   0.0025253
        k(   80) = (   0.1666667   0.1666667   0.0904331), wk =   0.0050505
        k(   81) = (   0.1666667   0.1666667   0.1808663), wk =   0.0050505
        k(   82) = (   0.1666667   0.1666667   0.2712994), wk =   0.0050505
        k(   83) = (   0.1666667   0.1666667   0.3617325), wk =   0.0050505
        k(   84) = (   0.1666667   0.1666667   0.4521656), wk =   0.0050505
        k(   85) = (   0.1666667   0.2500000   0.0000000), wk =   0.0050505
        k(   86) = (   0.1666667   0.2500000   0.0904331), wk =   0.0101010
        k(   87) = (   0.1666667   0.2500000   0.1808663), wk =   0.0101010
        k(   88) = (   0.1666667   0.2500000   0.2712994), wk =   0.0101010
        k(   89) = (   0.1666667   0.2500000   0.3617325), wk =   0.0101010
        k(   90) = (   0.1666667   0.2500000   0.4521656), wk =   0.0101010
        k(   91) = (   0.1666667   0.3333333   0.0000000), wk =   0.0050505
        k(   92) = (   0.1666667   0.3333333   0.0904331), wk =   0.0101010
        k(   93) = (   0.1666667   0.3333333   0.1808663), wk =   0.0101010
        k(   94) = (   0.1666667   0.3333333   0.2712994), wk =   0.0101010
        k(   95) = (   0.1666667   0.3333333   0.3617325), wk =   0.0101010
        k(   96) = (   0.1666667   0.3333333   0.4521656), wk =   0.0101010
        k(   97) = (   0.1666667   0.4166667   0.0000000), wk =   0.0050505
        k(   98) = (   0.1666667   0.4166667   0.0904331), wk =   0.0101010
        k(   99) = (   0.1666667   0.4166667   0.1808663), wk =   0.0101010
        k(  100) = (   0.1666667   0.4166667   0.2712994), wk =   0.0101010
        k(  101) = (   0.1666667   0.4166667   0.3617325), wk =   0.0101010
        k(  102) = (   0.1666667   0.4166667   0.4521656), wk =   0.0101010
        k(  103) = (   0.1666667  -0.5000000   0.0000000), wk =   0.0025253
        k(  104) = (   0.1666667  -0.5000000   0.0904331), wk =   0.0050505
        k(  105) = (   0.1666667  -0.5000000   0.1808663), wk =   0.0050505
        k(  106) = (   0.1666667  -0.5000000   0.2712994), wk =   0.0050505
        k(  107) = (   0.1666667  -0.5000000   0.3617325), wk =   0.0050505
        k(  108) = (   0.1666667  -0.5000000   0.4521656), wk =   0.0050505
        k(  109) = (   0.2500000   0.2500000   0.0000000), wk =   0.0025253
        k(  110) = (   0.2500000   0.2500000   0.0904331), wk =   0.0050505
        k(  111) = (   0.2500000   0.2500000   0.1808663), wk =   0.0050505
        k(  112) = (   0.2500000   0.2500000   0.2712994), wk =   0.0050505
        k(  113) = (   0.2500000   0.2500000   0.3617325), wk =   0.0050505
        k(  114) = (   0.2500000   0.2500000   0.4521656), wk =   0.0050505
        k(  115) = (   0.2500000   0.3333333   0.0000000), wk =   0.0050505
        k(  116) = (   0.2500000   0.3333333   0.0904331), wk =   0.0101010
        k(  117) = (   0.2500000   0.3333333   0.1808663), wk =   0.0101010
        k(  118) = (   0.2500000   0.3333333   0.2712994), wk =   0.0101010
        k(  119) = (   0.2500000   0.3333333   0.3617325), wk =   0.0101010
        k(  120) = (   0.2500000   0.3333333   0.4521656), wk =   0.0101010
        k(  121) = (   0.2500000   0.4166667   0.0000000), wk =   0.0050505
        k(  122) = (   0.2500000   0.4166667   0.0904331), wk =   0.0101010
        k(  123) = (   0.2500000   0.4166667   0.1808663), wk =   0.0101010
        k(  124) = (   0.2500000   0.4166667   0.2712994), wk =   0.0101010
        k(  125) = (   0.2500000   0.4166667   0.3617325), wk =   0.0101010
        k(  126) = (   0.2500000   0.4166667   0.4521656), wk =   0.0101010
        k(  127) = (   0.2500000  -0.5000000   0.0000000), wk =   0.0025253
        k(  128) = (   0.2500000  -0.5000000   0.0904331), wk =   0.0050505
        k(  129) = (   0.2500000  -0.5000000   0.1808663), wk =   0.0050505
        k(  130) = (   0.2500000  -0.5000000   0.2712994), wk =   0.0050505
        k(  131) = (   0.2500000  -0.5000000   0.3617325), wk =   0.0050505
        k(  132) = (   0.2500000  -0.5000000   0.4521656), wk =   0.0050505
        k(  133) = (   0.3333333   0.3333333   0.0000000), wk =   0.0025253
        k(  134) = (   0.3333333   0.3333333   0.0904331), wk =   0.0050505
        k(  135) = (   0.3333333   0.3333333   0.1808663), wk =   0.0050505
        k(  136) = (   0.3333333   0.3333333   0.2712994), wk =   0.0050505
        k(  137) = (   0.3333333   0.3333333   0.3617325), wk =   0.0050505
        k(  138) = (   0.3333333   0.3333333   0.4521656), wk =   0.0050505
        k(  139) = (   0.3333333   0.4166667   0.0000000), wk =   0.0050505
        k(  140) = (   0.3333333   0.4166667   0.0904331), wk =   0.0101010
        k(  141) = (   0.3333333   0.4166667   0.1808663), wk =   0.0101010
        k(  142) = (   0.3333333   0.4166667   0.2712994), wk =   0.0101010
        k(  143) = (   0.3333333   0.4166667   0.3617325), wk =   0.0101010
        k(  144) = (   0.3333333   0.4166667   0.4521656), wk =   0.0101010
        k(  145) = (   0.3333333  -0.5000000   0.0000000), wk =   0.0025253
        k(  146) = (   0.3333333  -0.5000000   0.0904331), wk =   0.0050505
        k(  147) = (   0.3333333  -0.5000000   0.1808663), wk =   0.0050505
        k(  148) = (   0.3333333  -0.5000000   0.2712994), wk =   0.0050505
        k(  149) = (   0.3333333  -0.5000000   0.3617325), wk =   0.0050505
        k(  150) = (   0.3333333  -0.5000000   0.4521656), wk =   0.0050505
        k(  151) = (   0.4166667   0.4166667   0.0000000), wk =   0.0025253
        k(  152) = (   0.4166667   0.4166667   0.0904331), wk =   0.0050505
        k(  153) = (   0.4166667   0.4166667   0.1808663), wk =   0.0050505
        k(  154) = (   0.4166667   0.4166667   0.2712994), wk =   0.0050505
        k(  155) = (   0.4166667   0.4166667   0.3617325), wk =   0.0050505
        k(  156) = (   0.4166667   0.4166667   0.4521656), wk =   0.0050505
        k(  157) = (   0.4166667  -0.5000000   0.0000000), wk =   0.0025253
        k(  158) = (   0.4166667  -0.5000000   0.0904331), wk =   0.0050505
        k(  159) = (   0.4166667  -0.5000000   0.1808663), wk =   0.0050505
        k(  160) = (   0.4166667  -0.5000000   0.2712994), wk =   0.0050505
        k(  161) = (   0.4166667  -0.5000000   0.3617325), wk =   0.0050505
        k(  162) = (   0.4166667  -0.5000000   0.4521656), wk =   0.0050505
        k(  163) = (  -0.5000000  -0.5000000   0.0000000), wk =   0.0006313
        k(  164) = (  -0.5000000  -0.5000000   0.0904331), wk =   0.0012626
        k(  165) = (  -0.5000000  -0.5000000   0.1808663), wk =   0.0012626
        k(  166) = (  -0.5000000  -0.5000000   0.2712994), wk =   0.0012626
        k(  167) = (  -0.5000000  -0.5000000   0.3617325), wk =   0.0012626
        k(  168) = (  -0.5000000  -0.5000000   0.4521656), wk =   0.0012626

                       cryst. coord.
        k(    1) = (   0.0000000   0.0000000   0.0000000), wk =   0.0006313
        k(    2) = (   0.0000000   0.0000000   0.0909091), wk =   0.0012626
        k(    3) = (   0.0000000   0.0000000   0.1818182), wk =   0.0012626
        k(    4) = (   0.0000000   0.0000000   0.2727273), wk =   0.0012626
        k(    5) = (   0.0000000   0.0000000   0.3636364), wk =   0.0012626
        k(    6) = (   0.0000000   0.0000000   0.4545455), wk =   0.0012626
        k(    7) = (   0.0000000   0.0833333   0.0000000), wk =   0.0025253
        k(    8) = (   0.0000000   0.0833333   0.0909091), wk =   0.0050505
        k(    9) = (   0.0000000   0.0833333   0.1818182), wk =   0.0050505
        k(   10) = (   0.0000000   0.0833333   0.2727273), wk =   0.0050505
        k(   11) = (   0.0000000   0.0833333   0.3636364), wk =   0.0050505
        k(   12) = (   0.0000000   0.0833333   0.4545455), wk =   0.0050505
        k(   13) = (   0.0000000   0.1666667   0.0000000), wk =   0.0025253
        k(   14) = (   0.0000000   0.1666667   0.0909091), wk =   0.0050505
        k(   15) = (   0.0000000   0.1666667   0.1818182), wk =   0.0050505
        k(   16) = (   0.0000000   0.1666667   0.2727273), wk =   0.0050505
        k(   17) = (   0.0000000   0.1666667   0.3636364), wk =   0.0050505
        k(   18) = (   0.0000000   0.1666667   0.4545455), wk =   0.0050505
        k(   19) = (   0.0000000   0.2500000   0.0000000), wk =   0.0025253
        k(   20) = (   0.0000000   0.2500000   0.0909091), wk =   0.0050505
        k(   21) = (   0.0000000   0.2500000   0.1818182), wk =   0.0050505
        k(   22) = (   0.0000000   0.2500000   0.2727273), wk =   0.0050505
        k(   23) = (   0.0000000   0.2500000   0.3636364), wk =   0.0050505
        k(   24) = (   0.0000000   0.2500000   0.4545455), wk =   0.0050505
        k(   25) = (   0.0000000   0.3333333   0.0000000), wk =   0.0025253
        k(   26) = (   0.0000000   0.3333333   0.0909091), wk =   0.0050505
        k(   27) = (   0.0000000   0.3333333   0.1818182), wk =   0.0050505
        k(   28) = (   0.0000000   0.3333333   0.2727273), wk =   0.0050505
        k(   29) = (   0.0000000   0.3333333   0.3636364), wk =   0.0050505
        k(   30) = (   0.0000000   0.3333333   0.4545455), wk =   0.0050505
        k(   31) = (   0.0000000   0.4166667   0.0000000), wk =   0.0025253
        k(   32) = (   0.0000000   0.4166667   0.0909091), wk =   0.0050505
        k(   33) = (   0.0000000   0.4166667   0.1818182), wk =   0.0050505
        k(   34) = (   0.0000000   0.4166667   0.2727273), wk =   0.0050505
        k(   35) = (   0.0000000   0.4166667   0.3636364), wk =   0.0050505
        k(   36) = (   0.0000000   0.4166667   0.4545455), wk =   0.0050505
        k(   37) = (   0.0000000  -0.5000000   0.0000000), wk =   0.0012626
        k(   38) = (   0.0000000  -0.5000000   0.0909091), wk =   0.0025253
        k(   39) = (   0.0000000  -0.5000000   0.1818182), wk =   0.0025253
        k(   40) = (   0.0000000  -0.5000000   0.2727273), wk =   0.0025253
        k(   41) = (   0.0000000  -0.5000000   0.3636364), wk =   0.0025253
        k(   42) = (   0.0000000  -0.5000000   0.4545455), wk =   0.0025253
        k(   43) = (   0.0833333   0.0833333   0.0000000), wk =   0.0025253
        k(   44) = (   0.0833333   0.0833333   0.0909091), wk =   0.0050505
        k(   45) = (   0.0833333   0.0833333   0.1818182), wk =   0.0050505
        k(   46) = (   0.0833333   0.0833333   0.2727273), wk =   0.0050505
        k(   47) = (   0.0833333   0.0833333   0.3636364), wk =   0.0050505
        k(   48) = (   0.0833333   0.0833333   0.4545455), wk =   0.0050505
        k(   49) = (   0.0833333   0.1666667   0.0000000), wk =   0.0050505
        k(   50) = (   0.0833333   0.1666667   0.0909091), wk =   0.0101010
        k(   51) = (   0.0833333   0.1666667   0.1818182), wk =   0.0101010
        k(   52) = (   0.0833333   0.1666667   0.2727273), wk =   0.0101010
        k(   53) = (   0.0833333   0.1666667   0.3636364), wk =   0.0101010
        k(   54) = (   0.0833333   0.1666667   0.4545455), wk =   0.0101010
        k(   55) = (   0.0833333   0.2500000   0.0000000), wk =   0.0050505
        k(   56) = (   0.0833333   0.2500000   0.0909091), wk =   0.0101010
        k(   57) = (   0.0833333   0.2500000   0.1818182), wk =   0.0101010
        k(   58) = (   0.0833333   0.2500000   0.2727273), wk =   0.0101010
        k(   59) = (   0.0833333   0.2500000   0.3636364), wk =   0.0101010
        k(   60) = (   0.0833333   0.2500000   0.4545455), wk =   0.0101010
        k(   61) = (   0.0833333   0.3333333   0.0000000), wk =   0.0050505
        k(   62) = (   0.0833333   0.3333333   0.0909091), wk =   0.0101010
        k(   63) = (   0.0833333   0.3333333   0.1818182), wk =   0.0101010
        k(   64) = (   0.0833333   0.3333333   0.2727273), wk =   0.0101010
        k(   65) = (   0.0833333   0.3333333   0.3636364), wk =   0.0101010
        k(   66) = (   0.0833333   0.3333333   0.4545455), wk =   0.0101010
        k(   67) = (   0.0833333   0.4166667   0.0000000), wk =   0.0050505
        k(   68) = (   0.0833333   0.4166667   0.0909091), wk =   0.0101010
        k(   69) = (   0.0833333   0.4166667   0.1818182), wk =   0.0101010
        k(   70) = (   0.0833333   0.4166667   0.2727273), wk =   0.0101010
        k(   71) = (   0.0833333   0.4166667   0.3636364), wk =   0.0101010
        k(   72) = (   0.0833333   0.4166667   0.4545455), wk =   0.0101010
        k(   73) = (   0.0833333  -0.5000000   0.0000000), wk =   0.0025253
        k(   74) = (   0.0833333  -0.5000000   0.0909091), wk =   0.0050505
        k(   75) = (   0.0833333  -0.5000000   0.1818182), wk =   0.0050505
        k(   76) = (   0.0833333  -0.5000000   0.2727273), wk =   0.0050505
        k(   77) = (   0.0833333  -0.5000000   0.3636364), wk =   0.0050505
        k(   78) = (   0.0833333  -0.5000000   0.4545455), wk =   0.0050505
        k(   79) = (   0.1666667   0.1666667   0.0000000), wk =   0.0025253
        k(   80) = (   0.1666667   0.1666667   0.0909091), wk =   0.0050505
        k(   81) = (   0.1666667   0.1666667   0.1818182), wk =   0.0050505
        k(   82) = (   0.1666667   0.1666667   0.2727273), wk =   0.0050505
        k(   83) = (   0.1666667   0.1666667   0.3636364), wk =   0.0050505
        k(   84) = (   0.1666667   0.1666667   0.4545455), wk =   0.0050505
        k(   85) = (   0.1666667   0.2500000   0.0000000), wk =   0.0050505
        k(   86) = (   0.1666667   0.2500000   0.0909091), wk =   0.0101010
        k(   87) = (   0.1666667   0.2500000   0.1818182), wk =   0.0101010
        k(   88) = (   0.1666667   0.2500000   0.2727273), wk =   0.0101010
        k(   89) = (   0.1666667   0.2500000   0.3636364), wk =   0.0101010
        k(   90) = (   0.1666667   0.2500000   0.4545455), wk =   0.0101010
        k(   91) = (   0.1666667   0.3333333   0.0000000), wk =   0.0050505
        k(   92) = (   0.1666667   0.3333333   0.0909091), wk =   0.0101010
        k(   93) = (   0.1666667   0.3333333   0.1818182), wk =   0.0101010
        k(   94) = (   0.1666667   0.3333333   0.2727273), wk =   0.0101010
        k(   95) = (   0.1666667   0.3333333   0.3636364), wk =   0.0101010
        k(   96) = (   0.1666667   0.3333333   0.4545455), wk =   0.0101010
        k(   97) = (   0.1666667   0.4166667   0.0000000), wk =   0.0050505
        k(   98) = (   0.1666667   0.4166667   0.0909091), wk =   0.0101010
        k(   99) = (   0.1666667   0.4166667   0.1818182), wk =   0.0101010
        k(  100) = (   0.1666667   0.4166667   0.2727273), wk =   0.0101010
        k(  101) = (   0.1666667   0.4166667   0.3636364), wk =   0.0101010
        k(  102) = (   0.1666667   0.4166667   0.4545455), wk =   0.0101010
        k(  103) = (   0.1666667  -0.5000000   0.0000000), wk =   0.0025253
        k(  104) = (   0.1666667  -0.5000000   0.0909091), wk =   0.0050505
        k(  105) = (   0.1666667  -0.5000000   0.1818182), wk =   0.0050505
        k(  106) = (   0.1666667  -0.5000000   0.2727273), wk =   0.0050505
        k(  107) = (   0.1666667  -0.5000000   0.3636364), wk =   0.0050505
        k(  108) = (   0.1666667  -0.5000000   0.4545455), wk =   0.0050505
        k(  109) = (   0.2500000   0.2500000   0.0000000), wk =   0.0025253
        k(  110) = (   0.2500000   0.2500000   0.0909091), wk =   0.0050505
        k(  111) = (   0.2500000   0.2500000   0.1818182), wk =   0.0050505
        k(  112) = (   0.2500000   0.2500000   0.2727273), wk =   0.0050505
        k(  113) = (   0.2500000   0.2500000   0.3636364), wk =   0.0050505
        k(  114) = (   0.2500000   0.2500000   0.4545455), wk =   0.0050505
        k(  115) = (   0.2500000   0.3333333   0.0000000), wk =   0.0050505
        k(  116) = (   0.2500000   0.3333333   0.0909091), wk =   0.0101010
        k(  117) = (   0.2500000   0.3333333   0.1818182), wk =   0.0101010
        k(  118) = (   0.2500000   0.3333333   0.2727273), wk =   0.0101010
        k(  119) = (   0.2500000   0.3333333   0.3636364), wk =   0.0101010
        k(  120) = (   0.2500000   0.3333333   0.4545455), wk =   0.0101010
        k(  121) = (   0.2500000   0.4166667   0.0000000), wk =   0.0050505
        k(  122) = (   0.2500000   0.4166667   0.0909091), wk =   0.0101010
        k(  123) = (   0.2500000   0.4166667   0.1818182), wk =   0.0101010
        k(  124) = (   0.2500000   0.4166667   0.2727273), wk =   0.0101010
        k(  125) = (   0.2500000   0.4166667   0.3636364), wk =   0.0101010
        k(  126) = (   0.2500000   0.4166667   0.4545455), wk =   0.0101010
        k(  127) = (   0.2500000  -0.5000000   0.0000000), wk =   0.0025253
        k(  128) = (   0.2500000  -0.5000000   0.0909091), wk =   0.0050505
        k(  129) = (   0.2500000  -0.5000000   0.1818182), wk =   0.0050505
        k(  130) = (   0.2500000  -0.5000000   0.2727273), wk =   0.0050505
        k(  131) = (   0.2500000  -0.5000000   0.3636364), wk =   0.0050505
        k(  132) = (   0.2500000  -0.5000000   0.4545455), wk =   0.0050505
        k(  133) = (   0.3333333   0.3333333   0.0000000), wk =   0.0025253
        k(  134) = (   0.3333333   0.3333333   0.0909091), wk =   0.0050505
        k(  135) = (   0.3333333   0.3333333   0.1818182), wk =   0.0050505
        k(  136) = (   0.3333333   0.3333333   0.2727273), wk =   0.0050505
        k(  137) = (   0.3333333   0.3333333   0.3636364), wk =   0.0050505
        k(  138) = (   0.3333333   0.3333333   0.4545455), wk =   0.0050505
        k(  139) = (   0.3333333   0.4166667   0.0000000), wk =   0.0050505
        k(  140) = (   0.3333333   0.4166667   0.0909091), wk =   0.0101010
        k(  141) = (   0.3333333   0.4166667   0.1818182), wk =   0.0101010
        k(  142) = (   0.3333333   0.4166667   0.2727273), wk =   0.0101010
        k(  143) = (   0.3333333   0.4166667   0.3636364), wk =   0.0101010
        k(  144) = (   0.3333333   0.4166667   0.4545455), wk =   0.0101010
        k(  145) = (   0.3333333  -0.5000000   0.0000000), wk =   0.0025253
        k(  146) = (   0.3333333  -0.5000000   0.0909091), wk =   0.0050505
        k(  147) = (   0.3333333  -0.5000000   0.1818182), wk =   0.0050505
        k(  148) = (   0.3333333  -0.5000000   0.2727273), wk =   0.0050505
        k(  149) = (   0.3333333  -0.5000000   0.3636364), wk =   0.0050505
        k(  150) = (   0.3333333  -0.5000000   0.4545455), wk =   0.0050505
        k(  151) = (   0.4166667   0.4166667   0.0000000), wk =   0.0025253
        k(  152) = (   0.4166667   0.4166667   0.0909091), wk =   0.0050505
        k(  153) = (   0.4166667   0.4166667   0.1818182), wk =   0.0050505
        k(  154) = (   0.4166667   0.4166667   0.2727273), wk =   0.0050505
        k(  155) = (   0.4166667   0.4166667   0.3636364), wk =   0.0050505
        k(  156) = (   0.4166667   0.4166667   0.4545455), wk =   0.0050505
        k(  157) = (   0.4166667  -0.5000000   0.0000000), wk =   0.0025253
        k(  158) = (   0.4166667  -0.5000000   0.0909091), wk =   0.0050505
        k(  159) = (   0.4166667  -0.5000000   0.1818182), wk =   0.0050505
        k(  160) = (   0.4166667  -0.5000000   0.2727273), wk =   0.0050505
        k(  161) = (   0.4166667  -0.5000000   0.3636364), wk =   0.0050505
        k(  162) = (   0.4166667  -0.5000000   0.4545455), wk =   0.0050505
        k(  163) = (  -0.5000000  -0.5000000   0.0000000), wk =   0.0006313
        k(  164) = (  -0.5000000  -0.5000000   0.0909091), wk =   0.0012626
        k(  165) = (  -0.5000000  -0.5000000   0.1818182), wk =   0.0012626
        k(  166) = (  -0.5000000  -0.5000000   0.2727273), wk =   0.0012626
        k(  167) = (  -0.5000000  -0.5000000   0.3636364), wk =   0.0012626
        k(  168) = (  -0.5000000  -0.5000000   0.4545455), wk =   0.0012626

     Dense  grid:    66123 G-vectors     FFT dimensions: (  54,  54,  54)

     Smooth grid:    23359 G-vectors     FFT dimensions: (  36,  36,  36)

     Dynamical RAM for                 wfc:       1.11 MB

     Dynamical RAM for     wfc (w. buffer):     375.51 MB

     Dynamical RAM for           str. fact:       3.03 MB

     Dynamical RAM for           local pot:       0.00 MB

     Dynamical RAM for          nlocal pot:       2.67 MB

     Dynamical RAM for                qrad:       5.27 MB

     Dynamical RAM for          rho,v,vnew:      13.26 MB

     Dynamical RAM for               rhoin:       4.42 MB

     Dynamical RAM for            rho*nmix:      32.29 MB

     Dynamical RAM for           G-vectors:       3.96 MB

     Dynamical RAM for          h,s,v(r/c):       0.11 MB

     Dynamical RAM for          <psi|beta>:       0.02 MB

     Dynamical RAM for                 psi:       2.23 MB

     Dynamical RAM for                hpsi:       2.23 MB

     Dynamical RAM for                spsi:       2.23 MB

     Dynamical RAM for      wfcinit/wfcrot:       2.79 MB

     Dynamical RAM for           addusdens:     191.70 MB

     Dynamical RAM for          addusforce:     195.76 MB

     Dynamical RAM for         addusstress:     204.31 MB

     Estimated static dynamical RAM per process >     419.37 MB

     Estimated max dynamical RAM per process >     655.97 MB

     Check: negative core charge=   -0.000003
     Generating pointlists ...
     new r_m :   0.2894 (alat units)  2.0780 (a.u.) for type    1
     new r_m :   0.1879 (alat units)  1.3495 (a.u.) for type    2
     new r_m :   0.1879 (alat units)  1.3495 (a.u.) for type    3

     Initial potential from superposition of free atoms

     starting charge      40.9955, renormalised to      42.0000

     negative rho (up, down):  7.627E-04 2.981E-04
     Starting wfcs are   31 randomized atomic wfcs
     Checking if some PAW data can be deallocated... 

     total cpu time spent up to now is        6.2 secs

     per-process dynamical memory:  1115.3 Mb

     Self-consistent Calculation
[tb_dev] Currently allocated     1.43E+00 Mbytes, locked:    0 /  10
[tb_pin] Currently allocated     0.00E+00 Mbytes, locked:    0 /   0

     iteration #  1     ecut=    60.00 Ry     beta= 0.40
     Davidson diagonalization with overlap

---- Real-time Memory Report at c_bands before calling an iterative solver
          1332 MiB given to the printing process from OS
          1089 MiB allocation reported by mallinfo(arena+hblkhd)
         57830 MiB available memory on the node where the printing process lives
     GPU memory used/free/total (MiB): 862 / 15418 / 16280
------------------
     ethr =  1.00E-02,  avg # of iterations =  2.0

     negative rho (up, down):  6.693E-04 5.645E-04

     total cpu time spent up to now is       11.1 secs

     total energy              =    -364.19573714 Ry
     estimated scf accuracy    <       1.26912138 Ry

     total magnetization       =    -0.00 Bohr mag/cell
     absolute magnetization    =     0.66 Bohr mag/cell
[tb_dev] Currently allocated     1.24E+00 Mbytes, locked:    0 /   8
[tb_pin] Currently allocated     0.00E+00 Mbytes, locked:    0 /   0

     iteration #  2     ecut=    60.00 Ry     beta= 0.40
     Davidson diagonalization with overlap

---- Real-time Memory Report at c_bands before calling an iterative solver
          1439 MiB given to the printing process from OS
          1129 MiB allocation reported by mallinfo(arena+hblkhd)
         57802 MiB available memory on the node where the printing process lives
     GPU memory used/free/total (MiB): 1172 / 15108 / 16280
------------------
     ethr =  3.02E-03,  avg # of iterations =  2.1

     negative rho (up, down):  3.865E-04 5.592E-04

     total cpu time spent up to now is       16.8 secs

     total energy              =    -364.44090217 Ry
     estimated scf accuracy    <       0.39963700 Ry

     total magnetization       =     0.16 Bohr mag/cell
     absolute magnetization    =     0.81 Bohr mag/cell
[tb_dev] Currently allocated     1.24E+00 Mbytes, locked:    0 /   8
[tb_pin] Currently allocated     0.00E+00 Mbytes, locked:    0 /   0

     iteration #  3     ecut=    60.00 Ry     beta= 0.40
     Davidson diagonalization with overlap

---- Real-time Memory Report at c_bands before calling an iterative solver
          1512 MiB given to the printing process from OS
          1134 MiB allocation reported by mallinfo(arena+hblkhd)
         57796 MiB available memory on the node where the printing process lives
     GPU memory used/free/total (MiB): 1172 / 15108 / 16280
------------------
     ethr =  9.52E-04,  avg # of iterations =  1.6

     negative rho (up, down):  4.046E-04 6.585E-04

     total cpu time spent up to now is       21.6 secs

     WARNING: integrated charge=    42.00203762, expected=    42.00000000

     total energy              =    -364.55893415 Ry
     estimated scf accuracy    <       0.11515418 Ry

     total magnetization       =     0.00 Bohr mag/cell
     absolute magnetization    =     0.40 Bohr mag/cell
[tb_dev] Currently allocated     1.24E+00 Mbytes, locked:    0 /   8
[tb_pin] Currently allocated     0.00E+00 Mbytes, locked:    0 /   0

     iteration #  4     ecut=    60.00 Ry     beta= 0.40
     Davidson diagonalization with overlap

---- Real-time Memory Report at c_bands before calling an iterative solver
          1589 MiB given to the printing process from OS
          1139 MiB allocation reported by mallinfo(arena+hblkhd)
         57789 MiB available memory on the node where the printing process lives
     GPU memory used/free/total (MiB): 1172 / 15108 / 16280
------------------
     ethr =  2.74E-04,  avg # of iterations =  2.3

     negative rho (up, down):  4.170E-04 6.877E-04

     total cpu time spent up to now is       27.1 secs

     WARNING: integrated charge=    42.00369931, expected=    42.00000000

     total energy              =    -364.58384430 Ry
     estimated scf accuracy    <       0.02418414 Ry

     total magnetization       =     0.00 Bohr mag/cell
     absolute magnetization    =     0.32 Bohr mag/cell
[tb_dev] Currently allocated     1.24E+00 Mbytes, locked:    0 /   8
[tb_pin] Currently allocated     0.00E+00 Mbytes, locked:    0 /   0

     iteration #  5     ecut=    60.00 Ry     beta= 0.40
     Davidson diagonalization with overlap

---- Real-time Memory Report at c_bands before calling an iterative solver
          1666 MiB given to the printing process from OS
          1146 MiB allocation reported by mallinfo(arena+hblkhd)
         57779 MiB available memory on the node where the printing process lives
     GPU memory used/free/total (MiB): 1172 / 15108 / 16280
------------------
     ethr =  5.76E-05,  avg # of iterations =  3.4

     negative rho (up, down):  4.572E-04 6.095E-04

     total cpu time spent up to now is       33.9 secs

     WARNING: integrated charge=    42.00499414, expected=    42.00000000

     total energy              =    -364.58590502 Ry
     estimated scf accuracy    <       0.00207908 Ry

     total magnetization       =     0.00 Bohr mag/cell
     absolute magnetization    =     0.12 Bohr mag/cell
[tb_dev] Currently allocated     1.24E+00 Mbytes, locked:    0 /   8
[tb_pin] Currently allocated     0.00E+00 Mbytes, locked:    0 /   0

     iteration #  6     ecut=    60.00 Ry     beta= 0.40
     Davidson diagonalization with overlap

---- Real-time Memory Report at c_bands before calling an iterative solver
          1742 MiB given to the printing process from OS
          1153 MiB allocation reported by mallinfo(arena+hblkhd)
         57767 MiB available memory on the node where the printing process lives
     GPU memory used/free/total (MiB): 1172 / 15108 / 16280
------------------
     ethr =  4.95E-06,  avg # of iterations =  4.0

     negative rho (up, down):  4.937E-04 5.758E-04

     total cpu time spent up to now is       41.5 secs

     WARNING: integrated charge=    42.00469726, expected=    42.00000000

     total energy              =    -364.58817772 Ry
     estimated scf accuracy    <       0.00079121 Ry

     total magnetization       =     0.00 Bohr mag/cell
     absolute magnetization    =     0.05 Bohr mag/cell
[tb_dev] Currently allocated     1.24E+00 Mbytes, locked:    0 /   8
[tb_pin] Currently allocated     0.00E+00 Mbytes, locked:    0 /   0

     iteration #  7     ecut=    60.00 Ry     beta= 0.40
     Davidson diagonalization with overlap

---- Real-time Memory Report at c_bands before calling an iterative solver
          1818 MiB given to the printing process from OS
          1160 MiB allocation reported by mallinfo(arena+hblkhd)
         57758 MiB available memory on the node where the printing process lives
     GPU memory used/free/total (MiB): 1172 / 15108 / 16280
------------------
     ethr =  1.88E-06,  avg # of iterations =  2.2

     negative rho (up, down):  5.148E-04 5.665E-04

     total cpu time spent up to now is       47.0 secs

     WARNING: integrated charge=    42.00440462, expected=    42.00000000

     total energy              =    -364.58779945 Ry
     estimated scf accuracy    <       0.00016297 Ry

     total magnetization       =     0.00 Bohr mag/cell
     absolute magnetization    =     0.03 Bohr mag/cell
[tb_dev] Currently allocated     1.24E+00 Mbytes, locked:    0 /   8
[tb_pin] Currently allocated     0.00E+00 Mbytes, locked:    0 /   0

     iteration #  8     ecut=    60.00 Ry     beta= 0.40
     Davidson diagonalization with overlap

---- Real-time Memory Report at c_bands before calling an iterative solver
          1865 MiB given to the printing process from OS
          1166 MiB allocation reported by mallinfo(arena+hblkhd)
         57754 MiB available memory on the node where the printing process lives
     GPU memory used/free/total (MiB): 1172 / 15108 / 16280
------------------
     ethr =  3.88E-07,  avg # of iterations =  4.0

     negative rho (up, down):  5.302E-04 5.499E-04

     total cpu time spent up to now is       54.7 secs

     WARNING: integrated charge=    42.00432009, expected=    42.00000000

     total energy              =    -364.58787140 Ry
     estimated scf accuracy    <       0.00010694 Ry

     total magnetization       =     0.00 Bohr mag/cell
     absolute magnetization    =     0.02 Bohr mag/cell
[tb_dev] Currently allocated     1.24E+00 Mbytes, locked:    0 /   8
[tb_pin] Currently allocated     0.00E+00 Mbytes, locked:    0 /   0

     iteration #  9     ecut=    60.00 Ry     beta= 0.40
     Davidson diagonalization with overlap

---- Real-time Memory Report at c_bands before calling an iterative solver
          1905 MiB given to the printing process from OS
          1174 MiB allocation reported by mallinfo(arena+hblkhd)
         57743 MiB available memory on the node where the printing process lives
     GPU memory used/free/total (MiB): 1172 / 15108 / 16280
------------------
     ethr =  2.55E-07,  avg # of iterations =  1.5

     negative rho (up, down):  5.354E-04 5.423E-04

     total cpu time spent up to now is       59.5 secs

     WARNING: integrated charge=    42.00410663, expected=    42.00000000

     total energy              =    -364.58803309 Ry
     estimated scf accuracy    <       0.00003327 Ry

     total magnetization       =     0.00 Bohr mag/cell
     absolute magnetization    =     0.01 Bohr mag/cell
[tb_dev] Currently allocated     1.24E+00 Mbytes, locked:    0 /   8
[tb_pin] Currently allocated     0.00E+00 Mbytes, locked:    0 /   0

     iteration # 10     ecut=    60.00 Ry     beta= 0.40
     Davidson diagonalization with overlap

---- Real-time Memory Report at c_bands before calling an iterative solver
          1943 MiB given to the printing process from OS
          1182 MiB allocation reported by mallinfo(arena+hblkhd)
         57736 MiB available memory on the node where the printing process lives
     GPU memory used/free/total (MiB): 1172 / 15108 / 16280
------------------
     ethr =  7.92E-08,  avg # of iterations =  3.4
     Minimization algorithm failed to find Fermi energy: reverting to bisection
     Possible cause: smearing is larger than the electronic band-gap.

     negative rho (up, down):  5.349E-04 5.428E-04

     total cpu time spent up to now is       66.2 secs

     WARNING: integrated charge=    42.00390614, expected=    42.00000000

     total energy              =    -364.59107876 Ry
     estimated scf accuracy    <       0.00002776 Ry

     total magnetization       =    -0.00 Bohr mag/cell
     absolute magnetization    =     0.01 Bohr mag/cell
[tb_dev] Currently allocated     1.24E+00 Mbytes, locked:    0 /   8
[tb_pin] Currently allocated     0.00E+00 Mbytes, locked:    0 /   0

     iteration # 11     ecut=    60.00 Ry     beta= 0.40
     Davidson diagonalization with overlap

---- Real-time Memory Report at c_bands before calling an iterative solver
          1970 MiB given to the printing process from OS
          1187 MiB allocation reported by mallinfo(arena+hblkhd)
         57728 MiB available memory on the node where the printing process lives
     GPU memory used/free/total (MiB): 1172 / 15108 / 16280
------------------
     ethr =  6.61E-08,  avg # of iterations =  1.0

     negative rho (up, down):  5.413E-04 5.368E-04

     total cpu time spent up to now is       70.6 secs

     WARNING: integrated charge=    42.00350647, expected=    42.00000000

     total energy              =    -364.58812986 Ry
     estimated scf accuracy    <       0.00000217 Ry

     total magnetization       =     0.00 Bohr mag/cell
     absolute magnetization    =     0.01 Bohr mag/cell
[tb_dev] Currently allocated     1.24E+00 Mbytes, locked:    0 /   8
[tb_pin] Currently allocated     0.00E+00 Mbytes, locked:    0 /   0

     iteration # 12     ecut=    60.00 Ry     beta= 0.40
     Davidson diagonalization with overlap

---- Real-time Memory Report at c_bands before calling an iterative solver
          1995 MiB given to the printing process from OS
          1194 MiB allocation reported by mallinfo(arena+hblkhd)
         57724 MiB available memory on the node where the printing process lives
     GPU memory used/free/total (MiB): 1172 / 15108 / 16280
------------------
     ethr =  5.18E-09,  avg # of iterations =  3.5

     negative rho (up, down):  5.386E-04 5.395E-04

     total cpu time spent up to now is       77.7 secs

     WARNING: integrated charge=    42.00327987, expected=    42.00000000

     total energy              =    -364.59107980 Ry
     estimated scf accuracy    <       0.00002158 Ry

     total magnetization       =     0.00 Bohr mag/cell
     absolute magnetization    =     0.00 Bohr mag/cell
[tb_dev] Currently allocated     1.24E+00 Mbytes, locked:    0 /   8
[tb_pin] Currently allocated     0.00E+00 Mbytes, locked:    0 /   0

     iteration # 13     ecut=    60.00 Ry     beta= 0.40
     Davidson diagonalization with overlap

---- Real-time Memory Report at c_bands before calling an iterative solver
          2021 MiB given to the printing process from OS
          1199 MiB allocation reported by mallinfo(arena+hblkhd)
         57718 MiB available memory on the node where the printing process lives
     GPU memory used/free/total (MiB): 1172 / 15108 / 16280
------------------
     ethr =  5.18E-09,  avg # of iterations =  1.4

     negative rho (up, down):  5.394E-04 5.387E-04

     total cpu time spent up to now is       82.4 secs

     WARNING: integrated charge=    42.00325937, expected=    42.00000000

     total energy              =    -364.58811772 Ry
     estimated scf accuracy    <       0.00000126 Ry

     total magnetization       =     0.00 Bohr mag/cell
     absolute magnetization    =     0.00 Bohr mag/cell
[tb_dev] Currently allocated     1.24E+00 Mbytes, locked:    0 /   8
[tb_pin] Currently allocated     0.00E+00 Mbytes, locked:    0 /   0

     iteration # 14     ecut=    60.00 Ry     beta= 0.40
     Davidson diagonalization with overlap

---- Real-time Memory Report at c_bands before calling an iterative solver
          2048 MiB given to the printing process from OS
          1204 MiB allocation reported by mallinfo(arena+hblkhd)
         57713 MiB available memory on the node where the printing process lives
     GPU memory used/free/total (MiB): 1172 / 15108 / 16280
------------------
     ethr =  3.01E-09,  avg # of iterations =  1.0

     negative rho (up, down):  5.392E-04 5.389E-04

     total cpu time spent up to now is       86.8 secs

     WARNING: integrated charge=    42.00304012, expected=    42.00000000

     total energy              =    -364.59107919 Ry
     estimated scf accuracy    <       0.00001970 Ry

     total magnetization       =     0.00 Bohr mag/cell
     absolute magnetization    =     0.00 Bohr mag/cell
[tb_dev] Currently allocated     1.24E+00 Mbytes, locked:    0 /   8
[tb_pin] Currently allocated     0.00E+00 Mbytes, locked:    0 /   0

     iteration # 15     ecut=    60.00 Ry     beta= 0.40
     Davidson diagonalization with overlap

---- Real-time Memory Report at c_bands before calling an iterative solver
          2074 MiB given to the printing process from OS
          1209 MiB allocation reported by mallinfo(arena+hblkhd)
         57708 MiB available memory on the node where the printing process lives
     GPU memory used/free/total (MiB): 1172 / 15108 / 16280
------------------
     ethr =  3.01E-09,  avg # of iterations =  1.0

     negative rho (up, down):  5.391E-04 5.390E-04

     total cpu time spent up to now is       91.2 secs

     WARNING: integrated charge=    42.00304447, expected=    42.00000000

     total energy              =    -364.58813493 Ry
     estimated scf accuracy    <       0.00000205 Ry

     total magnetization       =    -0.00 Bohr mag/cell
     absolute magnetization    =     0.00 Bohr mag/cell
[tb_dev] Currently allocated     1.24E+00 Mbytes, locked:    0 /   8
[tb_pin] Currently allocated     0.00E+00 Mbytes, locked:    0 /   0

     iteration # 16     ecut=    60.00 Ry     beta= 0.40
     Davidson diagonalization with overlap

---- Real-time Memory Report at c_bands before calling an iterative solver
          2099 MiB given to the printing process from OS
          1214 MiB allocation reported by mallinfo(arena+hblkhd)
         57705 MiB available memory on the node where the printing process lives
     GPU memory used/free/total (MiB): 1172 / 15108 / 16280
------------------
     ethr =  3.01E-09,  avg # of iterations =  1.0

     negative rho (up, down):  5.391E-04 5.390E-04

     total cpu time spent up to now is       95.6 secs

     WARNING: integrated charge=    42.00304932, expected=    42.00000000

     total energy              =    -364.58813317 Ry
     estimated scf accuracy    <       0.00000197 Ry

     total magnetization       =     0.00 Bohr mag/cell
     absolute magnetization    =     0.00 Bohr mag/cell
[tb_dev] Currently allocated     1.24E+00 Mbytes, locked:    0 /   8
[tb_pin] Currently allocated     0.00E+00 Mbytes, locked:    0 /   0

     iteration # 17     ecut=    60.00 Ry     beta= 0.40
     Davidson diagonalization with overlap

---- Real-time Memory Report at c_bands before calling an iterative solver
          2108 MiB given to the printing process from OS
          1219 MiB allocation reported by mallinfo(arena+hblkhd)
         57700 MiB available memory on the node where the printing process lives
     GPU memory used/free/total (MiB): 1172 / 15108 / 16280
------------------
     ethr =  3.01E-09,  avg # of iterations =  1.0

     negative rho (up, down):  5.391E-04 5.390E-04

     total cpu time spent up to now is      100.0 secs

     WARNING: integrated charge=    42.00307079, expected=    42.00000000

     total energy              =    -364.58813041 Ry
     estimated scf accuracy    <       0.00000182 Ry

     total magnetization       =     0.00 Bohr mag/cell
     absolute magnetization    =     0.00 Bohr mag/cell
[tb_dev] Currently allocated     1.24E+00 Mbytes, locked:    0 /   8
[tb_pin] Currently allocated     0.00E+00 Mbytes, locked:    0 /   0

     iteration # 18     ecut=    60.00 Ry     beta= 0.40
     Davidson diagonalization with overlap

---- Real-time Memory Report at c_bands before calling an iterative solver
          2120 MiB given to the printing process from OS
          1225 MiB allocation reported by mallinfo(arena+hblkhd)
         57692 MiB available memory on the node where the printing process lives
     GPU memory used/free/total (MiB): 1172 / 15108 / 16280
------------------
     ethr =  3.01E-09,  avg # of iterations =  1.0

     negative rho (up, down):  5.391E-04 5.390E-04

     total cpu time spent up to now is      104.4 secs

     WARNING: integrated charge=    42.00316658, expected=    42.00000000

     total energy              =    -364.58812842 Ry
     estimated scf accuracy    <       0.00000173 Ry

     total magnetization       =     0.00 Bohr mag/cell
     absolute magnetization    =     0.00 Bohr mag/cell
[tb_dev] Currently allocated     1.24E+00 Mbytes, locked:    0 /   8
[tb_pin] Currently allocated     0.00E+00 Mbytes, locked:    0 /   0

     iteration # 19     ecut=    60.00 Ry     beta= 0.40
     Davidson diagonalization with overlap

---- Real-time Memory Report at c_bands before calling an iterative solver
          2130 MiB given to the printing process from OS
          1230 MiB allocation reported by mallinfo(arena+hblkhd)
         57687 MiB available memory on the node where the printing process lives
     GPU memory used/free/total (MiB): 1172 / 15108 / 16280
------------------
     ethr =  3.01E-09,  avg # of iterations =  1.0

     negative rho (up, down):  5.391E-04 5.389E-04

     total cpu time spent up to now is      108.8 secs

     WARNING: integrated charge=    42.00322249, expected=    42.00000000

     total energy              =    -364.58812116 Ry
     estimated scf accuracy    <       0.00000135 Ry

     total magnetization       =     0.00 Bohr mag/cell
     absolute magnetization    =     0.00 Bohr mag/cell
[tb_dev] Currently allocated     1.24E+00 Mbytes, locked:    0 /   8
[tb_pin] Currently allocated     0.00E+00 Mbytes, locked:    0 /   0

     iteration # 20     ecut=    60.00 Ry     beta= 0.40
     Davidson diagonalization with overlap

---- Real-time Memory Report at c_bands before calling an iterative solver
          2139 MiB given to the printing process from OS
          1235 MiB allocation reported by mallinfo(arena+hblkhd)
         57679 MiB available memory on the node where the printing process lives
     GPU memory used/free/total (MiB): 1172 / 15108 / 16280
------------------
     ethr =  3.01E-09,  avg # of iterations =  1.0
     Minimization algorithm failed to find Fermi energy: reverting to bisection
     Possible cause: smearing is larger than the electronic band-gap.

     negative rho (up, down):  5.390E-04 5.390E-04

     total cpu time spent up to now is      113.1 secs

     WARNING: integrated charge=    42.00315363, expected=    42.00000000

     total energy              =    -364.59107983 Ry
     estimated scf accuracy    <       0.00001995 Ry

     total magnetization       =     0.00 Bohr mag/cell
     absolute magnetization    =     0.00 Bohr mag/cell
[tb_dev] Currently allocated     1.24E+00 Mbytes, locked:    0 /   8
[tb_pin] Currently allocated     0.00E+00 Mbytes, locked:    0 /   0

     iteration # 21     ecut=    60.00 Ry     beta= 0.40
     Davidson diagonalization with overlap

---- Real-time Memory Report at c_bands before calling an iterative solver
          2149 MiB given to the printing process from OS
          1240 MiB allocation reported by mallinfo(arena+hblkhd)
         57677 MiB available memory on the node where the printing process lives
     GPU memory used/free/total (MiB): 1172 / 15108 / 16280
------------------
     ethr =  3.01E-09,  avg # of iterations =  1.0

     negative rho (up, down):  5.390E-04 5.390E-04

     total cpu time spent up to now is      117.5 secs

     WARNING: integrated charge=    42.00311910, expected=    42.00000000

     total energy              =    -364.58812268 Ry
     estimated scf accuracy    <       0.00000140 Ry

     total magnetization       =     0.00 Bohr mag/cell
     absolute magnetization    =     0.00 Bohr mag/cell
[tb_dev] Currently allocated     1.24E+00 Mbytes, locked:    0 /   8
[tb_pin] Currently allocated     0.00E+00 Mbytes, locked:    0 /   0

     iteration # 22     ecut=    60.00 Ry     beta= 0.40
     Davidson diagonalization with overlap

---- Real-time Memory Report at c_bands before calling an iterative solver
          2154 MiB given to the printing process from OS
          1246 MiB allocation reported by mallinfo(arena+hblkhd)
         57673 MiB available memory on the node where the printing process lives
     GPU memory used/free/total (MiB): 1172 / 15108 / 16280
------------------
     ethr =  3.01E-09,  avg # of iterations =  1.0

     negative rho (up, down):  5.390E-04 5.390E-04

     total cpu time spent up to now is      121.9 secs

     WARNING: integrated charge=    42.00309794, expected=    42.00000000

     total energy              =    -364.58812519 Ry
     estimated scf accuracy    <       0.00000152 Ry

     total magnetization       =     0.00 Bohr mag/cell
     absolute magnetization    =     0.00 Bohr mag/cell
[tb_dev] Currently allocated     1.24E+00 Mbytes, locked:    0 /   8
[tb_pin] Currently allocated     0.00E+00 Mbytes, locked:    0 /   0

     iteration # 23     ecut=    60.00 Ry     beta= 0.40
     Davidson diagonalization with overlap

---- Real-time Memory Report at c_bands before calling an iterative solver
          2161 MiB given to the printing process from OS
          1253 MiB allocation reported by mallinfo(arena+hblkhd)
         57666 MiB available memory on the node where the printing process lives
     GPU memory used/free/total (MiB): 1172 / 15108 / 16280
------------------
     ethr =  3.01E-09,  avg # of iterations =  1.0

     negative rho (up, down):  5.390E-04 5.390E-04

     total cpu time spent up to now is      126.2 secs

     WARNING: integrated charge=    42.00308659, expected=    42.00000000

     total energy              =    -364.59107958 Ry
     estimated scf accuracy    <       0.00001875 Ry

     total magnetization       =     0.00 Bohr mag/cell
     absolute magnetization    =     0.00 Bohr mag/cell
[tb_dev] Currently allocated     1.24E+00 Mbytes, locked:    0 /   8
[tb_pin] Currently allocated     0.00E+00 Mbytes, locked:    0 /   0

     iteration # 24     ecut=    60.00 Ry     beta= 0.40
     Davidson diagonalization with overlap

---- Real-time Memory Report at c_bands before calling an iterative solver
          2167 MiB given to the printing process from OS
          1259 MiB allocation reported by mallinfo(arena+hblkhd)
         57659 MiB available memory on the node where the printing process lives
     GPU memory used/free/total (MiB): 1172 / 15108 / 16280
------------------
     ethr =  3.01E-09,  avg # of iterations =  1.0

     negative rho (up, down):  5.390E-04 5.390E-04

     total cpu time spent up to now is      130.6 secs

     WARNING: integrated charge=    42.00308556, expected=    42.00000000

     total energy              =    -364.58812767 Ry
     estimated scf accuracy    <       0.00000166 Ry

     total magnetization       =     0.00 Bohr mag/cell
     absolute magnetization    =     0.00 Bohr mag/cell
[tb_dev] Currently allocated     1.24E+00 Mbytes, locked:    0 /   8
[tb_pin] Currently allocated     0.00E+00 Mbytes, locked:    0 /   0

     iteration # 25     ecut=    60.00 Ry     beta= 0.40
     Davidson diagonalization with overlap

---- Real-time Memory Report at c_bands before calling an iterative solver
          2173 MiB given to the printing process from OS
          1264 MiB allocation reported by mallinfo(arena+hblkhd)
         57654 MiB available memory on the node where the printing process lives
     GPU memory used/free/total (MiB): 1172 / 15108 / 16280
------------------
     ethr =  3.01E-09,  avg # of iterations =  1.0

     negative rho (up, down):  5.390E-04 5.390E-04

     total cpu time spent up to now is      135.0 secs

     WARNING: integrated charge=    42.00310708, expected=    42.00000000

     total energy              =    -364.58812779 Ry
     estimated scf accuracy    <       0.00000168 Ry

     total magnetization       =     0.00 Bohr mag/cell
     absolute magnetization    =     0.00 Bohr mag/cell
[tb_dev] Currently allocated     1.24E+00 Mbytes, locked:    0 /   8
[tb_pin] Currently allocated     0.00E+00 Mbytes, locked:    0 /   0

     iteration # 26     ecut=    60.00 Ry     beta= 0.40
     Davidson diagonalization with overlap

---- Real-time Memory Report at c_bands before calling an iterative solver
          2178 MiB given to the printing process from OS
          1270 MiB allocation reported by mallinfo(arena+hblkhd)
         57650 MiB available memory on the node where the printing process lives
     GPU memory used/free/total (MiB): 1172 / 15108 / 16280
------------------
     ethr =  3.01E-09,  avg # of iterations =  1.0

     negative rho (up, down):  5.390E-04 5.390E-04

     total cpu time spent up to now is      139.4 secs

     WARNING: integrated charge=    42.00312651, expected=    42.00000000

     total energy              =    -364.58812637 Ry
     estimated scf accuracy    <       0.00000161 Ry

     total magnetization       =     0.00 Bohr mag/cell
     absolute magnetization    =     0.00 Bohr mag/cell
[tb_dev] Currently allocated     1.24E+00 Mbytes, locked:    0 /   8
[tb_pin] Currently allocated     0.00E+00 Mbytes, locked:    0 /   0

     iteration # 27     ecut=    60.00 Ry     beta= 0.40
     Davidson diagonalization with overlap

---- Real-time Memory Report at c_bands before calling an iterative solver
          2184 MiB given to the printing process from OS
          1275 MiB allocation reported by mallinfo(arena+hblkhd)
         57644 MiB available memory on the node where the printing process lives
     GPU memory used/free/total (MiB): 1172 / 15108 / 16280
------------------
     ethr =  3.01E-09,  avg # of iterations =  1.0

     negative rho (up, down):  5.390E-04 5.390E-04

     total cpu time spent up to now is      143.8 secs

     WARNING: integrated charge=    42.00316447, expected=    42.00000000

     total energy              =    -364.58812504 Ry
     estimated scf accuracy    <       0.00000154 Ry

     total magnetization       =     0.00 Bohr mag/cell
     absolute magnetization    =     0.00 Bohr mag/cell
[tb_dev] Currently allocated     1.24E+00 Mbytes, locked:    0 /   8
[tb_pin] Currently allocated     0.00E+00 Mbytes, locked:    0 /   0

     iteration # 28     ecut=    60.00 Ry     beta= 0.40
     Davidson diagonalization with overlap

---- Real-time Memory Report at c_bands before calling an iterative solver
          2190 MiB given to the printing process from OS
          1282 MiB allocation reported by mallinfo(arena+hblkhd)
         57634 MiB available memory on the node where the printing process lives
     GPU memory used/free/total (MiB): 1172 / 15108 / 16280
------------------
     ethr =  3.01E-09,  avg # of iterations =  1.0

     negative rho (up, down):  5.390E-04 5.390E-04

     total cpu time spent up to now is      148.1 secs

     WARNING: integrated charge=    42.00317962, expected=    42.00000000

     total energy              =    -364.58812253 Ry
     estimated scf accuracy    <       0.00000142 Ry

     total magnetization       =    -0.00 Bohr mag/cell
     absolute magnetization    =     0.00 Bohr mag/cell
[tb_dev] Currently allocated     1.24E+00 Mbytes, locked:    0 /   8
[tb_pin] Currently allocated     0.00E+00 Mbytes, locked:    0 /   0

     iteration # 29     ecut=    60.00 Ry     beta= 0.40
     Davidson diagonalization with overlap

---- Real-time Memory Report at c_bands before calling an iterative solver
          2197 MiB given to the printing process from OS
          1289 MiB allocation reported by mallinfo(arena+hblkhd)
         57629 MiB available memory on the node where the printing process lives
     GPU memory used/free/total (MiB): 1172 / 15108 / 16280
------------------
     ethr =  3.01E-09,  avg # of iterations =  1.0

     negative rho (up, down):  5.390E-04 5.390E-04

     total cpu time spent up to now is      152.6 secs

     WARNING: integrated charge=    42.00316875, expected=    42.00000000

     total energy              =    -364.58812166 Ry
     estimated scf accuracy    <       0.00000138 Ry

     total magnetization       =     0.00 Bohr mag/cell
     absolute magnetization    =     0.00 Bohr mag/cell
[tb_dev] Currently allocated     1.24E+00 Mbytes, locked:    0 /   8
[tb_pin] Currently allocated     0.00E+00 Mbytes, locked:    0 /   0

     iteration # 30     ecut=    60.00 Ry     beta= 0.40
     Davidson diagonalization with overlap

---- Real-time Memory Report at c_bands before calling an iterative solver
          2202 MiB given to the printing process from OS
          1294 MiB allocation reported by mallinfo(arena+hblkhd)
         57625 MiB available memory on the node where the printing process lives
     GPU memory used/free/total (MiB): 1172 / 15108 / 16280
------------------
     ethr =  3.01E-09,  avg # of iterations =  1.0

     negative rho (up, down):  5.390E-04 5.390E-04

     total cpu time spent up to now is      157.0 secs

     WARNING: integrated charge=    42.00315092, expected=    42.00000000

     total energy              =    -364.58812251 Ry
     estimated scf accuracy    <       0.00000141 Ry

     total magnetization       =    -0.00 Bohr mag/cell
     absolute magnetization    =     0.00 Bohr mag/cell
[tb_dev] Currently allocated     1.24E+00 Mbytes, locked:    0 /   8
[tb_pin] Currently allocated     0.00E+00 Mbytes, locked:    0 /   0

     iteration # 31     ecut=    60.00 Ry     beta= 0.40
     Davidson diagonalization with overlap

---- Real-time Memory Report at c_bands before calling an iterative solver
          2208 MiB given to the printing process from OS
          1300 MiB allocation reported by mallinfo(arena+hblkhd)
         57619 MiB available memory on the node where the printing process lives
     GPU memory used/free/total (MiB): 1172 / 15108 / 16280
------------------
     ethr =  3.01E-09,  avg # of iterations =  1.0

     negative rho (up, down):  5.390E-04 5.390E-04

     total cpu time spent up to now is      161.4 secs

     WARNING: integrated charge=    42.00314202, expected=    42.00000000

     total energy              =    -364.58812373 Ry
     estimated scf accuracy    <       0.00000147 Ry

     total magnetization       =    -0.00 Bohr mag/cell
     absolute magnetization    =     0.00 Bohr mag/cell
[tb_dev] Currently allocated     1.24E+00 Mbytes, locked:    0 /   8
[tb_pin] Currently allocated     0.00E+00 Mbytes, locked:    0 /   0

     iteration # 32     ecut=    60.00 Ry     beta= 0.40
     Davidson diagonalization with overlap

---- Real-time Memory Report at c_bands before calling an iterative solver
          2214 MiB given to the printing process from OS
          1305 MiB allocation reported by mallinfo(arena+hblkhd)
         57611 MiB available memory on the node where the printing process lives
     GPU memory used/free/total (MiB): 1172 / 15108 / 16280
------------------
     ethr =  3.01E-09,  avg # of iterations =  1.0

     negative rho (up, down):  5.390E-04 5.390E-04

     total cpu time spent up to now is      165.7 secs

     WARNING: integrated charge=    42.00407720, expected=    42.00000000

     total energy              =    -364.58812362 Ry
     estimated scf accuracy    <       0.00000150 Ry

     total magnetization       =    -0.00 Bohr mag/cell
     absolute magnetization    =     0.00 Bohr mag/cell
[tb_dev] Currently allocated     1.24E+00 Mbytes, locked:    0 /   8
[tb_pin] Currently allocated     0.00E+00 Mbytes, locked:    0 /   0

     iteration # 33     ecut=    60.00 Ry     beta= 0.40
     Davidson diagonalization with overlap

---- Real-time Memory Report at c_bands before calling an iterative solver
          2219 MiB given to the printing process from OS
          1311 MiB allocation reported by mallinfo(arena+hblkhd)
         57607 MiB available memory on the node where the printing process lives
     GPU memory used/free/total (MiB): 1172 / 15108 / 16280
------------------
     ethr =  3.01E-09,  avg # of iterations =  2.0

     negative rho (up, down):  5.390E-04 5.390E-04

     total cpu time spent up to now is      171.3 secs

     WARNING: integrated charge=    42.00407992, expected=    42.00000000

     total energy              =    -364.58805987 Ry
     estimated scf accuracy    <       0.00000001 Ry

     total magnetization       =    -0.00 Bohr mag/cell
     absolute magnetization    =     0.00 Bohr mag/cell
[tb_dev] Currently allocated     1.24E+00 Mbytes, locked:    0 /   8
[tb_pin] Currently allocated     0.00E+00 Mbytes, locked:    0 /   0

     iteration # 34     ecut=    60.00 Ry     beta= 0.40
     Davidson diagonalization with overlap

---- Real-time Memory Report at c_bands before calling an iterative solver
          2225 MiB given to the printing process from OS
          1317 MiB allocation reported by mallinfo(arena+hblkhd)
         57602 MiB available memory on the node where the printing process lives
     GPU memory used/free/total (MiB): 1172 / 15108 / 16280
------------------
     ethr =  2.78E-11,  avg # of iterations =  4.6

     negative rho (up, down):  5.390E-04 5.390E-04

     total cpu time spent up to now is      179.8 secs

     WARNING: integrated charge=    42.00408128, expected=    42.00000000

     total energy              =    -364.58805957 Ry
     estimated scf accuracy    <       0.00000003 Ry

     total magnetization       =     0.00 Bohr mag/cell
     absolute magnetization    =     0.00 Bohr mag/cell
[tb_dev] Currently allocated     1.24E+00 Mbytes, locked:    0 /   8
[tb_pin] Currently allocated     0.00E+00 Mbytes, locked:    0 /   0

     iteration # 35     ecut=    60.00 Ry     beta= 0.40
     Davidson diagonalization with overlap

---- Real-time Memory Report at c_bands before calling an iterative solver
          2232 MiB given to the printing process from OS
          1323 MiB allocation reported by mallinfo(arena+hblkhd)
         57597 MiB available memory on the node where the printing process lives
     GPU memory used/free/total (MiB): 1172 / 15108 / 16280
------------------
     ethr =  2.78E-11,  avg # of iterations =  1.0

     negative rho (up, down):  5.390E-04 5.390E-04

     total cpu time spent up to now is      184.1 secs

     WARNING: integrated charge=    42.00408702, expected=    42.00000000

     total energy              =    -364.58805986 Ry
     estimated scf accuracy    <       0.00000003 Ry

     total magnetization       =     0.00 Bohr mag/cell
     absolute magnetization    =     0.00 Bohr mag/cell
[tb_dev] Currently allocated     1.24E+00 Mbytes, locked:    0 /   8
[tb_pin] Currently allocated     0.00E+00 Mbytes, locked:    0 /   0

     iteration # 36     ecut=    60.00 Ry     beta= 0.40
     Davidson diagonalization with overlap

---- Real-time Memory Report at c_bands before calling an iterative solver
          2239 MiB given to the printing process from OS
          1330 MiB allocation reported by mallinfo(arena+hblkhd)
         57587 MiB available memory on the node where the printing process lives
     GPU memory used/free/total (MiB): 1172 / 15108 / 16280
------------------
     ethr =  2.78E-11,  avg # of iterations =  1.0

     negative rho (up, down):  5.390E-04 5.390E-04

     total cpu time spent up to now is      188.5 secs

     WARNING: integrated charge=    42.00409412, expected=    42.00000000

     total energy              =    -364.58806021 Ry
     estimated scf accuracy    <       0.00000003 Ry

     total magnetization       =    -0.00 Bohr mag/cell
     absolute magnetization    =     0.00 Bohr mag/cell
[tb_dev] Currently allocated     1.24E+00 Mbytes, locked:    0 /   8
[tb_pin] Currently allocated     0.00E+00 Mbytes, locked:    0 /   0

     iteration # 37     ecut=    60.00 Ry     beta= 0.40
     Davidson diagonalization with overlap

---- Real-time Memory Report at c_bands before calling an iterative solver
          2244 MiB given to the printing process from OS
          1336 MiB allocation reported by mallinfo(arena+hblkhd)
         57584 MiB available memory on the node where the printing process lives
     GPU memory used/free/total (MiB): 1172 / 15108 / 16280
------------------
     ethr =  2.78E-11,  avg # of iterations =  1.0

     negative rho (up, down):  5.390E-04 5.390E-04

     total cpu time spent up to now is      192.9 secs

     WARNING: integrated charge=    42.00409583, expected=    42.00000000

     total energy              =    -364.58806062 Ry
     estimated scf accuracy    <       0.00000002 Ry

     total magnetization       =    -0.00 Bohr mag/cell
     absolute magnetization    =     0.00 Bohr mag/cell
[tb_dev] Currently allocated     1.24E+00 Mbytes, locked:    0 /   8
[tb_pin] Currently allocated     0.00E+00 Mbytes, locked:    0 /   0

     iteration # 38     ecut=    60.00 Ry     beta= 0.40
     Davidson diagonalization with overlap

---- Real-time Memory Report at c_bands before calling an iterative solver
          2250 MiB given to the printing process from OS
          1341 MiB allocation reported by mallinfo(arena+hblkhd)
         57580 MiB available memory on the node where the printing process lives
     GPU memory used/free/total (MiB): 1172 / 15108 / 16280
------------------
     ethr =  2.78E-11,  avg # of iterations =  1.0

     negative rho (up, down):  5.390E-04 5.390E-04

     total cpu time spent up to now is      197.3 secs

     WARNING: integrated charge=    42.00410517, expected=    42.00000000

     total energy              =    -364.58806064 Ry
     estimated scf accuracy    <       0.00000002 Ry

     total magnetization       =    -0.00 Bohr mag/cell
     absolute magnetization    =     0.00 Bohr mag/cell
[tb_dev] Currently allocated     1.24E+00 Mbytes, locked:    0 /   8
[tb_pin] Currently allocated     0.00E+00 Mbytes, locked:    0 /   0

     iteration # 39     ecut=    60.00 Ry     beta= 0.40
     Davidson diagonalization with overlap

---- Real-time Memory Report at c_bands before calling an iterative solver
          2256 MiB given to the printing process from OS
          1347 MiB allocation reported by mallinfo(arena+hblkhd)
         57572 MiB available memory on the node where the printing process lives
     GPU memory used/free/total (MiB): 1172 / 15108 / 16280
------------------
     ethr =  2.78E-11,  avg # of iterations =  1.0

     negative rho (up, down):  5.390E-04 5.390E-04

     total cpu time spent up to now is      201.8 secs

     WARNING: integrated charge=    42.00325822, expected=    42.00000000

     total energy              =    -364.59108012 Ry
     estimated scf accuracy    <       0.00002937 Ry

     total magnetization       =    -0.00 Bohr mag/cell
     absolute magnetization    =     0.00 Bohr mag/cell
[tb_dev] Currently allocated     1.24E+00 Mbytes, locked:    0 /   8
[tb_pin] Currently allocated     0.00E+00 Mbytes, locked:    0 /   0

     iteration # 40     ecut=    60.00 Ry     beta= 0.40
     Davidson diagonalization with overlap

---- Real-time Memory Report at c_bands before calling an iterative solver
          2261 MiB given to the printing process from OS
          1352 MiB allocation reported by mallinfo(arena+hblkhd)
         57563 MiB available memory on the node where the printing process lives
     GPU memory used/free/total (MiB): 1172 / 15108 / 16280
------------------
     ethr =  2.78E-11,  avg # of iterations =  5.4

     negative rho (up, down):  5.390E-04 5.390E-04

     total cpu time spent up to now is      211.4 secs

     WARNING: integrated charge=    42.00310113, expected=    42.00000000

     total energy              =    -364.58811522 Ry
     estimated scf accuracy    <       0.00000104 Ry

     total magnetization       =    -0.00 Bohr mag/cell
     absolute magnetization    =     0.00 Bohr mag/cell
[tb_dev] Currently allocated     1.24E+00 Mbytes, locked:    0 /   8
[tb_pin] Currently allocated     0.00E+00 Mbytes, locked:    0 /   0

     iteration # 41     ecut=    60.00 Ry     beta= 0.40
     Davidson diagonalization with overlap

[...]
[tb_pin] Currently allocated     0.00E+00 Mbytes, locked:    0 /   0

     iteration # 67     ecut=    60.00 Ry     beta= 0.40
     Davidson diagonalization with overlap

---- Real-time Memory Report at c_bands before calling an iterative solver
          2425 MiB given to the printing process from OS
          1517 MiB allocation reported by mallinfo(arena+hblkhd)
         57404 MiB available memory on the node where the printing process lives
     GPU memory used/free/total (MiB): 1172 / 15108 / 16280
------------------
     ethr =  2.78E-11,  avg # of iterations =  4.1

     negative rho (up, down):  5.390E-04 5.390E-04

     total cpu time spent up to now is      351.6 secs

     WARNING: integrated charge=    42.00329174, expected=    42.00000000

     total energy              =    -364.58811053 Ry
     estimated scf accuracy    <       0.00000088 Ry

     total magnetization       =    -0.00 Bohr mag/cell
     absolute magnetization    =     0.00 Bohr mag/cell
[tb_dev] Currently allocated     1.24E+00 Mbytes, locked:    0 /   8
[tb_pin] Currently allocated     0.00E+00 Mbytes, locked:    0 /   0

     iteration # 68     ecut=    60.00 Ry     beta= 0.40
     Davidson diagonalization with overlap

---- Real-time Memory Report at c_bands before calling an iterative solver
          2431 MiB given to the printing process from OS
          1522 MiB allocation reported by mallinfo(arena+hblkhd)
         57394 MiB available memory on the node where the printing process lives
     GPU memory used/free/total (MiB): 1172 / 15108 / 16280
------------------
     ethr =  2.78E-11,  avg # of iterations =  1.1

     negative rho (up, down):  5.390E-04 5.390E-04

     total cpu time spent up to now is      356.1 secs

     WARNING: integrated charge=    42.00315488, expected=    42.00000000

     total energy              =    -364.58811424 Ry
     estimated scf accuracy    <       0.00000101 Ry

     total magnetization       =    -0.00 Bohr mag/cell
     absolute magnetization    =     0.00 Bohr mag/cell
[tb_dev] Currently allocated     1.24E+00 Mbytes, locked:    0 /   8
[tb_pin] Currently allocated     0.00E+00 Mbytes, locked:    0 /   0

     iteration # 69     ecut=    60.00 Ry     beta= 0.40
     Davidson diagonalization with overlap

---- Real-time Memory Report at c_bands before calling an iterative solver
          2437 MiB given to the printing process from OS
          1528 MiB allocation reported by mallinfo(arena+hblkhd)
         57390 MiB available memory on the node where the printing process lives
     GPU memory used/free/total (MiB): 1172 / 15108 / 16280
------------------
     ethr =  2.78E-11,  avg # of iterations =  2.3

     negative rho (up, down):  5.390E-04 5.390E-04

     total cpu time spent up to now is      362.0 secs

     WARNING: integrated charge=    42.00316203, expected=    42.00000000

     total energy              =    -364.58812288 Ry
     estimated scf accuracy    <       0.00000140 Ry

     total magnetization       =    -0.00 Bohr mag/cell
     absolute magnetization    =     0.00 Bohr mag/cell
[tb_dev] Currently allocated     1.24E+00 Mbytes, locked:    0 /   8
[tb_pin] Currently allocated     0.00E+00 Mbytes, locked:    0 /   0

     iteration # 70     ecut=    60.00 Ry     beta= 0.40
     Davidson diagonalization with overlap

---- Real-time Memory Report at c_bands before calling an iterative solver
          2442 MiB given to the printing process from OS
          1534 MiB allocation reported by mallinfo(arena+hblkhd)
         57387 MiB available memory on the node where the printing process lives
     GPU memory used/free/total (MiB): 1172 / 15108 / 16280
------------------
     ethr =  2.78E-11,  avg # of iterations =  1.0

     negative rho (up, down):  5.390E-04 5.390E-04

     total cpu time spent up to now is      366.4 secs

     WARNING: integrated charge=    42.00317525, expected=    42.00000000

     total energy              =    -364.58812270 Ry
     estimated scf accuracy    <       0.00000141 Ry

     total magnetization       =    -0.00 Bohr mag/cell
     absolute magnetization    =     0.00 Bohr mag/cell
[tb_dev] Currently allocated     1.24E+00 Mbytes, locked:    0 /   8
[tb_pin] Currently allocated     0.00E+00 Mbytes, locked:    0 /   0

     iteration # 71     ecut=    60.00 Ry     beta= 0.40
     Davidson diagonalization with overlap

---- Real-time Memory Report at c_bands before calling an iterative solver
          2449 MiB given to the printing process from OS
          1541 MiB allocation reported by mallinfo(arena+hblkhd)
         57379 MiB available memory on the node where the printing process lives
     GPU memory used/free/total (MiB): 1172 / 15108 / 16280
------------------
     ethr =  2.78E-11,  avg # of iterations =  1.0

     negative rho (up, down):  5.390E-04 5.390E-04

     total cpu time spent up to now is      370.8 secs

     WARNING: integrated charge=    42.00320512, expected=    42.00000000

     total energy              =    -364.58812204 Ry
     estimated scf accuracy    <       0.00000138 Ry

     total magnetization       =    -0.00 Bohr mag/cell
     absolute magnetization    =     0.00 Bohr mag/cell
[tb_dev] Currently allocated     1.24E+00 Mbytes, locked:    0 /   8
[tb_pin] Currently allocated     0.00E+00 Mbytes, locked:    0 /   0

     iteration # 72     ecut=    60.00 Ry     beta= 0.40
     Davidson diagonalization with overlap

---- Real-time Memory Report at c_bands before calling an iterative solver
          2456 MiB given to the printing process from OS
          1547 MiB allocation reported by mallinfo(arena+hblkhd)
         57369 MiB available memory on the node where the printing process lives
     GPU memory used/free/total (MiB): 1172 / 15108 / 16280
------------------
     ethr =  2.78E-11,  avg # of iterations =  1.0

     negative rho (up, down):  5.390E-04 5.390E-04

     total cpu time spent up to now is      375.2 secs

     WARNING: integrated charge=    42.00415429, expected=    42.00000000

     total energy              =    -364.58812016 Ry
     estimated scf accuracy    <       0.00000133 Ry

     total magnetization       =    -0.00 Bohr mag/cell
     absolute magnetization    =     0.00 Bohr mag/cell
[tb_dev] Currently allocated     1.24E+00 Mbytes, locked:    0 /   8
[tb_pin] Currently allocated     0.00E+00 Mbytes, locked:    0 /   0

     iteration # 73     ecut=    60.00 Ry     beta= 0.40
     Davidson diagonalization with overlap

---- Real-time Memory Report at c_bands before calling an iterative solver
          2462 MiB given to the printing process from OS
          1553 MiB allocation reported by mallinfo(arena+hblkhd)
         57366 MiB available memory on the node where the printing process lives
     GPU memory used/free/total (MiB): 1172 / 15108 / 16280
------------------
     ethr =  2.78E-11,  avg # of iterations =  5.5

     negative rho (up, down):  5.390E-04 5.390E-04

     total cpu time spent up to now is      384.9 secs

     WARNING: integrated charge=    42.00415983, expected=    42.00000000

     total energy              =    -364.58805997 Ry
     estimated scf accuracy    <       0.00000002 Ry

     total magnetization       =    -0.00 Bohr mag/cell
     absolute magnetization    =     0.00 Bohr mag/cell
[tb_dev] Currently allocated     1.24E+00 Mbytes, locked:    0 /   8
[tb_pin] Currently allocated     0.00E+00 Mbytes, locked:    0 /   0

     iteration # 74     ecut=    60.00 Ry     beta= 0.40
     Davidson diagonalization with overlap

---- Real-time Memory Report at c_bands before calling an iterative solver
          2467 MiB given to the printing process from OS
          1558 MiB allocation reported by mallinfo(arena+hblkhd)
         57363 MiB available memory on the node where the printing process lives
     GPU memory used/free/total (MiB): 1172 / 15108 / 16280
------------------
     ethr =  2.78E-11,  avg # of iterations =  1.0

     negative rho (up, down):  5.390E-04 5.390E-04

     total cpu time spent up to now is      389.4 secs

     WARNING: integrated charge=    42.00416519, expected=    42.00000000

     total energy              =    -364.58805987 Ry
     estimated scf accuracy    <       0.00000002 Ry

     total magnetization       =    -0.00 Bohr mag/cell
     absolute magnetization    =     0.00 Bohr mag/cell
[tb_dev] Currently allocated     1.24E+00 Mbytes, locked:    0 /   8
[tb_pin] Currently allocated     0.00E+00 Mbytes, locked:    0 /   0

     iteration # 75     ecut=    60.00 Ry     beta= 0.40
     Davidson diagonalization with overlap

---- Real-time Memory Report at c_bands before calling an iterative solver
          2473 MiB given to the printing process from OS
          1564 MiB allocation reported by mallinfo(arena+hblkhd)
         57352 MiB available memory on the node where the printing process lives
     GPU memory used/free/total (MiB): 1172 / 15108 / 16280
------------------
     ethr =  2.78E-11,  avg # of iterations =  1.0

     negative rho (up, down):  5.390E-04 5.390E-04

     total cpu time spent up to now is      393.8 secs

     WARNING: integrated charge=    42.00417230, expected=    42.00000000

     total energy              =    -364.58805978 Ry
     estimated scf accuracy    <       0.00000002 Ry

     total magnetization       =    -0.00 Bohr mag/cell
     absolute magnetization    =     0.00 Bohr mag/cell
[tb_dev] Currently allocated     1.24E+00 Mbytes, locked:    0 /   8
[tb_pin] Currently allocated     0.00E+00 Mbytes, locked:    0 /   0

     iteration # 76     ecut=    60.00 Ry     beta= 0.40
     Davidson diagonalization with overlap

---- Real-time Memory Report at c_bands before calling an iterative solver
          2481 MiB given to the printing process from OS
          1572 MiB allocation reported by mallinfo(arena+hblkhd)
         57347 MiB available memory on the node where the printing process lives
     GPU memory used/free/total (MiB): 1172 / 15108 / 16280
------------------
     ethr =  2.78E-11,  avg # of iterations =  1.0

     negative rho (up, down):  5.390E-04 5.390E-04

     total cpu time spent up to now is      398.2 secs

     WARNING: integrated charge=    42.00418057, expected=    42.00000000

     total energy              =    -364.58805976 Ry
     estimated scf accuracy    <       0.00000002 Ry

     total magnetization       =    -0.00 Bohr mag/cell
     absolute magnetization    =     0.00 Bohr mag/cell
[tb_dev] Currently allocated     1.24E+00 Mbytes, locked:    0 /   8
[tb_pin] Currently allocated     0.00E+00 Mbytes, locked:    0 /   0

     iteration # 77     ecut=    60.00 Ry     beta= 0.40
     Davidson diagonalization with overlap

---- Real-time Memory Report at c_bands before calling an iterative solver
          2486 MiB given to the printing process from OS
          1577 MiB allocation reported by mallinfo(arena+hblkhd)
         57343 MiB available memory on the node where the printing process lives
     GPU memory used/free/total (MiB): 1172 / 15108 / 16280
------------------
     ethr =  2.78E-11,  avg # of iterations =  1.0

     negative rho (up, down):  5.390E-04 5.390E-04

     total cpu time spent up to now is      402.6 secs

     WARNING: integrated charge=    42.00417220, expected=    42.00000000

     total energy              =    -364.58805977 Ry
     estimated scf accuracy    <       0.00000002 Ry

     total magnetization       =     0.00 Bohr mag/cell
     absolute magnetization    =     0.00 Bohr mag/cell
[tb_dev] Currently allocated     1.24E+00 Mbytes, locked:    0 /   8
[tb_pin] Currently allocated     0.00E+00 Mbytes, locked:    0 /   0

     iteration # 78     ecut=    60.00 Ry     beta= 0.40
     Davidson diagonalization with overlap

---- Real-time Memory Report at c_bands before calling an iterative solver
          2492 MiB given to the printing process from OS
          1583 MiB allocation reported by mallinfo(arena+hblkhd)
         57338 MiB available memory on the node where the printing process lives
     GPU memory used/free/total (MiB): 1172 / 15108 / 16280
------------------
     ethr =  2.78E-11,  avg # of iterations =  1.0

     negative rho (up, down):  5.390E-04 5.390E-04

     total cpu time spent up to now is      406.9 secs

     WARNING: integrated charge=    42.00418628, expected=    42.00000000

     total energy              =    -364.58805968 Ry
     estimated scf accuracy    <       0.00000002 Ry

     total magnetization       =     0.00 Bohr mag/cell
     absolute magnetization    =     0.00 Bohr mag/cell
[tb_dev] Currently allocated     1.24E+00 Mbytes, locked:    0 /   8
[tb_pin] Currently allocated     0.00E+00 Mbytes, locked:    0 /   0

     iteration # 79     ecut=    60.00 Ry     beta= 0.40
     Davidson diagonalization with overlap

---- Real-time Memory Report at c_bands before calling an iterative solver
          2498 MiB given to the printing process from OS
          1590 MiB allocation reported by mallinfo(arena+hblkhd)
         57326 MiB available memory on the node where the printing process lives
     GPU memory used/free/total (MiB): 1172 / 15108 / 16280
------------------
     ethr =  2.78E-11,  avg # of iterations =  2.0

     negative rho (up, down):  5.390E-04 5.390E-04

     total cpu time spent up to now is      412.1 secs

     WARNING: integrated charge=    42.00415584, expected=    42.00000000

     total energy              =    -364.58806256 Ry
     estimated scf accuracy    <          8.0E-09 Ry

     total magnetization       =     0.00 Bohr mag/cell
     absolute magnetization    =     0.00 Bohr mag/cell
[tb_dev] Currently allocated     1.24E+00 Mbytes, locked:    0 /   8
[tb_pin] Currently allocated     0.00E+00 Mbytes, locked:    0 /   0

     iteration # 80     ecut=    60.00 Ry     beta= 0.40
     Davidson diagonalization with overlap

---- Real-time Memory Report at c_bands before calling an iterative solver
          2504 MiB given to the printing process from OS
          1595 MiB allocation reported by mallinfo(arena+hblkhd)
         57323 MiB available memory on the node where the printing process lives
     GPU memory used/free/total (MiB): 1172 / 15108 / 16280
------------------
     ethr =  1.90E-11,  avg # of iterations =  2.0
     Minimization algorithm failed to find Fermi energy: reverting to bisection
     Possible cause: smearing is larger than the electronic band-gap.

     negative rho (up, down):  5.390E-04 5.390E-04

     total cpu time spent up to now is      417.4 secs

     WARNING: integrated charge=    42.00335347, expected=    42.00000000

     total energy              =    -364.59108039 Ry
     estimated scf accuracy    <       0.00002858 Ry

     total magnetization       =     0.00 Bohr mag/cell
     absolute magnetization    =     0.00 Bohr mag/cell

     End of self-consistent calculation

     convergence NOT achieved after  80 iterations: stopping

     Writing config to output data dir ./out/aiida.save/
 
     init_run     :     20.19s CPU      5.30s WALL (       1 calls)
     electrons    :    717.58s CPU    411.31s WALL (       1 calls)

     Called by init_run:
     wfcinit      :      2.25s CPU      3.04s WALL (       1 calls)
                                        3.04s GPU  (       1 calls)
     wfcinit:atom :      0.08s CPU      0.10s WALL (     336 calls)
                                        0.10s GPU  (     336 calls)
     wfcinit:wfcr :      1.32s CPU      1.92s WALL (     336 calls)
                                        1.92s GPU  (     336 calls)
     potinit      :      6.33s CPU      0.62s WALL (       1 calls)
     hinit0       :      7.65s CPU      1.07s WALL (       1 calls)

     Called by electrons:
     c_bands      :    416.52s CPU    324.75s WALL (      80 calls)
     sum_band     :     52.42s CPU     63.33s WALL (      80 calls)
     v_of_rho     :      9.83s CPU      0.87s WALL (      81 calls)
     v_h          :      1.61s CPU      0.14s WALL (      81 calls)
     v_xc         :      8.21s CPU      0.73s WALL (      81 calls)
     newd         :     25.85s CPU      2.63s WALL (      81 calls)
                                        2.63s GPU  (      81 calls)
     PAW_pot      :    203.90s CPU     19.00s WALL (      81 calls)
     mix_rho      :     12.66s CPU      1.25s WALL (      80 calls)

     Called by c_bands:
     init_us_2    :     50.75s CPU     47.12s WALL (   54096 calls)
     init_us_2:gp :     49.68s CPU     46.22s WALL (   54096 calls)
     cegterg      :    340.28s CPU    266.09s WALL (   26880 calls)

     Called by sum_band:
     sum_band:wei :      1.03s CPU      1.04s WALL (      80 calls)
                                        1.04s GPU  (      80 calls)
     sum_band:loo :     48.53s CPU     59.21s WALL (      80 calls)
                                       59.21s GPU  (      80 calls)
     sum_band:buf :      8.43s CPU     10.10s WALL (   26880 calls)
                                        9.94s GPU  (   26880 calls)
     sum_band:ini :     18.33s CPU     22.91s WALL (   26880 calls)
                                       22.76s GPU  (   26880 calls)
     sum_band:cal :      0.77s CPU      1.96s WALL (   26880 calls)
                                        1.80s GPU  (   26880 calls)
     sum_band:bec :      4.52s CPU      5.85s WALL (   26880 calls)
                                        5.67s GPU  (   26880 calls)
     addusdens    :      2.21s CPU      2.39s WALL (      80 calls)
                                        2.39s GPU  (      80 calls)
     addusd:skk   :      0.01s CPU      0.02s WALL (     240 calls)
                                        0.02s GPU  (     240 calls)

     Called by *egterg:
     cdiaghg      :    151.53s CPU    123.20s WALL (   72505 calls)
                                      122.72s GPU  (   72505 calls)
     cegterg:over :      7.37s CPU      5.85s WALL (   45625 calls)
     cegterg:upda :     16.24s CPU     12.48s WALL (   45625 calls)
     cegterg:last :      3.18s CPU      2.59s WALL (   38598 calls)
     h_psi        :    123.78s CPU     95.01s WALL (   72841 calls)
                                       94.62s GPU  (   72841 calls)
     s_psi        :      8.41s CPU      9.39s WALL (   72841 calls)
                                        8.80s GPU  (   72841 calls)
     g_psi        :      0.44s CPU      1.06s WALL (   45625 calls)
                                        0.77s GPU  (   45625 calls)

     Called by h_psi:
     h_psi:calbec :      3.27s CPU      5.76s WALL (   72841 calls)
                                        5.32s GPU  (   72841 calls)
     vloc_psi     :     95.72s CPU     73.69s WALL (   72841 calls)
                                       73.26s GPU  (   72841 calls)
     add_vuspsi   :     11.90s CPU     10.97s WALL (   72841 calls)
                                       10.54s GPU  (   72841 calls)

     General routines
     calbec       :      3.05s CPU      2.60s WALL (   99721 calls)
     fft          :      2.40s CPU      0.29s WALL (    2023 calls)
                                        0.24s GPU  (    1861 calls)
     ffts         :      0.02s CPU      0.02s WALL (     322 calls)
                                        0.00s GPU  (     160 calls)
     fftw         :      7.75s CPU     44.38s WALL (  310644 calls)
                                       42.67s GPU  (  310644 calls)
     interpolate  :      1.43s CPU      0.13s WALL (     162 calls)
     davcio       :      0.99s CPU      0.26s WALL (     354 calls)
 
     Parallel routines

     PAW routines
     PAW_pot      :    203.90s CPU     19.00s WALL (      81 calls)
     PAW_symme    :      0.05s CPU      0.01s WALL (     161 calls)
 
     PWSCF        :  12m21.85s CPU   6m57.79s WALL

 
   This run was terminated on:  23:26:19  22Oct2023            

=------------------------------------------------------------------------------=
   JOB DONE.
=------------------------------------------------------------------------------=
