
     Program PWSCF v.7.2 starts on 23Oct2023 at 20:17:10 

     This program is part of the open-source Quantum ESPRESSO suite
     for quantum simulation of materials; please cite
         "P. Giannozzi et al., J. Phys.:Condens. Matter 21 395502 (2009);
         "P. Giannozzi et al., J. Phys.:Condens. Matter 29 465901 (2017);
         "P. Giannozzi et al., J. Chem. Phys. 152 154105 (2020);
          URL http://www.quantum-espresso.org", 
     in publications or presentations arising from this work. More details at
     http://www.quantum-espresso.org/quote

     Parallel version (MPI & OpenMP), running on      12 processor cores
     Number of MPI processes:                 1
     Threads/MPI process:                    12

     MPI processes distributed on     1 nodes
     40418 MiB available memory on the printing compute node when the environment starts
 
     Reading input from aiida.in

     Current dimensions of program PWSCF are:
     Max number of different atomic species (ntypx) = 10
     Max number of k-points (npk) =  40000
     Max angular momentum in pseudopotentials (lmaxx) =  4
     Message from routine setup:
     using ibrav=0 with symmetry is DISCOURAGED, use correct ibrav instead
 
     Subspace diagonalization in iterative solution of the eigenvalue problem:
     a serial algorithm will be used

 
     G-vector sticks info
     --------------------
     sticks:   dense  smooth     PW     G-vecs:    dense   smooth      PW
     Sum        5215    2597    853               136037    48083    9091
 
     Using Slab Decomposition
 


     bravais-lattice index     =            0
     lattice parameter (alat)  =      16.4075  a.u.
     unit-cell volume          =    1406.8082 (a.u.)^3
     number of atoms/cell      =            7
     number of atomic types    =            3
     number of electrons       =        60.00
     number of Kohn-Sham states=           36
     kinetic-energy cutoff     =      40.0000  Ry
     charge density cutoff     =     320.0000  Ry
     scf convergence threshold =      1.4E-09
     mixing beta               =       0.1000
     number of iterations used =            8  plain     mixing
     Exchange-correlation= PBESOL
                           (   1   4  10   8   0   0   0)

     GPU acceleration is ACTIVE.


     GPU used by master process:

        Device Number: 0
        Device name: Tesla P100-PCIE-16GB
        Compute capability : 60
        Ratio of single to double precision performance  : 2
        Memory Clock Rate (KHz): 715000
        Memory Bus Width (bits): 4096
        Peak Memory Bandwidth (GB/s): 732.16

     celldm(1)=  16.407505  celldm(2)=   0.000000  celldm(3)=   0.000000
     celldm(4)=   0.000000  celldm(5)=   0.000000  celldm(6)=   0.000000

     crystal axes: (cart. coord. in units of alat)
               a(1) = (  -0.296114   0.296114   0.908093 )  
               a(2) = (   0.296114  -0.296114   0.908093 )  
               a(3) = (   0.296114   0.296114  -0.908093 )  

     reciprocal axes: (cart. coord. in units 2 pi/alat)
               b(1) = ( -0.000000  1.688541  0.550604 )  
               b(2) = (  1.688541 -0.000000  0.550604 )  
               b(3) = (  1.688541  1.688541 -0.000000 )  


     PseudoPot. # 1 for Cl read from file:
     ./pseudo/cl_pbesol_v1.4.uspp.F.UPF
     MD5 check sum: ed6bbcf06f19043c0df9f6394706ff8f
     Pseudo is Ultrasoft + core correction, Zval =  7.0
     Generated by new atomic code, or converted to UPF format
     Using radial grid of  909 points,  6 beta functions with: 
                l(1) =   0
                l(2) =   0
                l(3) =   1
                l(4) =   1
                l(5) =   2
                l(6) =   2
     Q(r) pseudized with  8 coefficients,  rinner =    1.300   1.300   1.300
                                                       1.300   1.300

     PseudoPot. # 2 for Cr read from file:
     ./pseudo/cr_pbesol_v1.5.uspp.F.UPF
     MD5 check sum: a621641e0be27168676a837af8893d0f
     Pseudo is Ultrasoft + core correction, Zval = 14.0
     Generated by new atomic code, or converted to UPF format
     Using radial grid of  857 points,  6 beta functions with: 
                l(1) =   0
                l(2) =   0
                l(3) =   1
                l(4) =   1
                l(5) =   2
                l(6) =   2
     Q(r) pseudized with  8 coefficients,  rinner =    0.950   0.950   0.950
                                                       0.950   0.950

     PseudoPot. # 3 for Rb read from file:
     ./pseudo/Rb_ONCV_PBEsol-1.0.upf
     MD5 check sum: 84df3c5f64297d00eda9a2a6a50301db
     Pseudo is Norm-conserving, Zval =  9.0
     Generated using ONCVPSP code by D. R. Hamann
     Using radial grid of 2280 points,  6 beta functions with: 
                l(1) =   0
                l(2) =   0
                l(3) =   1
                l(4) =   1
                l(5) =   2
                l(6) =   2

     atomic species   valence    mass     pseudopotential
        Cl             7.00    35.45300     Cl( 1.00)
        Cr            14.00    51.99610     Cr( 1.00)
        Rb             9.00    85.46780     Rb( 1.00)

     Starting magnetic structure 
     atomic species   magnetization
        Cl           0.100
        Cr           0.357
        Rb           0.100

     16 Sym. Ops., with inversion, found


                                    s                        frac. trans.

      isym =  1     identity                                     

 cryst.   s( 1) = (     1          0          0      )
                  (     0          1          0      )
                  (     0          0          1      )

 cart.    s( 1) = (  1.0000000 -0.0000000 -0.0000000 )
                  ( -0.0000000  1.0000000  0.0000000 )
                  ( -0.0000000  0.0000000  1.0000000 )


      isym =  2     180 deg rotation - cart. axis [0,0,1]        

 cryst.   s( 2) = (     0          1          0      )
                  (     1          0          0      )
                  (    -1         -1         -1      )

 cart.    s( 2) = ( -1.0000000  0.0000000 -0.0000000 )
                  (  0.0000000 -1.0000000  0.0000000 )
                  ( -0.0000000 -0.0000000  1.0000000 )


      isym =  3     180 deg rotation - cart. axis [0,1,0]        

 cryst.   s( 3) = (     0          0          1      )
                  (    -1         -1         -1      )
                  (     1          0          0      )

 cart.    s( 3) = ( -1.0000000 -0.0000000  0.0000000 )
                  (  0.0000000  1.0000000 -0.0000000 )
                  ( -0.0000000  0.0000000 -1.0000000 )


      isym =  4     180 deg rotation - cart. axis [1,0,0]        

 cryst.   s( 4) = (    -1         -1         -1      )
                  (     0          0          1      )
                  (     0          1          0      )

 cart.    s( 4) = (  1.0000000  0.0000000  0.0000000 )
                  ( -0.0000000 -1.0000000 -0.0000000 )
                  (  0.0000000 -0.0000000 -1.0000000 )


      isym =  5     180 deg rotation - cart. axis [1,1,0]        

 cryst.   s( 5) = (    -1          0          0      )
                  (     0         -1          0      )
                  (     1          1          1      )

 cart.    s( 5) = ( -0.0000000  1.0000000  0.0000000 )
                  (  1.0000000 -0.0000000 -0.0000000 )
                  (  0.0000000  0.0000000 -1.0000000 )


      isym =  6     180 deg rotation - cart. axis [1,-1,0]       

 cryst.   s( 6) = (     0         -1          0      )
                  (    -1          0          0      )
                  (     0          0         -1      )

 cart.    s( 6) = (  0.0000000 -1.0000000  0.0000000 )
                  ( -1.0000000  0.0000000 -0.0000000 )
                  ( -0.0000000  0.0000000 -1.0000000 )


      isym =  7      90 deg rotation - cart. axis [0,0,-1]       

 cryst.   s( 7) = (     1          1          1      )
                  (     0          0         -1      )
                  (    -1          0          0      )

 cart.    s( 7) = (  0.0000000  1.0000000 -0.0000000 )
                  ( -1.0000000 -0.0000000  0.0000000 )
                  ( -0.0000000  0.0000000  1.0000000 )


      isym =  8      90 deg rotation - cart. axis [0,0,1]        

 cryst.   s( 8) = (     0          0         -1      )
                  (     1          1          1      )
                  (     0         -1          0      )

 cart.    s( 8) = ( -0.0000000 -1.0000000 -0.0000000 )
                  (  1.0000000  0.0000000  0.0000000 )
                  (  0.0000000 -0.0000000  1.0000000 )


      isym =  9     inversion                                    

 cryst.   s( 9) = (    -1          0          0      )
                  (     0         -1          0      )
                  (     0          0         -1      )

 cart.    s( 9) = ( -1.0000000  0.0000000  0.0000000 )
                  (  0.0000000 -1.0000000 -0.0000000 )
                  (  0.0000000 -0.0000000 -1.0000000 )


      isym = 10     inv. 180 deg rotation - cart. axis [0,0,1]   

 cryst.   s(10) = (     0         -1          0      )
                  (    -1          0          0      )
                  (     1          1          1      )

 cart.    s(10) = (  1.0000000 -0.0000000  0.0000000 )
                  ( -0.0000000  1.0000000 -0.0000000 )
                  (  0.0000000  0.0000000 -1.0000000 )


      isym = 11     inv. 180 deg rotation - cart. axis [0,1,0]   

 cryst.   s(11) = (     0          0         -1      )
                  (     1          1          1      )
                  (    -1          0          0      )

 cart.    s(11) = (  1.0000000  0.0000000 -0.0000000 )
                  ( -0.0000000 -1.0000000  0.0000000 )
                  (  0.0000000 -0.0000000  1.0000000 )


      isym = 12     inv. 180 deg rotation - cart. axis [1,0,0]   

 cryst.   s(12) = (     1          1          1      )
                  (     0          0         -1      )
                  (     0         -1          0      )

 cart.    s(12) = ( -1.0000000 -0.0000000 -0.0000000 )
                  (  0.0000000  1.0000000  0.0000000 )
                  ( -0.0000000  0.0000000  1.0000000 )


      isym = 13     inv. 180 deg rotation - cart. axis [1,1,0]   

 cryst.   s(13) = (     1          0          0      )
                  (     0          1          0      )
                  (    -1         -1         -1      )

 cart.    s(13) = (  0.0000000 -1.0000000 -0.0000000 )
                  ( -1.0000000  0.0000000  0.0000000 )
                  ( -0.0000000 -0.0000000  1.0000000 )


      isym = 14     inv. 180 deg rotation - cart. axis [1,-1,0]  

 cryst.   s(14) = (     0          1          0      )
                  (     1          0          0      )
                  (     0          0          1      )

 cart.    s(14) = ( -0.0000000  1.0000000 -0.0000000 )
                  (  1.0000000 -0.0000000  0.0000000 )
                  (  0.0000000 -0.0000000  1.0000000 )


      isym = 15     inv.  90 deg rotation - cart. axis [0,0,-1]  

 cryst.   s(15) = (    -1         -1         -1      )
                  (     0          0          1      )
                  (     1          0          0      )

 cart.    s(15) = ( -0.0000000 -1.0000000  0.0000000 )
                  (  1.0000000  0.0000000 -0.0000000 )
                  (  0.0000000 -0.0000000 -1.0000000 )


      isym = 16     inv.  90 deg rotation - cart. axis [0,0,1]   

 cryst.   s(16) = (     0          0          1      )
                  (    -1         -1         -1      )
                  (     0          1          0      )

 cart.    s(16) = (  0.0000000  1.0000000  0.0000000 )
                  ( -1.0000000 -0.0000000 -0.0000000 )
                  ( -0.0000000  0.0000000 -1.0000000 )


   Cartesian axes

     site n.     atom                  positions (alat units)
         1           Rb  tau(   1) = (   0.2961136   0.2961136   0.2506338  )
         2           Rb  tau(   2) = (   0.0000000  -0.0000000   0.6574595  )
         3           Cr  tau(   3) = (   0.0000000   0.0000000   0.0000000  )
         4           Cl  tau(   4) = (   0.0000000   0.2961136   0.6276741  )
         5           Cl  tau(   5) = (   0.2961136   0.0000000   0.6276741  )
         6           Cl  tau(   6) = (   0.2961136   0.0000000   0.2804192  )
         7           Cl  tau(   7) = (   0.0000000   0.2961136   0.2804192  )

   Crystallographic axes

     site n.     atom                  positions (cryst. coord.)
         1           Rb  tau(   1) = (  0.6380000  0.6380000  1.0000000  )
         2           Rb  tau(   2) = (  0.3620000  0.3620000 -0.0000000  )
         3           Cr  tau(   3) = (  0.0000000  0.0000000  0.0000000  )
         4           Cl  tau(   4) = (  0.8456000  0.3456000  0.5000000  )
         5           Cl  tau(   5) = (  0.3456000  0.8456000  0.5000000  )
         6           Cl  tau(   6) = (  0.1544000  0.6544000  0.5000000  )
         7           Cl  tau(   7) = (  0.6544000  0.1544000  0.5000000  )

     number of k points=   163  Marzari-Vanderbilt smearing, width (Ry)=  0.0100
                       cart. coord. in units 2pi/alat
        k(    1) = (   0.0000000   0.0000000   0.0000000), wk =   0.0005787
        k(    2) = (   0.1407118   0.1407118  -0.0000000), wk =   0.0023148
        k(    3) = (   0.2814235   0.2814235  -0.0000000), wk =   0.0023148
        k(    4) = (   0.4221353   0.4221353  -0.0000000), wk =   0.0023148
        k(    5) = (   0.5628470   0.5628470  -0.0000000), wk =   0.0023148
        k(    6) = (   0.7035588   0.7035588  -0.0000000), wk =   0.0023148
        k(    7) = (  -0.8442705  -0.8442705   0.0000000), wk =   0.0011574
        k(    8) = (   0.1407118  -0.0000000   0.0458837), wk =   0.0046296
        k(    9) = (   0.2814235   0.1407118   0.0458837), wk =   0.0092593
        k(   10) = (   0.4221353   0.2814235   0.0458837), wk =   0.0092593
        k(   11) = (   0.5628470   0.4221353   0.0458837), wk =   0.0092593
        k(   12) = (   0.7035588   0.5628470   0.0458837), wk =   0.0092593
        k(   13) = (   0.8442705   0.7035588   0.0458837), wk =   0.0092593
        k(   14) = (   0.2814235  -0.0000000   0.0917674), wk =   0.0046296
        k(   15) = (   0.4221353   0.1407118   0.0917674), wk =   0.0092593
        k(   16) = (   0.5628470   0.2814235   0.0917674), wk =   0.0092593
        k(   17) = (   0.7035588   0.4221353   0.0917674), wk =   0.0092593
        k(   18) = (   0.8442705   0.5628470   0.0917674), wk =   0.0092593
        k(   19) = (   0.9849823   0.7035588   0.0917674), wk =   0.0046296
        k(   20) = (   0.1407118  -0.1407118   0.0917674), wk =   0.0046296
        k(   21) = (   0.4221353  -0.0000000   0.1376511), wk =   0.0046296
        k(   22) = (   0.5628470   0.1407118   0.1376511), wk =   0.0092593
        k(   23) = (   0.7035588   0.2814235   0.1376511), wk =   0.0092593
        k(   24) = (   0.8442705   0.4221353   0.1376511), wk =   0.0092593
        k(   25) = (   0.9849823   0.5628470   0.1376511), wk =   0.0092593
        k(   26) = (   0.1407118  -0.2814235   0.1376511), wk =   0.0092593
        k(   27) = (   0.5628470  -0.0000000   0.1835347), wk =   0.0046296
        k(   28) = (   0.7035588   0.1407118   0.1835347), wk =   0.0092593
        k(   29) = (   0.8442705   0.2814235   0.1835347), wk =   0.0092593
        k(   30) = (   0.9849823   0.4221353   0.1835347), wk =   0.0092593
        k(   31) = (   1.1256940   0.5628470   0.1835347), wk =   0.0046296
        k(   32) = (   0.1407118  -0.4221353   0.1835347), wk =   0.0092593
        k(   33) = (   0.2814235  -0.2814235   0.1835347), wk =   0.0046296
        k(   34) = (   0.7035588  -0.0000000   0.2294184), wk =   0.0046296
        k(   35) = (   0.8442705   0.1407118   0.2294184), wk =   0.0092593
        k(   36) = (   0.9849823   0.2814235   0.2294184), wk =   0.0092593
        k(   37) = (   1.1256940   0.4221353   0.2294184), wk =   0.0092593
        k(   38) = (   0.1407118  -0.5628470   0.2294184), wk =   0.0092593
        k(   39) = (   0.2814235  -0.4221353   0.2294184), wk =   0.0092593
        k(   40) = (  -0.8442705   0.0000000  -0.2753021), wk =   0.0023148
        k(   41) = (  -0.7035588   0.1407118  -0.2753021), wk =   0.0092593
        k(   42) = (  -0.5628470   0.2814235  -0.2753021), wk =   0.0092593
        k(   43) = (  -0.4221353   0.4221353  -0.2753021), wk =   0.0046296
        k(   44) = (   0.2814235   0.2814235   0.0917674), wk =   0.0046296
        k(   45) = (   0.4221353   0.4221353   0.0917674), wk =   0.0046296
        k(   46) = (   0.5628470   0.5628470   0.0917674), wk =   0.0046296
        k(   47) = (   0.7035588   0.7035588   0.0917674), wk =   0.0046296
        k(   48) = (   0.8442705   0.8442705   0.0917674), wk =   0.0023148
        k(   49) = (  -0.0000000  -0.0000000   0.0917674), wk =   0.0011574
        k(   50) = (   0.4221353   0.2814235   0.1376511), wk =   0.0092593
        k(   51) = (   0.5628470   0.4221353   0.1376511), wk =   0.0092593
        k(   52) = (   0.7035588   0.5628470   0.1376511), wk =   0.0092593
        k(   53) = (   0.8442705   0.7035588   0.1376511), wk =   0.0092593
        k(   54) = (   0.0000000  -0.1407118   0.1376511), wk =   0.0046296
        k(   55) = (   0.5628470   0.2814235   0.1835347), wk =   0.0092593
        k(   56) = (   0.7035588   0.4221353   0.1835347), wk =   0.0092593
        k(   57) = (   0.8442705   0.5628470   0.1835347), wk =   0.0092593
        k(   58) = (   0.9849823   0.7035588   0.1835347), wk =   0.0046296
        k(   59) = (   0.0000000  -0.2814235   0.1835347), wk =   0.0046296
        k(   60) = (   0.1407118  -0.1407118   0.1835347), wk =   0.0046296
        k(   61) = (   0.7035588   0.2814235   0.2294184), wk =   0.0092593
        k(   62) = (   0.8442705   0.4221353   0.2294184), wk =   0.0092593
        k(   63) = (   0.9849823   0.5628470   0.2294184), wk =   0.0092593
        k(   64) = (  -0.0000000  -0.4221353   0.2294184), wk =   0.0046296
        k(   65) = (   0.1407118  -0.2814235   0.2294184), wk =   0.0092593
        k(   66) = (   0.8442705   0.2814235   0.2753021), wk =   0.0046296
        k(   67) = (   0.9849823   0.4221353   0.2753021), wk =   0.0092593
        k(   68) = (   1.1256940   0.5628470   0.2753021), wk =   0.0046296
        k(   69) = (   0.0000000  -0.5628470   0.2753021), wk =   0.0046296
        k(   70) = (   0.1407118  -0.4221353   0.2753021), wk =   0.0092593
        k(   71) = (   0.2814235  -0.2814235   0.2753021), wk =   0.0046296
        k(   72) = (  -0.5628470   0.4221353  -0.2294184), wk =   0.0092593
        k(   73) = (  -1.6885410  -0.7035588  -0.2294184), wk =   0.0046296
        k(   74) = (  -1.5478293  -0.5628470  -0.2294184), wk =   0.0092593
        k(   75) = (  -1.4071175  -0.4221353  -0.2294184), wk =   0.0092593
        k(   76) = (  -0.4221353   0.4221353  -0.1835347), wk =   0.0046296
        k(   77) = (   0.0000000   0.8442705  -0.1835347), wk =   0.0046296
        k(   78) = (  -1.5478293  -0.7035588  -0.1835347), wk =   0.0092593
        k(   79) = (  -1.4071175  -0.5628470  -0.1835347), wk =   0.0092593
        k(   80) = (  -1.2664058  -0.4221353  -0.1835347), wk =   0.0046296
        k(   81) = (  -0.0000000   0.7035588  -0.1376511), wk =   0.0046296
        k(   82) = (   0.1407118   0.8442705  -0.1376511), wk =   0.0092593
        k(   83) = (  -1.4071175  -0.7035588  -0.1376511), wk =   0.0092593
        k(   84) = (  -1.2664058  -0.5628470  -0.1376511), wk =   0.0092593
        k(   85) = (   0.0000000   0.5628470  -0.0917674), wk =   0.0046296
        k(   86) = (   0.1407118   0.7035588  -0.0917674), wk =   0.0092593
        k(   87) = (   0.2814235   0.8442705  -0.0917674), wk =   0.0092593
        k(   88) = (  -1.2664058  -0.7035588  -0.0917674), wk =   0.0092593
        k(   89) = (  -1.1256940  -0.5628470  -0.0917674), wk =   0.0046296
        k(   90) = (   0.0000000   0.4221353  -0.0458837), wk =   0.0046296
        k(   91) = (   0.1407118   0.5628470  -0.0458837), wk =   0.0092593
        k(   92) = (   0.2814235   0.7035588  -0.0458837), wk =   0.0092593
        k(   93) = (   0.4221353   0.8442705  -0.0458837), wk =   0.0092593
        k(   94) = (  -1.1256940  -0.7035588  -0.0458837), wk =   0.0092593
        k(   95) = (  -0.0000000   0.2814235  -0.0000000), wk =   0.0023148
        k(   96) = (   0.1407118   0.4221353  -0.0000000), wk =   0.0046296
        k(   97) = (   0.2814235   0.5628470  -0.0000000), wk =   0.0046296
        k(   98) = (   0.4221353   0.7035588  -0.0000000), wk =   0.0046296
        k(   99) = (   0.5628470   0.8442705  -0.0000000), wk =   0.0046296
        k(  100) = (  -0.9849823  -0.7035588  -0.0000000), wk =   0.0023148
        k(  101) = (   0.5628470   0.5628470   0.1835347), wk =   0.0046296
        k(  102) = (   0.7035588   0.7035588   0.1835347), wk =   0.0046296
        k(  103) = (   0.8442705   0.8442705   0.1835347), wk =   0.0023148
        k(  104) = (   0.0000000   0.0000000   0.1835347), wk =   0.0011574
        k(  105) = (   0.7035588   0.5628470   0.2294184), wk =   0.0092593
        k(  106) = (   0.8442705   0.7035588   0.2294184), wk =   0.0092593
        k(  107) = (   0.0000000  -0.1407118   0.2294184), wk =   0.0046296
        k(  108) = (   0.8442705   0.5628470   0.2753021), wk =   0.0046296
        k(  109) = (   0.9849823   0.7035588   0.2753021), wk =   0.0046296
        k(  110) = (  -0.0000000  -0.2814235   0.2753021), wk =   0.0046296
        k(  111) = (   0.1407118  -0.1407118   0.2753021), wk =   0.0046296
        k(  112) = (   0.0000000  -0.4221353   0.3211858), wk =   0.0046296
        k(  113) = (   0.1407118  -0.2814235   0.3211858), wk =   0.0092593
        k(  114) = (  -1.6885410  -0.5628470  -0.1835347), wk =   0.0046296
        k(  115) = (  -1.5478293  -0.4221353  -0.1835347), wk =   0.0092593
        k(  116) = (  -1.4071175  -0.2814235  -0.1835347), wk =   0.0046296
        k(  117) = (   0.0000000   0.9849823  -0.1376511), wk =   0.0046296
        k(  118) = (  -1.5478293  -0.5628470  -0.1376511), wk =   0.0092593
        k(  119) = (  -1.4071175  -0.4221353  -0.1376511), wk =   0.0092593
        k(  120) = (  -0.0000000   0.8442705  -0.0917674), wk =   0.0046296
        k(  121) = (   0.1407118   0.9849823  -0.0917674), wk =   0.0092593
        k(  122) = (  -1.4071175  -0.5628470  -0.0917674), wk =   0.0092593
        k(  123) = (  -1.2664058  -0.4221353  -0.0917674), wk =   0.0046296
        k(  124) = (   0.0000000   0.7035588  -0.0458837), wk =   0.0046296
        k(  125) = (   0.1407118   0.8442705  -0.0458837), wk =   0.0092593
        k(  126) = (   0.2814235   0.9849823  -0.0458837), wk =   0.0092593
        k(  127) = (  -1.2664058  -0.5628470  -0.0458837), wk =   0.0092593
        k(  128) = (   0.0000000   0.5628470   0.0000000), wk =   0.0023148
        k(  129) = (   0.1407118   0.7035588   0.0000000), wk =   0.0046296
        k(  130) = (   0.2814235   0.8442705   0.0000000), wk =   0.0046296
        k(  131) = (   0.4221353   0.9849823   0.0000000), wk =   0.0046296
        k(  132) = (  -1.1256940  -0.5628470   0.0000000), wk =   0.0023148
        k(  133) = (   0.8442705   0.8442705   0.2753021), wk =   0.0011574
        k(  134) = (   0.0000000   0.0000000   0.2753021), wk =   0.0011574
        k(  135) = (  -0.0000000  -0.1407118   0.3211858), wk =   0.0046296
        k(  136) = (   0.0000000  -0.2814235   0.3670695), wk =   0.0046296
        k(  137) = (   0.1407118  -0.1407118   0.3670695), wk =   0.0046296
        k(  138) = (  -1.6885410  -0.4221353  -0.1376511), wk =   0.0046296
        k(  139) = (  -1.5478293  -0.2814235  -0.1376511), wk =   0.0092593
        k(  140) = (   0.0000000   1.1256940  -0.0917674), wk =   0.0046296
        k(  141) = (  -1.5478293  -0.4221353  -0.0917674), wk =   0.0092593
        k(  142) = (  -1.4071175  -0.2814235  -0.0917674), wk =   0.0046296
        k(  143) = (  -0.0000000   0.9849823  -0.0458837), wk =   0.0046296
        k(  144) = (   0.1407118   1.1256940  -0.0458837), wk =   0.0092593
        k(  145) = (  -1.4071175  -0.4221353  -0.0458837), wk =   0.0092593
        k(  146) = (   0.0000000   0.8442705  -0.0000000), wk =   0.0023148
        k(  147) = (   0.1407118   0.9849823  -0.0000000), wk =   0.0046296
        k(  148) = (   0.2814235   1.1256940  -0.0000000), wk =   0.0046296
        k(  149) = (  -1.2664058  -0.4221353   0.0000000), wk =   0.0023148
        k(  150) = (  -0.0000000  -0.0000000   0.3670695), wk =   0.0011574
        k(  151) = (   0.0000000  -0.1407118   0.4129532), wk =   0.0046296
        k(  152) = (  -1.6885410  -0.2814235  -0.0917674), wk =   0.0046296
        k(  153) = (  -1.5478293  -0.1407118  -0.0917674), wk =   0.0046296
        k(  154) = (   0.0000000   1.2664058  -0.0458837), wk =   0.0046296
        k(  155) = (  -1.5478293  -0.2814235  -0.0458837), wk =   0.0092593
        k(  156) = (  -0.0000000   1.1256940  -0.0000000), wk =   0.0023148
        k(  157) = (   0.1407118   1.2664058  -0.0000000), wk =   0.0046296
        k(  158) = (  -1.4071175  -0.2814235  -0.0000000), wk =   0.0023148
        k(  159) = (   0.0000000   0.0000000   0.4588368), wk =   0.0011574
        k(  160) = (  -1.6885410  -0.1407118  -0.0458837), wk =   0.0046296
        k(  161) = (   0.0000000   1.4071175   0.0000000), wk =   0.0023148
        k(  162) = (  -1.5478293  -0.1407118   0.0000000), wk =   0.0023148
        k(  163) = (  -1.6885410  -1.6885410  -0.5506042), wk =   0.0005787

                       cryst. coord.
        k(    1) = (   0.0000000   0.0000000   0.0000000), wk =   0.0005787
        k(    2) = (   0.0000000  -0.0000000   0.0833333), wk =   0.0023148
        k(    3) = (   0.0000000  -0.0000000   0.1666667), wk =   0.0023148
        k(    4) = (  -0.0000000   0.0000000   0.2500000), wk =   0.0023148
        k(    5) = (   0.0000000  -0.0000000   0.3333333), wk =   0.0023148
        k(    6) = (  -0.0000000   0.0000000   0.4166667), wk =   0.0023148
        k(    7) = (   0.0000000  -0.0000000  -0.5000000), wk =   0.0011574
        k(    8) = (  -0.0000000   0.0833333   0.0000000), wk =   0.0046296
        k(    9) = (  -0.0000000   0.0833333   0.0833333), wk =   0.0092593
        k(   10) = (  -0.0000000   0.0833333   0.1666667), wk =   0.0092593
        k(   11) = (   0.0000000   0.0833333   0.2500000), wk =   0.0092593
        k(   12) = (   0.0000000   0.0833333   0.3333333), wk =   0.0092593
        k(   13) = (  -0.0000000   0.0833333   0.4166667), wk =   0.0092593
        k(   14) = (  -0.0000000   0.1666667   0.0000000), wk =   0.0046296
        k(   15) = (  -0.0000000   0.1666667   0.0833333), wk =   0.0092593
        k(   16) = (  -0.0000000   0.1666667   0.1666667), wk =   0.0092593
        k(   17) = (   0.0000000   0.1666667   0.2500000), wk =   0.0092593
        k(   18) = (  -0.0000000   0.1666667   0.3333333), wk =   0.0092593
        k(   19) = (   0.0000000   0.1666667   0.4166667), wk =   0.0046296
        k(   20) = (  -0.0000000   0.1666667  -0.0833333), wk =   0.0046296
        k(   21) = (  -0.0000000   0.2500000   0.0000000), wk =   0.0046296
        k(   22) = (  -0.0000000   0.2500000   0.0833333), wk =   0.0092593
        k(   23) = (  -0.0000000   0.2500000   0.1666667), wk =   0.0092593
        k(   24) = (  -0.0000000   0.2500000   0.2500000), wk =   0.0092593
        k(   25) = (  -0.0000000   0.2500000   0.3333333), wk =   0.0092593
        k(   26) = (  -0.0000000   0.2500000  -0.1666667), wk =   0.0092593
        k(   27) = (  -0.0000000   0.3333333   0.0000000), wk =   0.0046296
        k(   28) = (  -0.0000000   0.3333333   0.0833333), wk =   0.0092593
        k(   29) = (  -0.0000000   0.3333333   0.1666667), wk =   0.0092593
        k(   30) = (  -0.0000000   0.3333333   0.2500000), wk =   0.0092593
        k(   31) = (  -0.0000000   0.3333333   0.3333333), wk =   0.0046296
        k(   32) = (  -0.0000000   0.3333333  -0.2500000), wk =   0.0092593
        k(   33) = (  -0.0000000   0.3333333  -0.1666667), wk =   0.0046296
        k(   34) = (  -0.0000000   0.4166667   0.0000000), wk =   0.0046296
        k(   35) = (  -0.0000000   0.4166667   0.0833333), wk =   0.0092593
        k(   36) = (   0.0000000   0.4166667   0.1666667), wk =   0.0092593
        k(   37) = (  -0.0000000   0.4166667   0.2500000), wk =   0.0092593
        k(   38) = (   0.0000000   0.4166667  -0.3333333), wk =   0.0092593
        k(   39) = (  -0.0000000   0.4166667  -0.2500000), wk =   0.0092593
        k(   40) = (   0.0000000  -0.5000000  -0.0000000), wk =   0.0023148
        k(   41) = (   0.0000000  -0.5000000   0.0833333), wk =   0.0092593
        k(   42) = (   0.0000000  -0.5000000   0.1666667), wk =   0.0092593
        k(   43) = (   0.0000000  -0.5000000   0.2500000), wk =   0.0046296
        k(   44) = (   0.0833333   0.0833333   0.0833333), wk =   0.0046296
        k(   45) = (   0.0833333   0.0833333   0.1666667), wk =   0.0046296
        k(   46) = (   0.0833333   0.0833333   0.2500000), wk =   0.0046296
        k(   47) = (   0.0833333   0.0833333   0.3333333), wk =   0.0046296
        k(   48) = (   0.0833333   0.0833333   0.4166667), wk =   0.0023148
        k(   49) = (   0.0833333   0.0833333  -0.0833333), wk =   0.0011574
        k(   50) = (   0.0833333   0.1666667   0.0833333), wk =   0.0092593
        k(   51) = (   0.0833333   0.1666667   0.1666667), wk =   0.0092593
        k(   52) = (   0.0833333   0.1666667   0.2500000), wk =   0.0092593
        k(   53) = (   0.0833333   0.1666667   0.3333333), wk =   0.0092593
        k(   54) = (   0.0833333   0.1666667  -0.1666667), wk =   0.0046296
        k(   55) = (   0.0833333   0.2500000   0.0833333), wk =   0.0092593
        k(   56) = (   0.0833333   0.2500000   0.1666667), wk =   0.0092593
        k(   57) = (   0.0833333   0.2500000   0.2500000), wk =   0.0092593
        k(   58) = (   0.0833333   0.2500000   0.3333333), wk =   0.0046296
        k(   59) = (   0.0833333   0.2500000  -0.2500000), wk =   0.0046296
        k(   60) = (   0.0833333   0.2500000  -0.1666667), wk =   0.0046296
        k(   61) = (   0.0833333   0.3333333   0.0833333), wk =   0.0092593
        k(   62) = (   0.0833333   0.3333333   0.1666667), wk =   0.0092593
        k(   63) = (   0.0833333   0.3333333   0.2500000), wk =   0.0092593
        k(   64) = (   0.0833333   0.3333333  -0.3333333), wk =   0.0046296
        k(   65) = (   0.0833333   0.3333333  -0.2500000), wk =   0.0092593
        k(   66) = (   0.0833333   0.4166667   0.0833333), wk =   0.0046296
        k(   67) = (   0.0833333   0.4166667   0.1666667), wk =   0.0092593
        k(   68) = (   0.0833333   0.4166667   0.2500000), wk =   0.0046296
        k(   69) = (   0.0833333   0.4166667  -0.4166667), wk =   0.0046296
        k(   70) = (   0.0833333   0.4166667  -0.3333333), wk =   0.0092593
        k(   71) = (   0.0833333   0.4166667  -0.2500000), wk =   0.0046296
        k(   72) = (   0.0833333  -0.5000000   0.1666667), wk =   0.0092593
        k(   73) = (   0.0833333  -0.5000000  -0.5000000), wk =   0.0046296
        k(   74) = (   0.0833333  -0.5000000  -0.4166667), wk =   0.0092593
        k(   75) = (   0.0833333  -0.5000000  -0.3333333), wk =   0.0092593
        k(   76) = (   0.0833333  -0.4166667   0.1666667), wk =   0.0046296
        k(   77) = (   0.0833333  -0.4166667   0.4166667), wk =   0.0046296
        k(   78) = (   0.0833333  -0.4166667  -0.5000000), wk =   0.0092593
        k(   79) = (   0.0833333  -0.4166667  -0.4166667), wk =   0.0092593
        k(   80) = (   0.0833333  -0.4166667  -0.3333333), wk =   0.0046296
        k(   81) = (   0.0833333  -0.3333333   0.3333333), wk =   0.0046296
        k(   82) = (   0.0833333  -0.3333333   0.4166667), wk =   0.0092593
        k(   83) = (   0.0833333  -0.3333333  -0.5000000), wk =   0.0092593
        k(   84) = (   0.0833333  -0.3333333  -0.4166667), wk =   0.0092593
        k(   85) = (   0.0833333  -0.2500000   0.2500000), wk =   0.0046296
        k(   86) = (   0.0833333  -0.2500000   0.3333333), wk =   0.0092593
        k(   87) = (   0.0833333  -0.2500000   0.4166667), wk =   0.0092593
        k(   88) = (   0.0833333  -0.2500000  -0.5000000), wk =   0.0092593
        k(   89) = (   0.0833333  -0.2500000  -0.4166667), wk =   0.0046296
        k(   90) = (   0.0833333  -0.1666667   0.1666667), wk =   0.0046296
        k(   91) = (   0.0833333  -0.1666667   0.2500000), wk =   0.0092593
        k(   92) = (   0.0833333  -0.1666667   0.3333333), wk =   0.0092593
        k(   93) = (   0.0833333  -0.1666667   0.4166667), wk =   0.0092593
        k(   94) = (   0.0833333  -0.1666667  -0.5000000), wk =   0.0092593
        k(   95) = (   0.0833333  -0.0833333   0.0833333), wk =   0.0023148
        k(   96) = (   0.0833333  -0.0833333   0.1666667), wk =   0.0046296
        k(   97) = (   0.0833333  -0.0833333   0.2500000), wk =   0.0046296
        k(   98) = (   0.0833333  -0.0833333   0.3333333), wk =   0.0046296
        k(   99) = (   0.0833333  -0.0833333   0.4166667), wk =   0.0046296
        k(  100) = (   0.0833333  -0.0833333  -0.5000000), wk =   0.0023148
        k(  101) = (   0.1666667   0.1666667   0.1666667), wk =   0.0046296
        k(  102) = (   0.1666667   0.1666667   0.2500000), wk =   0.0046296
        k(  103) = (   0.1666667   0.1666667   0.3333333), wk =   0.0023148
        k(  104) = (   0.1666667   0.1666667  -0.1666667), wk =   0.0011574
        k(  105) = (   0.1666667   0.2500000   0.1666667), wk =   0.0092593
        k(  106) = (   0.1666667   0.2500000   0.2500000), wk =   0.0092593
        k(  107) = (   0.1666667   0.2500000  -0.2500000), wk =   0.0046296
        k(  108) = (   0.1666667   0.3333333   0.1666667), wk =   0.0046296
        k(  109) = (   0.1666667   0.3333333   0.2500000), wk =   0.0046296
        k(  110) = (   0.1666667   0.3333333  -0.3333333), wk =   0.0046296
        k(  111) = (   0.1666667   0.3333333  -0.2500000), wk =   0.0046296
        k(  112) = (   0.1666667   0.4166667  -0.4166667), wk =   0.0046296
        k(  113) = (   0.1666667   0.4166667  -0.3333333), wk =   0.0092593
        k(  114) = (   0.1666667  -0.5000000  -0.5000000), wk =   0.0046296
        k(  115) = (   0.1666667  -0.5000000  -0.4166667), wk =   0.0092593
        k(  116) = (   0.1666667  -0.5000000  -0.3333333), wk =   0.0046296
        k(  117) = (   0.1666667  -0.4166667   0.4166667), wk =   0.0046296
        k(  118) = (   0.1666667  -0.4166667  -0.5000000), wk =   0.0092593
        k(  119) = (   0.1666667  -0.4166667  -0.4166667), wk =   0.0092593
        k(  120) = (   0.1666667  -0.3333333   0.3333333), wk =   0.0046296
        k(  121) = (   0.1666667  -0.3333333   0.4166667), wk =   0.0092593
        k(  122) = (   0.1666667  -0.3333333  -0.5000000), wk =   0.0092593
        k(  123) = (   0.1666667  -0.3333333  -0.4166667), wk =   0.0046296
        k(  124) = (   0.1666667  -0.2500000   0.2500000), wk =   0.0046296
        k(  125) = (   0.1666667  -0.2500000   0.3333333), wk =   0.0092593
        k(  126) = (   0.1666667  -0.2500000   0.4166667), wk =   0.0092593
        k(  127) = (   0.1666667  -0.2500000  -0.5000000), wk =   0.0092593
        k(  128) = (   0.1666667  -0.1666667   0.1666667), wk =   0.0023148
        k(  129) = (   0.1666667  -0.1666667   0.2500000), wk =   0.0046296
        k(  130) = (   0.1666667  -0.1666667   0.3333333), wk =   0.0046296
        k(  131) = (   0.1666667  -0.1666667   0.4166667), wk =   0.0046296
        k(  132) = (   0.1666667  -0.1666667  -0.5000000), wk =   0.0023148
        k(  133) = (   0.2500000   0.2500000   0.2500000), wk =   0.0011574
        k(  134) = (   0.2500000   0.2500000  -0.2500000), wk =   0.0011574
        k(  135) = (   0.2500000   0.3333333  -0.3333333), wk =   0.0046296
        k(  136) = (   0.2500000   0.4166667  -0.4166667), wk =   0.0046296
        k(  137) = (   0.2500000   0.4166667  -0.3333333), wk =   0.0046296
        k(  138) = (   0.2500000  -0.5000000  -0.5000000), wk =   0.0046296
        k(  139) = (   0.2500000  -0.5000000  -0.4166667), wk =   0.0092593
        k(  140) = (   0.2500000  -0.4166667   0.4166667), wk =   0.0046296
        k(  141) = (   0.2500000  -0.4166667  -0.5000000), wk =   0.0092593
        k(  142) = (   0.2500000  -0.4166667  -0.4166667), wk =   0.0046296
        k(  143) = (   0.2500000  -0.3333333   0.3333333), wk =   0.0046296
        k(  144) = (   0.2500000  -0.3333333   0.4166667), wk =   0.0092593
        k(  145) = (   0.2500000  -0.3333333  -0.5000000), wk =   0.0092593
        k(  146) = (   0.2500000  -0.2500000   0.2500000), wk =   0.0023148
        k(  147) = (   0.2500000  -0.2500000   0.3333333), wk =   0.0046296
        k(  148) = (   0.2500000  -0.2500000   0.4166667), wk =   0.0046296
        k(  149) = (   0.2500000  -0.2500000  -0.5000000), wk =   0.0023148
        k(  150) = (   0.3333333   0.3333333  -0.3333333), wk =   0.0011574
        k(  151) = (   0.3333333   0.4166667  -0.4166667), wk =   0.0046296
        k(  152) = (   0.3333333  -0.5000000  -0.5000000), wk =   0.0046296
        k(  153) = (   0.3333333  -0.5000000  -0.4166667), wk =   0.0046296
        k(  154) = (   0.3333333  -0.4166667   0.4166667), wk =   0.0046296
        k(  155) = (   0.3333333  -0.4166667  -0.5000000), wk =   0.0092593
        k(  156) = (   0.3333333  -0.3333333   0.3333333), wk =   0.0023148
        k(  157) = (   0.3333333  -0.3333333   0.4166667), wk =   0.0046296
        k(  158) = (   0.3333333  -0.3333333  -0.5000000), wk =   0.0023148
        k(  159) = (   0.4166667   0.4166667  -0.4166667), wk =   0.0011574
        k(  160) = (   0.4166667  -0.5000000  -0.5000000), wk =   0.0046296
        k(  161) = (   0.4166667  -0.4166667   0.4166667), wk =   0.0023148
        k(  162) = (   0.4166667  -0.4166667  -0.5000000), wk =   0.0023148
        k(  163) = (  -0.5000000  -0.5000000  -0.5000000), wk =   0.0005787

     Dense  grid:   136037 G-vectors     FFT dimensions: (  96,  96,  96)

     Smooth grid:    48083 G-vectors     FFT dimensions: (  72,  72,  72)

     Dynamical RAM for                 wfc:       3.30 MB

     Dynamical RAM for     wfc (w. buffer):    1079.56 MB

     Dynamical RAM for           str. fact:       6.23 MB

     Dynamical RAM for           local pot:       0.00 MB

     Dynamical RAM for          nlocal pot:      11.55 MB

     Dynamical RAM for                qrad:       4.31 MB

     Dynamical RAM for          rho,v,vnew:      52.95 MB

     Dynamical RAM for               rhoin:      17.65 MB

     Dynamical RAM for            rho*nmix:      66.42 MB

     Dynamical RAM for           G-vectors:       8.15 MB

     Dynamical RAM for          h,s,v(r/c):       0.24 MB

     Dynamical RAM for          <psi|beta>:       0.07 MB

     Dynamical RAM for                 psi:       6.60 MB

     Dynamical RAM for                hpsi:       6.60 MB

     Dynamical RAM for                spsi:       6.60 MB

     Dynamical RAM for      wfcinit/wfcrot:       6.63 MB

     Dynamical RAM for           addusdens:     396.47 MB

     Dynamical RAM for          addusforce:     408.96 MB

     Dynamical RAM for         addusstress:     420.34 MB

     Estimated static dynamical RAM per process >       1.20 GB

     Estimated max dynamical RAM per process >       1.68 GB

     Atomic positions and unit cell read from directory:
     ./out/aiida.save/
 

     Check: negative core charge=   -0.000001
     Generating pointlists ...
     new r_m :   0.1228 (alat units)  2.0142 (a.u.) for type    1
     new r_m :   0.1682 (alat units)  2.7602 (a.u.) for type    2
     new r_m :   0.1228 (alat units)  2.0142 (a.u.) for type    3

     The initial density is read from file :
     ./out/aiida.save/charge-density


     negative rho (up, down):  3.065E-02 3.463E-02
     Starting wfcs from file

     total cpu time spent up to now is        4.2 secs

     per-process dynamical memory:   504.6 Mb

     Self-consistent Calculation
[tb_dev] Currently allocated     5.34E-05 Mbytes, locked:    0 /   2
[tb_pin] Currently allocated     0.00E+00 Mbytes, locked:    0 /   0

     iteration #  1     ecut=    40.00 Ry     beta= 0.10
     Davidson diagonalization with overlap

---- Real-time Memory Report at c_bands before calling an iterative solver
           645 MiB given to the printing process from OS
           508 MiB allocation reported by mallinfo(arena+hblkhd)
         39655 MiB available memory on the node where the printing process lives
     GPU memory used/free/total (MiB): 898 / 15382 / 16280
------------------
     ethr =  1.00E-05,  avg # of iterations =  2.0

     negative rho (up, down):  3.062E-02 3.464E-02

     total cpu time spent up to now is       20.3 secs

     total energy              =    -406.04208242 Ry
     estimated scf accuracy    <       0.01181443 Ry

     total magnetization       =     5.62 Bohr mag/cell
     absolute magnetization    =     5.74 Bohr mag/cell
[tb_dev] Currently allocated     2.53E+00 Mbytes, locked:    0 /   8
[tb_pin] Currently allocated     0.00E+00 Mbytes, locked:    0 /   0

     iteration #  2     ecut=    40.00 Ry     beta= 0.10
     Davidson diagonalization with overlap

---- Real-time Memory Report at c_bands before calling an iterative solver
          2131 MiB given to the printing process from OS
          1914 MiB allocation reported by mallinfo(arena+hblkhd)
         36630 MiB available memory on the node where the printing process lives
     GPU memory used/free/total (MiB): 2392 / 13888 / 16280
------------------
     ethr =  1.97E-05,  avg # of iterations =  1.5

     negative rho (up, down):  3.061E-02 3.466E-02

     total cpu time spent up to now is       33.3 secs

     total energy              =    -406.04195698 Ry
     estimated scf accuracy    <       0.08264576 Ry

     total magnetization       =     4.60 Bohr mag/cell
     absolute magnetization    =     4.86 Bohr mag/cell
[tb_dev] Currently allocated     2.53E+00 Mbytes, locked:    0 /   8
[tb_pin] Currently allocated     0.00E+00 Mbytes, locked:    0 /   0

     iteration #  3     ecut=    40.00 Ry     beta= 0.10
     Davidson diagonalization with overlap

---- Real-time Memory Report at c_bands before calling an iterative solver
          2134 MiB given to the printing process from OS
          1917 MiB allocation reported by mallinfo(arena+hblkhd)
         36629 MiB available memory on the node where the printing process lives
     GPU memory used/free/total (MiB): 2392 / 13888 / 16280
------------------
     ethr =  1.97E-05,  avg # of iterations =  1.0

     negative rho (up, down):  3.050E-02 3.478E-02

     total cpu time spent up to now is       45.7 secs

     total energy              =    -406.04483828 Ry
     estimated scf accuracy    <       0.00044356 Ry

     total magnetization       =     5.34 Bohr mag/cell
     absolute magnetization    =     5.49 Bohr mag/cell
[tb_dev] Currently allocated     2.53E+00 Mbytes, locked:    0 /   8
[tb_pin] Currently allocated     0.00E+00 Mbytes, locked:    0 /   0

     iteration #  4     ecut=    40.00 Ry     beta= 0.10
     Davidson diagonalization with overlap

---- Real-time Memory Report at c_bands before calling an iterative solver
          2137 MiB given to the printing process from OS
          1920 MiB allocation reported by mallinfo(arena+hblkhd)
         36626 MiB available memory on the node where the printing process lives
     GPU memory used/free/total (MiB): 2392 / 13888 / 16280
------------------
     ethr =  7.39E-07,  avg # of iterations =  2.0

     negative rho (up, down):  3.041E-02 3.487E-02

     total cpu time spent up to now is       60.3 secs

     total energy              =    -406.04512446 Ry
     estimated scf accuracy    <       0.00963906 Ry

     total magnetization       =     5.06 Bohr mag/cell
     absolute magnetization    =     5.24 Bohr mag/cell
[tb_dev] Currently allocated     2.53E+00 Mbytes, locked:    0 /   8
[tb_pin] Currently allocated     0.00E+00 Mbytes, locked:    0 /   0

     iteration #  5     ecut=    40.00 Ry     beta= 0.10
     Davidson diagonalization with overlap

---- Real-time Memory Report at c_bands before calling an iterative solver
          2140 MiB given to the printing process from OS
          1923 MiB allocation reported by mallinfo(arena+hblkhd)
         36624 MiB available memory on the node where the printing process lives
     GPU memory used/free/total (MiB): 2392 / 13888 / 16280
------------------
     ethr =  7.39E-07,  avg # of iterations =  2.1

     negative rho (up, down):  3.029E-02 3.499E-02

     total cpu time spent up to now is       75.2 secs

     total energy              =    -406.04535366 Ry
     estimated scf accuracy    <       0.00040360 Ry

     total magnetization       =     5.20 Bohr mag/cell
     absolute magnetization    =     5.36 Bohr mag/cell
[tb_dev] Currently allocated     2.53E+00 Mbytes, locked:    0 /   8
[tb_pin] Currently allocated     0.00E+00 Mbytes, locked:    0 /   0

     iteration #  6     ecut=    40.00 Ry     beta= 0.10
     Davidson diagonalization with overlap

---- Real-time Memory Report at c_bands before calling an iterative solver
          2143 MiB given to the printing process from OS
          1926 MiB allocation reported by mallinfo(arena+hblkhd)
         36623 MiB available memory on the node where the printing process lives
     GPU memory used/free/total (MiB): 2392 / 13888 / 16280
------------------
     ethr =  6.73E-07,  avg # of iterations =  2.0

     negative rho (up, down):  3.015E-02 3.512E-02

     total cpu time spent up to now is       89.8 secs

     total energy              =    -406.04530392 Ry
     estimated scf accuracy    <       0.00246930 Ry

     total magnetization       =     4.99 Bohr mag/cell
     absolute magnetization    =     5.17 Bohr mag/cell
[tb_dev] Currently allocated     2.53E+00 Mbytes, locked:    0 /   8
[tb_pin] Currently allocated     0.00E+00 Mbytes, locked:    0 /   0

     iteration #  7     ecut=    40.00 Ry     beta= 0.10
     Davidson diagonalization with overlap

---- Real-time Memory Report at c_bands before calling an iterative solver
          2146 MiB given to the printing process from OS
          1929 MiB allocation reported by mallinfo(arena+hblkhd)
         36621 MiB available memory on the node where the printing process lives
     GPU memory used/free/total (MiB): 2392 / 13888 / 16280
------------------
     ethr =  6.73E-07,  avg # of iterations =  2.0

     negative rho (up, down):  2.999E-02 3.529E-02

     total cpu time spent up to now is      105.2 secs

     total energy              =    -406.04528781 Ry
     estimated scf accuracy    <       0.00044198 Ry

     total magnetization       =     4.78 Bohr mag/cell
     absolute magnetization    =     5.03 Bohr mag/cell
[tb_dev] Currently allocated     2.53E+00 Mbytes, locked:    0 /   8
[tb_pin] Currently allocated     0.00E+00 Mbytes, locked:    0 /   0

     iteration #  8     ecut=    40.00 Ry     beta= 0.10
     Davidson diagonalization with overlap

---- Real-time Memory Report at c_bands before calling an iterative solver
          2151 MiB given to the printing process from OS
          1933 MiB allocation reported by mallinfo(arena+hblkhd)
         36618 MiB available memory on the node where the printing process lives
     GPU memory used/free/total (MiB): 2392 / 13888 / 16280
------------------
     ethr =  6.73E-07,  avg # of iterations =  2.0

     negative rho (up, down):  3.082E-02 3.446E-02

     total cpu time spent up to now is      120.7 secs

     total energy              =    -406.02659069 Ry
     estimated scf accuracy    <       0.00028734 Ry

     total magnetization       =     4.46 Bohr mag/cell
     absolute magnetization    =     5.15 Bohr mag/cell
[tb_dev] Currently allocated     2.53E+00 Mbytes, locked:    0 /   8
[tb_pin] Currently allocated     0.00E+00 Mbytes, locked:    0 /   0

     iteration #  9     ecut=    40.00 Ry     beta= 0.10
     Davidson diagonalization with overlap

---- Real-time Memory Report at c_bands before calling an iterative solver
          2152 MiB given to the printing process from OS
          1935 MiB allocation reported by mallinfo(arena+hblkhd)
         36615 MiB available memory on the node where the printing process lives
     GPU memory used/free/total (MiB): 2392 / 13888 / 16280
------------------
     ethr =  4.79E-07,  avg # of iterations =  4.0

     negative rho (up, down):  3.064E-02 3.464E-02

     total cpu time spent up to now is      142.4 secs

     total energy              =    -406.04380787 Ry
     estimated scf accuracy    <       0.02620889 Ry

     total magnetization       =     5.76 Bohr mag/cell
     absolute magnetization    =     5.89 Bohr mag/cell
[tb_dev] Currently allocated     2.53E+00 Mbytes, locked:    0 /   8
[tb_pin] Currently allocated     0.00E+00 Mbytes, locked:    0 /   0

     iteration # 10     ecut=    40.00 Ry     beta= 0.10
     Davidson diagonalization with overlap

---- Real-time Memory Report at c_bands before calling an iterative solver
          2157 MiB given to the printing process from OS
          1939 MiB allocation reported by mallinfo(arena+hblkhd)
         36612 MiB available memory on the node where the printing process lives
     GPU memory used/free/total (MiB): 2392 / 13888 / 16280
------------------
     ethr =  4.79E-07,  avg # of iterations =  2.0

     negative rho (up, down):  3.040E-02 3.487E-02

     total cpu time spent up to now is      158.1 secs

     total energy              =    -406.04479222 Ry
     estimated scf accuracy    <       0.01126168 Ry

     total magnetization       =     5.61 Bohr mag/cell
     absolute magnetization    =     5.74 Bohr mag/cell
[tb_dev] Currently allocated     2.53E+00 Mbytes, locked:    0 /   8
[tb_pin] Currently allocated     0.00E+00 Mbytes, locked:    0 /   0

     iteration # 11     ecut=    40.00 Ry     beta= 0.10
     Davidson diagonalization with overlap

---- Real-time Memory Report at c_bands before calling an iterative solver
          2159 MiB given to the printing process from OS
          1939 MiB allocation reported by mallinfo(arena+hblkhd)
         36613 MiB available memory on the node where the printing process lives
     GPU memory used/free/total (MiB): 2392 / 13888 / 16280
------------------
     ethr =  4.79E-07,  avg # of iterations =  2.5

     negative rho (up, down):  3.038E-02 3.489E-02

     total cpu time spent up to now is      174.7 secs

     total energy              =    -406.04534403 Ry
     estimated scf accuracy    <       0.00067361 Ry

     total magnetization       =     5.31 Bohr mag/cell
     absolute magnetization    =     5.46 Bohr mag/cell
[tb_dev] Currently allocated     2.53E+00 Mbytes, locked:    0 /   8
[tb_pin] Currently allocated     0.00E+00 Mbytes, locked:    0 /   0

     iteration # 12     ecut=    40.00 Ry     beta= 0.10
     Davidson diagonalization with overlap

---- Real-time Memory Report at c_bands before calling an iterative solver
          2159 MiB given to the printing process from OS
          1939 MiB allocation reported by mallinfo(arena+hblkhd)
         36613 MiB available memory on the node where the printing process lives
     GPU memory used/free/total (MiB): 2392 / 13888 / 16280
------------------
     ethr =  4.79E-07,  avg # of iterations =  1.0

     negative rho (up, down):  3.036E-02 3.491E-02

     total cpu time spent up to now is      187.3 secs

     total energy              =    -406.04539245 Ry
     estimated scf accuracy    <       0.00065403 Ry

     total magnetization       =     5.29 Bohr mag/cell
     absolute magnetization    =     5.43 Bohr mag/cell
[tb_dev] Currently allocated     2.53E+00 Mbytes, locked:    0 /   8
[tb_pin] Currently allocated     0.00E+00 Mbytes, locked:    0 /   0

     iteration # 13     ecut=    40.00 Ry     beta= 0.10
     Davidson diagonalization with overlap

---- Real-time Memory Report at c_bands before calling an iterative solver
          2159 MiB given to the printing process from OS
          1939 MiB allocation reported by mallinfo(arena+hblkhd)
         36613 MiB available memory on the node where the printing process lives
     GPU memory used/free/total (MiB): 2392 / 13888 / 16280
------------------
     ethr =  4.79E-07,  avg # of iterations =  1.0

     negative rho (up, down):  3.029E-02 3.498E-02

     total cpu time spent up to now is      199.8 secs

     total energy              =    -406.04543914 Ry
     estimated scf accuracy    <       0.00051681 Ry

     total magnetization       =     5.26 Bohr mag/cell
     absolute magnetization    =     5.41 Bohr mag/cell
[tb_dev] Currently allocated     2.53E+00 Mbytes, locked:    0 /   8
[tb_pin] Currently allocated     0.00E+00 Mbytes, locked:    0 /   0

     iteration # 14     ecut=    40.00 Ry     beta= 0.10
     Davidson diagonalization with overlap

---- Real-time Memory Report at c_bands before calling an iterative solver
          2159 MiB given to the printing process from OS
          1939 MiB allocation reported by mallinfo(arena+hblkhd)
         36613 MiB available memory on the node where the printing process lives
     GPU memory used/free/total (MiB): 2392 / 13888 / 16280
------------------
     ethr =  4.79E-07,  avg # of iterations =  2.0

     negative rho (up, down):  3.028E-02 3.499E-02

     total cpu time spent up to now is      214.1 secs

     total energy              =    -406.04553996 Ry
     estimated scf accuracy    <       0.00024359 Ry

     total magnetization       =     5.15 Bohr mag/cell
     absolute magnetization    =     5.31 Bohr mag/cell
[tb_dev] Currently allocated     2.53E+00 Mbytes, locked:    0 /   8
[tb_pin] Currently allocated     0.00E+00 Mbytes, locked:    0 /   0

     iteration # 15     ecut=    40.00 Ry     beta= 0.10
     Davidson diagonalization with overlap

---- Real-time Memory Report at c_bands before calling an iterative solver
          2159 MiB given to the printing process from OS
          1939 MiB allocation reported by mallinfo(arena+hblkhd)
         36613 MiB available memory on the node where the printing process lives
     GPU memory used/free/total (MiB): 2392 / 13888 / 16280
------------------
     ethr =  4.06E-07,  avg # of iterations =  1.0

     negative rho (up, down):  3.030E-02 3.497E-02

     total cpu time spent up to now is      226.5 secs

     total energy              =    -406.04550973 Ry
     estimated scf accuracy    <       0.00023169 Ry

     total magnetization       =     5.13 Bohr mag/cell
     absolute magnetization    =     5.29 Bohr mag/cell
[tb_dev] Currently allocated     2.53E+00 Mbytes, locked:    0 /   8
[tb_pin] Currently allocated     0.00E+00 Mbytes, locked:    0 /   0

     iteration # 16     ecut=    40.00 Ry     beta= 0.10
     Davidson diagonalization with overlap

---- Real-time Memory Report at c_bands before calling an iterative solver
          2159 MiB given to the printing process from OS
          1939 MiB allocation reported by mallinfo(arena+hblkhd)
         36614 MiB available memory on the node where the printing process lives
     GPU memory used/free/total (MiB): 2392 / 13888 / 16280
------------------
     ethr =  3.86E-07,  avg # of iterations =  1.0

     negative rho (up, down):  3.027E-02 3.500E-02

     total cpu time spent up to now is      239.3 secs

     total energy              =    -406.04553929 Ry
     estimated scf accuracy    <       0.00025292 Ry

     total magnetization       =     5.16 Bohr mag/cell
     absolute magnetization    =     5.32 Bohr mag/cell
[tb_dev] Currently allocated     2.53E+00 Mbytes, locked:    0 /   8
[tb_pin] Currently allocated     0.00E+00 Mbytes, locked:    0 /   0

     iteration # 17     ecut=    40.00 Ry     beta= 0.10
     Davidson diagonalization with overlap

---- Real-time Memory Report at c_bands before calling an iterative solver
          2159 MiB given to the printing process from OS
          1939 MiB allocation reported by mallinfo(arena+hblkhd)
         36614 MiB available memory on the node where the printing process lives
     GPU memory used/free/total (MiB): 2392 / 13888 / 16280
------------------
     ethr =  3.86E-07,  avg # of iterations =  1.0

     negative rho (up, down):  3.025E-02 3.502E-02

     total cpu time spent up to now is      252.0 secs

     total energy              =    -406.04556651 Ry
     estimated scf accuracy    <       0.00022507 Ry

     total magnetization       =     5.12 Bohr mag/cell
     absolute magnetization    =     5.29 Bohr mag/cell
[tb_dev] Currently allocated     2.53E+00 Mbytes, locked:    0 /   8
[tb_pin] Currently allocated     0.00E+00 Mbytes, locked:    0 /   0

     iteration # 18     ecut=    40.00 Ry     beta= 0.10
     Davidson diagonalization with overlap

---- Real-time Memory Report at c_bands before calling an iterative solver
          2159 MiB given to the printing process from OS
          1939 MiB allocation reported by mallinfo(arena+hblkhd)
         36615 MiB available memory on the node where the printing process lives
     GPU memory used/free/total (MiB): 2392 / 13888 / 16280
------------------
     ethr =  3.75E-07,  avg # of iterations =  1.0

     negative rho (up, down):  3.027E-02 3.500E-02

     total cpu time spent up to now is      264.4 secs

     total energy              =    -406.04554952 Ry
     estimated scf accuracy    <       0.00017310 Ry

     total magnetization       =     5.08 Bohr mag/cell
     absolute magnetization    =     5.26 Bohr mag/cell
[tb_dev] Currently allocated     2.53E+00 Mbytes, locked:    0 /   8
[tb_pin] Currently allocated     0.00E+00 Mbytes, locked:    0 /   0

     iteration # 19     ecut=    40.00 Ry     beta= 0.10
     Davidson diagonalization with overlap

---- Real-time Memory Report at c_bands before calling an iterative solver
          2159 MiB given to the printing process from OS
          1939 MiB allocation reported by mallinfo(arena+hblkhd)
         36615 MiB available memory on the node where the printing process lives
     GPU memory used/free/total (MiB): 2392 / 13888 / 16280
------------------
     ethr =  2.88E-07,  avg # of iterations =  1.0

     negative rho (up, down):  3.017E-02 3.510E-02

     total cpu time spent up to now is      276.9 secs

     total energy              =    -406.04547116 Ry
     estimated scf accuracy    <       0.00017343 Ry

     total magnetization       =     5.11 Bohr mag/cell
     absolute magnetization    =     5.28 Bohr mag/cell
[tb_dev] Currently allocated     2.53E+00 Mbytes, locked:    0 /   8
[tb_pin] Currently allocated     0.00E+00 Mbytes, locked:    0 /   0

     iteration # 20     ecut=    40.00 Ry     beta= 0.10
     Davidson diagonalization with overlap

---- Real-time Memory Report at c_bands before calling an iterative solver
          2159 MiB given to the printing process from OS
          1939 MiB allocation reported by mallinfo(arena+hblkhd)
         36615 MiB available memory on the node where the printing process lives
     GPU memory used/free/total (MiB): 2392 / 13888 / 16280
------------------
     ethr =  2.88E-07,  avg # of iterations =  2.0

     negative rho (up, down):  3.026E-02 3.501E-02

     total cpu time spent up to now is      291.8 secs

     total energy              =    -406.04538855 Ry
     estimated scf accuracy    <       0.00028439 Ry

     total magnetization       =     4.94 Bohr mag/cell
     absolute magnetization    =     5.14 Bohr mag/cell
[tb_dev] Currently allocated     2.53E+00 Mbytes, locked:    0 /   8
[tb_pin] Currently allocated     0.00E+00 Mbytes, locked:    0 /   0

     iteration # 21     ecut=    40.00 Ry     beta= 0.10
     Davidson diagonalization with overlap

---- Real-time Memory Report at c_bands before calling an iterative solver
          2159 MiB given to the printing process from OS
          1939 MiB allocation reported by mallinfo(arena+hblkhd)
         36615 MiB available memory on the node where the printing process lives
     GPU memory used/free/total (MiB): 2392 / 13888 / 16280
------------------
     ethr =  2.88E-07,  avg # of iterations =  2.0

     negative rho (up, down):  3.027E-02 3.500E-02

     total cpu time spent up to now is      306.2 secs

     total energy              =    -406.04554758 Ry
     estimated scf accuracy    <       0.00023763 Ry

     total magnetization       =     5.10 Bohr mag/cell
     absolute magnetization    =     5.27 Bohr mag/cell
[tb_dev] Currently allocated     2.53E+00 Mbytes, locked:    0 /   8
[tb_pin] Currently allocated     0.00E+00 Mbytes, locked:    0 /   0

     iteration # 22     ecut=    40.00 Ry     beta= 0.10
     Davidson diagonalization with overlap

---- Real-time Memory Report at c_bands before calling an iterative solver
          2159 MiB given to the printing process from OS
          1939 MiB allocation reported by mallinfo(arena+hblkhd)
         36614 MiB available memory on the node where the printing process lives
     GPU memory used/free/total (MiB): 2392 / 13888 / 16280
------------------
     ethr =  2.88E-07,  avg # of iterations =  1.0

     negative rho (up, down):  3.040E-02 3.487E-02

     total cpu time spent up to now is      318.6 secs

     total energy              =    -406.04500471 Ry
     estimated scf accuracy    <       0.00027126 Ry

     total magnetization       =     5.12 Bohr mag/cell
     absolute magnetization    =     5.29 Bohr mag/cell
[tb_dev] Currently allocated     2.53E+00 Mbytes, locked:    0 /   8
[tb_pin] Currently allocated     0.00E+00 Mbytes, locked:    0 /   0

     iteration # 23     ecut=    40.00 Ry     beta= 0.10
     Davidson diagonalization with overlap

---- Real-time Memory Report at c_bands before calling an iterative solver
          2159 MiB given to the printing process from OS
          1939 MiB allocation reported by mallinfo(arena+hblkhd)
         36614 MiB available memory on the node where the printing process lives
     GPU memory used/free/total (MiB): 2392 / 13888 / 16280
------------------
     ethr =  2.88E-07,  avg # of iterations =  2.0

     negative rho (up, down):  3.032E-02 3.494E-02

     total cpu time spent up to now is      334.2 secs

     total energy              =    -406.04538919 Ry
     estimated scf accuracy    <       0.00107249 Ry

     total magnetization       =     5.32 Bohr mag/cell
     absolute magnetization    =     5.47 Bohr mag/cell
[tb_dev] Currently allocated     2.53E+00 Mbytes, locked:    0 /   8
[tb_pin] Currently allocated     0.00E+00 Mbytes, locked:    0 /   0

     iteration # 24     ecut=    40.00 Ry     beta= 0.10
     Davidson diagonalization with overlap

---- Real-time Memory Report at c_bands before calling an iterative solver
          2159 MiB given to the printing process from OS
          1939 MiB allocation reported by mallinfo(arena+hblkhd)
         36614 MiB available memory on the node where the printing process lives
     GPU memory used/free/total (MiB): 2392 / 13888 / 16280
------------------
     ethr =  2.88E-07,  avg # of iterations =  2.0

     negative rho (up, down):  3.040E-02 3.487E-02

     total cpu time spent up to now is      348.7 secs

     total energy              =    -406.04519512 Ry
     estimated scf accuracy    <       0.00044379 Ry

     total magnetization       =     5.21 Bohr mag/cell
     absolute magnetization    =     5.37 Bohr mag/cell
[tb_dev] Currently allocated     2.53E+00 Mbytes, locked:    0 /   8
[tb_pin] Currently allocated     0.00E+00 Mbytes, locked:    0 /   0

     iteration # 25     ecut=    40.00 Ry     beta= 0.10
     Davidson diagonalization with overlap

---- Real-time Memory Report at c_bands before calling an iterative solver
          2159 MiB given to the printing process from OS
          1939 MiB allocation reported by mallinfo(arena+hblkhd)
         36615 MiB available memory on the node where the printing process lives
     GPU memory used/free/total (MiB): 2392 / 13888 / 16280
------------------
     ethr =  2.88E-07,  avg # of iterations =  2.0

     negative rho (up, down):  3.035E-02 3.492E-02

     total cpu time spent up to now is      363.1 secs

     total energy              =    -406.04537948 Ry
     estimated scf accuracy    <       0.00114743 Ry

     total magnetization       =     5.33 Bohr mag/cell
     absolute magnetization    =     5.47 Bohr mag/cell
[tb_dev] Currently allocated     2.53E+00 Mbytes, locked:    0 /   8
[tb_pin] Currently allocated     0.00E+00 Mbytes, locked:    0 /   0

     iteration # 26     ecut=    40.00 Ry     beta= 0.10
     Davidson diagonalization with overlap

---- Real-time Memory Report at c_bands before calling an iterative solver
          2159 MiB given to the printing process from OS
          1939 MiB allocation reported by mallinfo(arena+hblkhd)
         36615 MiB available memory on the node where the printing process lives
     GPU memory used/free/total (MiB): 2392 / 13888 / 16280
------------------
     ethr =  2.88E-07,  avg # of iterations =  1.1

     negative rho (up, down):  3.037E-02 3.490E-02

     total cpu time spent up to now is      375.8 secs

     total energy              =    -406.04536605 Ry
     estimated scf accuracy    <       0.00055668 Ry

     total magnetization       =     5.25 Bohr mag/cell
     absolute magnetization    =     5.40 Bohr mag/cell
[tb_dev] Currently allocated     2.53E+00 Mbytes, locked:    0 /   8
[tb_pin] Currently allocated     0.00E+00 Mbytes, locked:    0 /   0

     iteration # 27     ecut=    40.00 Ry     beta= 0.10
     Davidson diagonalization with overlap

---- Real-time Memory Report at c_bands before calling an iterative solver
          2159 MiB given to the printing process from OS
          1939 MiB allocation reported by mallinfo(arena+hblkhd)
         36615 MiB available memory on the node where the printing process lives
     GPU memory used/free/total (MiB): 2392 / 13888 / 16280
------------------
     ethr =  2.88E-07,  avg # of iterations =  1.0

     negative rho (up, down):  3.034E-02 3.493E-02

     total cpu time spent up to now is      388.6 secs

     total energy              =    -406.04542410 Ry
     estimated scf accuracy    <       0.00075377 Ry

     total magnetization       =     5.28 Bohr mag/cell
     absolute magnetization    =     5.43 Bohr mag/cell
[tb_dev] Currently allocated     2.53E+00 Mbytes, locked:    0 /   8
[tb_pin] Currently allocated     0.00E+00 Mbytes, locked:    0 /   0

     iteration # 28     ecut=    40.00 Ry     beta= 0.10
     Davidson diagonalization with overlap

---- Real-time Memory Report at c_bands before calling an iterative solver
          2159 MiB given to the printing process from OS
          1939 MiB allocation reported by mallinfo(arena+hblkhd)
         36615 MiB available memory on the node where the printing process lives
     GPU memory used/free/total (MiB): 2392 / 13888 / 16280
------------------
     ethr =  2.88E-07,  avg # of iterations =  1.0

     negative rho (up, down):  3.029E-02 3.498E-02

     total cpu time spent up to now is      401.4 secs

     total energy              =    -406.04547750 Ry
     estimated scf accuracy    <       0.00052013 Ry

     total magnetization       =     5.24 Bohr mag/cell
     absolute magnetization    =     5.39 Bohr mag/cell
[tb_dev] Currently allocated     2.53E+00 Mbytes, locked:    0 /   8
[tb_pin] Currently allocated     0.00E+00 Mbytes, locked:    0 /   0

     iteration # 29     ecut=    40.00 Ry     beta= 0.10
     Davidson diagonalization with overlap

---- Real-time Memory Report at c_bands before calling an iterative solver
          2159 MiB given to the printing process from OS
          1939 MiB allocation reported by mallinfo(arena+hblkhd)
         36615 MiB available memory on the node where the printing process lives
     GPU memory used/free/total (MiB): 2392 / 13888 / 16280
------------------
     ethr =  2.88E-07,  avg # of iterations =  1.4

     negative rho (up, down):  3.019E-02 3.508E-02

     total cpu time spent up to now is      414.7 secs

     total energy              =    -406.04541410 Ry
     estimated scf accuracy    <       0.00028947 Ry

     total magnetization       =     5.15 Bohr mag/cell
     absolute magnetization    =     5.32 Bohr mag/cell
[tb_dev] Currently allocated     2.53E+00 Mbytes, locked:    0 /   8
[tb_pin] Currently allocated     0.00E+00 Mbytes, locked:    0 /   0

     iteration # 30     ecut=    40.00 Ry     beta= 0.10
     Davidson diagonalization with overlap

---- Real-time Memory Report at c_bands before calling an iterative solver
          2159 MiB given to the printing process from OS
          1939 MiB allocation reported by mallinfo(arena+hblkhd)
         36615 MiB available memory on the node where the printing process lives
     GPU memory used/free/total (MiB): 2392 / 13888 / 16280
------------------
     ethr =  2.88E-07,  avg # of iterations =  2.0

     negative rho (up, down):  3.031E-02 3.496E-02

     total cpu time spent up to now is      430.6 secs

     total energy              =    -406.04517327 Ry
     estimated scf accuracy    <       0.00021377 Ry

     total magnetization       =     4.96 Bohr mag/cell
     absolute magnetization    =     5.15 Bohr mag/cell
[tb_dev] Currently allocated     2.53E+00 Mbytes, locked:    0 /   8
[tb_pin] Currently allocated     0.00E+00 Mbytes, locked:    0 /   0

     iteration # 31     ecut=    40.00 Ry     beta= 0.10
     Davidson diagonalization with overlap

---- Real-time Memory Report at c_bands before calling an iterative solver
          2159 MiB given to the printing process from OS
          1939 MiB allocation reported by mallinfo(arena+hblkhd)
         36615 MiB available memory on the node where the printing process lives
     GPU memory used/free/total (MiB): 2392 / 13888 / 16280
------------------
     ethr =  2.88E-07,  avg # of iterations =  2.0

     negative rho (up, down):  3.026E-02 3.501E-02

     total cpu time spent up to now is      446.0 secs

     total energy              =    -406.04552555 Ry
     estimated scf accuracy    <       0.00036164 Ry

     total magnetization       =     5.18 Bohr mag/cell
     absolute magnetization    =     5.34 Bohr mag/cell
[tb_dev] Currently allocated     2.53E+00 Mbytes, locked:    0 /   8
[tb_pin] Currently allocated     0.00E+00 Mbytes, locked:    0 /   0

     iteration # 32     ecut=    40.00 Ry     beta= 0.10
     Davidson diagonalization with overlap

---- Real-time Memory Report at c_bands before calling an iterative solver
          2159 MiB given to the printing process from OS
          1939 MiB allocation reported by mallinfo(arena+hblkhd)
         36615 MiB available memory on the node where the printing process lives
     GPU memory used/free/total (MiB): 2392 / 13888 / 16280
------------------
     ethr =  2.88E-07,  avg # of iterations =  1.0

     negative rho (up, down):  3.030E-02 3.497E-02

     total cpu time spent up to now is      458.4 secs

     total energy              =    -406.04546252 Ry
     estimated scf accuracy    <       0.00021696 Ry

     total magnetization       =     5.09 Bohr mag/cell
     absolute magnetization    =     5.26 Bohr mag/cell
[tb_dev] Currently allocated     2.53E+00 Mbytes, locked:    0 /   8
[tb_pin] Currently allocated     0.00E+00 Mbytes, locked:    0 /   0

     iteration # 33     ecut=    40.00 Ry     beta= 0.10
     Davidson diagonalization with overlap

---- Real-time Memory Report at c_bands before calling an iterative solver
          2159 MiB given to the printing process from OS
          1939 MiB allocation reported by mallinfo(arena+hblkhd)
         36615 MiB available memory on the node where the printing process lives
     GPU memory used/free/total (MiB): 2392 / 13888 / 16280
------------------
     ethr =  2.88E-07,  avg # of iterations =  1.0

     negative rho (up, down):  3.038E-02 3.489E-02

     total cpu time spent up to now is      470.8 secs

     total energy              =    -406.04526489 Ry
     estimated scf accuracy    <       0.00033041 Ry

     total magnetization       =     5.17 Bohr mag/cell
     absolute magnetization    =     5.33 Bohr mag/cell
[tb_dev] Currently allocated     2.53E+00 Mbytes, locked:    0 /   8
[tb_pin] Currently allocated     0.00E+00 Mbytes, locked:    0 /   0

     iteration # 34     ecut=    40.00 Ry     beta= 0.10
     Davidson diagonalization with overlap

---- Real-time Memory Report at c_bands before calling an iterative solver
          2159 MiB given to the printing process from OS
          1939 MiB allocation reported by mallinfo(arena+hblkhd)
         36615 MiB available memory on the node where the printing process lives
     GPU memory used/free/total (MiB): 2392 / 13888 / 16280
------------------
     ethr =  2.88E-07,  avg # of iterations =  2.0

     negative rho (up, down):  3.026E-02 3.501E-02

     total cpu time spent up to now is      485.1 secs

     total energy              =    -406.04533704 Ry
     estimated scf accuracy    <       0.00079457 Ry

     total magnetization       =     5.29 Bohr mag/cell
     absolute magnetization    =     5.44 Bohr mag/cell
[tb_dev] Currently allocated     2.53E+00 Mbytes, locked:    0 /   8
[tb_pin] Currently allocated     0.00E+00 Mbytes, locked:    0 /   0

     iteration # 35     ecut=    40.00 Ry     beta= 0.10
     Davidson diagonalization with overlap

---- Real-time Memory Report at c_bands before calling an iterative solver
          2159 MiB given to the printing process from OS
          1939 MiB allocation reported by mallinfo(arena+hblkhd)
         36615 MiB available memory on the node where the printing process lives
     GPU memory used/free/total (MiB): 2392 / 13888 / 16280
------------------
     ethr =  2.88E-07,  avg # of iterations =  2.0

     negative rho (up, down):  3.029E-02 3.498E-02

     total cpu time spent up to now is      500.5 secs

     total energy              =    -406.04551198 Ry
     estimated scf accuracy    <       0.00023163 Ry

     total magnetization       =     5.10 Bohr mag/cell
     absolute magnetization    =     5.27 Bohr mag/cell
[tb_dev] Currently allocated     2.53E+00 Mbytes, locked:    0 /   8
[tb_pin] Currently allocated     0.00E+00 Mbytes, locked:    0 /   0

     iteration # 36     ecut=    40.00 Ry     beta= 0.10
     Davidson diagonalization with overlap

---- Real-time Memory Report at c_bands before calling an iterative solver
          2159 MiB given to the printing process from OS
          1939 MiB allocation reported by mallinfo(arena+hblkhd)
         36616 MiB available memory on the node where the printing process lives
     GPU memory used/free/total (MiB): 2392 / 13888 / 16280
------------------
     ethr =  2.88E-07,  avg # of iterations =  1.0

     negative rho (up, down):  3.031E-02 3.496E-02

     total cpu time spent up to now is      512.8 secs

     total energy              =    -406.04548184 Ry
     estimated scf accuracy    <       0.00029228 Ry

     total magnetization       =     5.15 Bohr mag/cell
     absolute magnetization    =     5.31 Bohr mag/cell
[tb_dev] Currently allocated     2.53E+00 Mbytes, locked:    0 /   8
[tb_pin] Currently allocated     0.00E+00 Mbytes, locked:    0 /   0

     iteration # 37     ecut=    40.00 Ry     beta= 0.10
     Davidson diagonalization with overlap

---- Real-time Memory Report at c_bands before calling an iterative solver
          2159 MiB given to the printing process from OS
          1939 MiB allocation reported by mallinfo(arena+hblkhd)
         36616 MiB available memory on the node where the printing process lives
     GPU memory used/free/total (MiB): 2392 / 13888 / 16280
------------------
     ethr =  2.88E-07,  avg # of iterations =  1.0

     negative rho (up, down):  3.030E-02 3.496E-02

     total cpu time spent up to now is      525.2 secs

     total energy              =    -406.04550498 Ry
     estimated scf accuracy    <       0.00037808 Ry

     total magnetization       =     5.19 Bohr mag/cell
     absolute magnetization    =     5.35 Bohr mag/cell
[tb_dev] Currently allocated     2.53E+00 Mbytes, locked:    0 /   8
[tb_pin] Currently allocated     0.00E+00 Mbytes, locked:    0 /   0

     iteration # 38     ecut=    40.00 Ry     beta= 0.10
     Davidson diagonalization with overlap

---- Real-time Memory Report at c_bands before calling an iterative solver
          2159 MiB given to the printing process from OS
          1939 MiB allocation reported by mallinfo(arena+hblkhd)
         36615 MiB available memory on the node where the printing process lives
     GPU memory used/free/total (MiB): 2392 / 13888 / 16280
------------------
     ethr =  2.88E-07,  avg # of iterations =  1.0

     negative rho (up, down):  3.007E-02 3.520E-02

     total cpu time spent up to now is      537.7 secs

     total energy              =    -406.04453634 Ry
     estimated scf accuracy    <       0.00031939 Ry

     total magnetization       =     5.17 Bohr mag/cell
     absolute magnetization    =     5.33 Bohr mag/cell
[tb_dev] Currently allocated     2.53E+00 Mbytes, locked:    0 /   8
[tb_pin] Currently allocated     0.00E+00 Mbytes, locked:    0 /   0

     iteration # 39     ecut=    40.00 Ry     beta= 0.10
     Davidson diagonalization with overlap

---- Real-time Memory Report at c_bands before calling an iterative solver
          2159 MiB given to the printing process from OS
          1939 MiB allocation reported by mallinfo(arena+hblkhd)
         36615 MiB available memory on the node where the printing process lives
     GPU memory used/free/total (MiB): 2392 / 13888 / 16280
------------------
     ethr =  2.88E-07,  avg # of iterations =  3.0

     negative rho (up, down):  3.030E-02 3.496E-02

     total cpu time spent up to now is      555.9 secs

     total energy              =    -406.04395786 Ry
     estimated scf accuracy    <       0.00078139 Ry

     total magnetization       =     4.71 Bohr mag/cell
     absolute magnetization    =     5.01 Bohr mag/cell
[tb_dev] Currently allocated     2.53E+00 Mbytes, locked:    0 /   8
[tb_pin] Currently allocated     0.00E+00 Mbytes, locked:    0 /   0

     iteration # 40     ecut=    40.00 Ry     beta= 0.10
     Davidson diagonalization with overlap

---- Real-time Memory Report at c_bands before calling an iterative solver
          2159 MiB given to the printing process from OS
          1939 MiB allocation reported by mallinfo(arena+hblkhd)
         36615 MiB available memory on the node where the printing process lives
     GPU memory used/free/total (MiB): 2392 / 13888 / 16280
------------------
     ethr =  2.88E-07,  avg # of iterations =  3.0

     negative rho (up, down):  3.029E-02 3.498E-02

     total cpu time spent up to now is      574.0 secs

     total energy              =    -406.04552107 Ry
     estimated scf accuracy    <       0.00039599 Ry

     total magnetization       =     5.18 Bohr mag/cell
     absolute magnetization    =     5.34 Bohr mag/cell
[tb_dev] Currently allocated     2.53E+00 Mbytes, locked:    0 /   8
[tb_pin] Currently allocated     0.00E+00 Mbytes, locked:    0 /   0

     iteration # 41     ecut=    40.00 Ry     beta= 0.10
     Davidson diagonalization with overlap

---- Real-time Memory Report at c_bands before calling an iterative solver
          2159 MiB given to the printing process from OS
          1939 MiB allocation reported by mallinfo(arena+hblkhd)
         36615 MiB available memory on the node where the printing process lives
     GPU memory used/free/total (MiB): 2392 / 13888 / 16280
------------------
     ethr =  2.88E-07,  avg # of iterations =  1.0

     negative rho (up, down):  3.030E-02 3.497E-02

     total cpu time spent up to now is      586.4 secs

     total energy              =    -406.04550438 Ry
     estimated scf accuracy    <       0.00035132 Ry

[...]
          2159 MiB given to the printing process from OS
          1939 MiB allocation reported by mallinfo(arena+hblkhd)
         36630 MiB available memory on the node where the printing process lives
     GPU memory used/free/total (MiB): 2392 / 13888 / 16280
------------------
     ethr =  2.88E-07,  avg # of iterations =  3.0

     negative rho (up, down):  3.051E-02 3.476E-02

     total cpu time spent up to now is      922.9 secs

     total energy              =    -406.04456280 Ry
     estimated scf accuracy    <       0.00103448 Ry

     total magnetization       =     5.30 Bohr mag/cell
     absolute magnetization    =     5.44 Bohr mag/cell
[tb_dev] Currently allocated     2.53E+00 Mbytes, locked:    0 /   8
[tb_pin] Currently allocated     0.00E+00 Mbytes, locked:    0 /   0

     iteration # 66     ecut=    40.00 Ry     beta= 0.10
     Davidson diagonalization with overlap

---- Real-time Memory Report at c_bands before calling an iterative solver
          2159 MiB given to the printing process from OS
          1939 MiB allocation reported by mallinfo(arena+hblkhd)
         36631 MiB available memory on the node where the printing process lives
     GPU memory used/free/total (MiB): 2392 / 13888 / 16280
------------------
     ethr =  2.88E-07,  avg # of iterations =  2.0

     negative rho (up, down):  3.053E-02 3.474E-02

     total cpu time spent up to now is      938.8 secs

     total energy              =    -406.04470828 Ry
     estimated scf accuracy    <       0.00473985 Ry

     total magnetization       =     5.49 Bohr mag/cell
     absolute magnetization    =     5.62 Bohr mag/cell
[tb_dev] Currently allocated     2.53E+00 Mbytes, locked:    0 /   8
[tb_pin] Currently allocated     0.00E+00 Mbytes, locked:    0 /   0

     iteration # 67     ecut=    40.00 Ry     beta= 0.10
     Davidson diagonalization with overlap

---- Real-time Memory Report at c_bands before calling an iterative solver
          2159 MiB given to the printing process from OS
          1939 MiB allocation reported by mallinfo(arena+hblkhd)
         36631 MiB available memory on the node where the printing process lives
     GPU memory used/free/total (MiB): 2392 / 13888 / 16280
------------------
     ethr =  2.88E-07,  avg # of iterations =  1.0

     negative rho (up, down):  3.057E-02 3.471E-02

     total cpu time spent up to now is      951.5 secs

     total energy              =    -406.04444485 Ry
     estimated scf accuracy    <       0.00553538 Ry

     total magnetization       =     5.51 Bohr mag/cell
     absolute magnetization    =     5.64 Bohr mag/cell
[tb_dev] Currently allocated     2.53E+00 Mbytes, locked:    0 /   8
[tb_pin] Currently allocated     0.00E+00 Mbytes, locked:    0 /   0

     iteration # 68     ecut=    40.00 Ry     beta= 0.10
     Davidson diagonalization with overlap

---- Real-time Memory Report at c_bands before calling an iterative solver
          2159 MiB given to the printing process from OS
          1939 MiB allocation reported by mallinfo(arena+hblkhd)
         36632 MiB available memory on the node where the printing process lives
     GPU memory used/free/total (MiB): 2392 / 13888 / 16280
------------------
     ethr =  2.88E-07,  avg # of iterations =  1.0

     negative rho (up, down):  3.041E-02 3.486E-02

     total cpu time spent up to now is      963.9 secs

     total energy              =    -406.04502199 Ry
     estimated scf accuracy    <       0.00765077 Ry

     total magnetization       =     5.55 Bohr mag/cell
     absolute magnetization    =     5.68 Bohr mag/cell
[tb_dev] Currently allocated     2.53E+00 Mbytes, locked:    0 /   8
[tb_pin] Currently allocated     0.00E+00 Mbytes, locked:    0 /   0

     iteration # 69     ecut=    40.00 Ry     beta= 0.10
     Davidson diagonalization with overlap

---- Real-time Memory Report at c_bands before calling an iterative solver
          2159 MiB given to the printing process from OS
          1939 MiB allocation reported by mallinfo(arena+hblkhd)
         36632 MiB available memory on the node where the printing process lives
     GPU memory used/free/total (MiB): 2392 / 13888 / 16280
------------------
     ethr =  2.88E-07,  avg # of iterations =  2.0

     negative rho (up, down):  3.029E-02 3.498E-02

     total cpu time spent up to now is      979.9 secs

     total energy              =    -406.04526946 Ry
     estimated scf accuracy    <       0.00149247 Ry

     total magnetization       =     5.35 Bohr mag/cell
     absolute magnetization    =     5.49 Bohr mag/cell
[tb_dev] Currently allocated     2.53E+00 Mbytes, locked:    0 /   8
[tb_pin] Currently allocated     0.00E+00 Mbytes, locked:    0 /   0

     iteration # 70     ecut=    40.00 Ry     beta= 0.10
     Davidson diagonalization with overlap

---- Real-time Memory Report at c_bands before calling an iterative solver
          2159 MiB given to the printing process from OS
          1939 MiB allocation reported by mallinfo(arena+hblkhd)
         36632 MiB available memory on the node where the printing process lives
     GPU memory used/free/total (MiB): 2392 / 13888 / 16280
------------------
     ethr =  2.88E-07,  avg # of iterations =  2.0

     negative rho (up, down):  3.028E-02 3.499E-02

     total cpu time spent up to now is      995.6 secs

     total energy              =    -406.04553502 Ry
     estimated scf accuracy    <       0.00028726 Ry

     total magnetization       =     5.15 Bohr mag/cell
     absolute magnetization    =     5.31 Bohr mag/cell
[tb_dev] Currently allocated     2.53E+00 Mbytes, locked:    0 /   8
[tb_pin] Currently allocated     0.00E+00 Mbytes, locked:    0 /   0

     iteration # 71     ecut=    40.00 Ry     beta= 0.10
     Davidson diagonalization with overlap

---- Real-time Memory Report at c_bands before calling an iterative solver
          2159 MiB given to the printing process from OS
          1939 MiB allocation reported by mallinfo(arena+hblkhd)
         36633 MiB available memory on the node where the printing process lives
     GPU memory used/free/total (MiB): 2392 / 13888 / 16280
------------------
     ethr =  2.88E-07,  avg # of iterations =  1.0

     negative rho (up, down):  3.034E-02 3.493E-02

     total cpu time spent up to now is     1008.3 secs

     total energy              =    -406.04538434 Ry
     estimated scf accuracy    <       0.00023441 Ry

     total magnetization       =     5.13 Bohr mag/cell
     absolute magnetization    =     5.30 Bohr mag/cell
[tb_dev] Currently allocated     2.53E+00 Mbytes, locked:    0 /   8
[tb_pin] Currently allocated     0.00E+00 Mbytes, locked:    0 /   0

     iteration # 72     ecut=    40.00 Ry     beta= 0.10
     Davidson diagonalization with overlap

---- Real-time Memory Report at c_bands before calling an iterative solver
          2159 MiB given to the printing process from OS
          1939 MiB allocation reported by mallinfo(arena+hblkhd)
         36633 MiB available memory on the node where the printing process lives
     GPU memory used/free/total (MiB): 2392 / 13888 / 16280
------------------
     ethr =  2.88E-07,  avg # of iterations =  1.4

     negative rho (up, down):  3.026E-02 3.501E-02

     total cpu time spent up to now is     1021.4 secs

     total energy              =    -406.04545761 Ry
     estimated scf accuracy    <       0.00046351 Ry

     total magnetization       =     5.23 Bohr mag/cell
     absolute magnetization    =     5.38 Bohr mag/cell
[tb_dev] Currently allocated     2.53E+00 Mbytes, locked:    0 /   8
[tb_pin] Currently allocated     0.00E+00 Mbytes, locked:    0 /   0

     iteration # 73     ecut=    40.00 Ry     beta= 0.10
     Davidson diagonalization with overlap

---- Real-time Memory Report at c_bands before calling an iterative solver
          2159 MiB given to the printing process from OS
          1939 MiB allocation reported by mallinfo(arena+hblkhd)
         36633 MiB available memory on the node where the printing process lives
     GPU memory used/free/total (MiB): 2392 / 13888 / 16280
------------------
     ethr =  2.88E-07,  avg # of iterations =  2.0

     negative rho (up, down):  3.011E-02 3.516E-02

     total cpu time spent up to now is     1036.0 secs

     total energy              =    -406.04520409 Ry
     estimated scf accuracy    <       0.00020308 Ry

     total magnetization       =     5.10 Bohr mag/cell
     absolute magnetization    =     5.27 Bohr mag/cell
[tb_dev] Currently allocated     2.53E+00 Mbytes, locked:    0 /   8
[tb_pin] Currently allocated     0.00E+00 Mbytes, locked:    0 /   0

     iteration # 74     ecut=    40.00 Ry     beta= 0.10
     Davidson diagonalization with overlap

---- Real-time Memory Report at c_bands before calling an iterative solver
          2159 MiB given to the printing process from OS
          1939 MiB allocation reported by mallinfo(arena+hblkhd)
         36633 MiB available memory on the node where the printing process lives
     GPU memory used/free/total (MiB): 2392 / 13888 / 16280
------------------
     ethr =  2.88E-07,  avg # of iterations =  2.0

     negative rho (up, down):  3.014E-02 3.513E-02

     total cpu time spent up to now is     1052.0 secs

     total energy              =    -406.04571084 Ry
     estimated scf accuracy    <       0.00048202 Ry

     total magnetization       =     4.80 Bohr mag/cell
     absolute magnetization    =     5.05 Bohr mag/cell
[tb_dev] Currently allocated     2.53E+00 Mbytes, locked:    0 /   8
[tb_pin] Currently allocated     0.00E+00 Mbytes, locked:    0 /   0

     iteration # 75     ecut=    40.00 Ry     beta= 0.10
     Davidson diagonalization with overlap

---- Real-time Memory Report at c_bands before calling an iterative solver
          2159 MiB given to the printing process from OS
          1939 MiB allocation reported by mallinfo(arena+hblkhd)
         36604 MiB available memory on the node where the printing process lives
     GPU memory used/free/total (MiB): 2392 / 13888 / 16280
------------------
     ethr =  2.88E-07,  avg # of iterations =  1.0

     negative rho (up, down):  3.013E-02 3.514E-02

     total cpu time spent up to now is     1064.6 secs

     total energy              =    -406.04574630 Ry
     estimated scf accuracy    <       0.00035821 Ry

     total magnetization       =     4.86 Bohr mag/cell
     absolute magnetization    =     5.09 Bohr mag/cell
[tb_dev] Currently allocated     2.53E+00 Mbytes, locked:    0 /   8
[tb_pin] Currently allocated     0.00E+00 Mbytes, locked:    0 /   0

     iteration # 76     ecut=    40.00 Ry     beta= 0.10
     Davidson diagonalization with overlap

---- Real-time Memory Report at c_bands before calling an iterative solver
          2159 MiB given to the printing process from OS
          1939 MiB allocation reported by mallinfo(arena+hblkhd)
         36617 MiB available memory on the node where the printing process lives
     GPU memory used/free/total (MiB): 2392 / 13888 / 16280
------------------
     ethr =  2.88E-07,  avg # of iterations =  1.0

     negative rho (up, down):  3.013E-02 3.515E-02

     total cpu time spent up to now is     1077.0 secs

     total energy              =    -406.04575714 Ry
     estimated scf accuracy    <       0.00037568 Ry

     total magnetization       =     4.84 Bohr mag/cell
     absolute magnetization    =     5.07 Bohr mag/cell
[tb_dev] Currently allocated     2.53E+00 Mbytes, locked:    0 /   8
[tb_pin] Currently allocated     0.00E+00 Mbytes, locked:    0 /   0

     iteration # 77     ecut=    40.00 Ry     beta= 0.10
     Davidson diagonalization with overlap

---- Real-time Memory Report at c_bands before calling an iterative solver
          2159 MiB given to the printing process from OS
          1939 MiB allocation reported by mallinfo(arena+hblkhd)
         36624 MiB available memory on the node where the printing process lives
     GPU memory used/free/total (MiB): 2392 / 13888 / 16280
------------------
     ethr =  2.88E-07,  avg # of iterations =  1.0

     negative rho (up, down):  3.018E-02 3.509E-02

     total cpu time spent up to now is     1089.4 secs

     total energy              =    -406.04561021 Ry
     estimated scf accuracy    <       0.00040523 Ry

     total magnetization       =     4.83 Bohr mag/cell
     absolute magnetization    =     5.07 Bohr mag/cell
[tb_dev] Currently allocated     2.53E+00 Mbytes, locked:    0 /   8
[tb_pin] Currently allocated     0.00E+00 Mbytes, locked:    0 /   0

     iteration # 78     ecut=    40.00 Ry     beta= 0.10
     Davidson diagonalization with overlap

---- Real-time Memory Report at c_bands before calling an iterative solver
          2159 MiB given to the printing process from OS
          1939 MiB allocation reported by mallinfo(arena+hblkhd)
         36625 MiB available memory on the node where the printing process lives
     GPU memory used/free/total (MiB): 2392 / 13888 / 16280
------------------
     ethr =  2.88E-07,  avg # of iterations =  1.2

     negative rho (up, down):  3.020E-02 3.507E-02

     total cpu time spent up to now is     1102.7 secs

     total energy              =    -406.04562761 Ry
     estimated scf accuracy    <       0.00023397 Ry

     total magnetization       =     4.93 Bohr mag/cell
     absolute magnetization    =     5.14 Bohr mag/cell
[tb_dev] Currently allocated     2.53E+00 Mbytes, locked:    0 /   8
[tb_pin] Currently allocated     0.00E+00 Mbytes, locked:    0 /   0

     iteration # 79     ecut=    40.00 Ry     beta= 0.10
     Davidson diagonalization with overlap

---- Real-time Memory Report at c_bands before calling an iterative solver
          2159 MiB given to the printing process from OS
          1939 MiB allocation reported by mallinfo(arena+hblkhd)
         36626 MiB available memory on the node where the printing process lives
     GPU memory used/free/total (MiB): 2392 / 13888 / 16280
------------------
     ethr =  2.88E-07,  avg # of iterations =  1.0

     negative rho (up, down):  3.018E-02 3.509E-02

     total cpu time spent up to now is     1115.1 secs

     total energy              =    -406.04566334 Ry
     estimated scf accuracy    <       0.00021126 Ry

     total magnetization       =     4.98 Bohr mag/cell
     absolute magnetization    =     5.18 Bohr mag/cell
[tb_dev] Currently allocated     2.53E+00 Mbytes, locked:    0 /   8
[tb_pin] Currently allocated     0.00E+00 Mbytes, locked:    0 /   0

     iteration # 80     ecut=    40.00 Ry     beta= 0.10
     Davidson diagonalization with overlap

---- Real-time Memory Report at c_bands before calling an iterative solver
          2159 MiB given to the printing process from OS
          1939 MiB allocation reported by mallinfo(arena+hblkhd)
         36627 MiB available memory on the node where the printing process lives
     GPU memory used/free/total (MiB): 2392 / 13888 / 16280
------------------
     ethr =  2.88E-07,  avg # of iterations =  1.0

     negative rho (up, down):  3.020E-02 3.507E-02

     total cpu time spent up to now is     1127.6 secs

     total energy              =    -406.04561756 Ry
     estimated scf accuracy    <       0.00023589 Ry

     total magnetization       =     4.93 Bohr mag/cell
     absolute magnetization    =     5.14 Bohr mag/cell

     End of self-consistent calculation

     convergence NOT achieved after  80 iterations: stopping

     Writing config to output data dir ./out/aiida.save/
 
     init_run     :     11.19s CPU      3.39s WALL (       1 calls)
     electrons    :   1275.99s CPU   1123.37s WALL (       1 calls)

     Called by init_run:
     wfcinit      :      0.67s CPU      0.67s WALL (       1 calls)
                                        0.67s GPU  (       1 calls)
     potinit      :      0.67s CPU      0.35s WALL (       1 calls)
     hinit0       :      7.45s CPU      1.62s WALL (       1 calls)

     Called by electrons:
     c_bands      :    960.49s CPU    914.56s WALL (      80 calls)
     sum_band     :    179.76s CPU    196.07s WALL (      80 calls)
     v_of_rho     :     52.03s CPU      4.77s WALL (      81 calls)
     v_h          :      7.22s CPU      0.64s WALL (      81 calls)
     v_xc         :     44.80s CPU      4.14s WALL (      81 calls)
     newd         :     33.41s CPU      3.35s WALL (      81 calls)
                                        3.35s GPU  (      81 calls)
     mix_rho      :     29.08s CPU      2.77s WALL (      80 calls)

     Called by c_bands:
     init_us_2    :     73.36s CPU     79.14s WALL (   52160 calls)
     init_us_2:gp :     72.43s CPU     78.27s WALL (   52160 calls)
     cegterg      :    840.44s CPU    783.62s WALL (   26080 calls)

     Called by sum_band:
     sum_band:wei :      0.95s CPU      0.96s WALL (      80 calls)
                                        0.96s GPU  (      80 calls)
     sum_band:loo :    173.31s CPU    189.48s WALL (      80 calls)
                                      189.49s GPU  (      80 calls)
     sum_band:buf :     25.52s CPU     26.70s WALL (   26080 calls)
                                       26.55s GPU  (   26080 calls)
     sum_band:ini :     32.98s CPU     38.54s WALL (   26080 calls)
                                       38.39s GPU  (   26080 calls)
     sum_band:cal :      0.73s CPU      6.38s WALL (   26080 calls)
                                        4.14s GPU  (   26080 calls)
     sum_band:bec :      4.30s CPU      4.73s WALL (   26080 calls)
                                        4.56s GPU  (   26080 calls)
     addusdens    :      3.63s CPU      3.73s WALL (      80 calls)
                                        3.73s GPU  (      80 calls)
     addusd:skk   :      0.02s CPU      0.02s WALL (     160 calls)
                                        0.02s GPU  (     160 calls)

     Called by *egterg:
     cdiaghg      :    179.24s CPU    182.72s WALL (   67019 calls)
                                      182.26s GPU  (   67019 calls)
     cegterg:over :     12.04s CPU     11.19s WALL (   41265 calls)
     cegterg:upda :     20.20s CPU     19.39s WALL (   41265 calls)
     cegterg:last :      6.75s CPU      6.49s WALL (   39629 calls)
     h_psi        :    579.68s CPU    525.63s WALL (   67345 calls)
                                      525.08s GPU  (   67345 calls)
     s_psi        :      8.23s CPU     17.04s WALL (   67345 calls)
                                       15.92s GPU  (   67345 calls)
     g_psi        :      0.31s CPU      1.47s WALL (   41265 calls)
                                        1.20s GPU  (   41265 calls)

     Called by h_psi:
     h_psi:calbec :      2.38s CPU     11.31s WALL (   67345 calls)
                                       10.86s GPU  (   67345 calls)
     vloc_psi     :    538.86s CPU    489.46s WALL (   67345 calls)
                                      489.04s GPU  (   67345 calls)
     add_vuspsi   :     13.11s CPU     19.96s WALL (   67345 calls)
                                       19.52s GPU  (   67345 calls)

     General routines
     calbec       :      2.21s CPU      2.06s WALL (   93425 calls)
     fft          :      2.75s CPU      0.71s WALL (    2023 calls)
                                        0.57s GPU  (    1861 calls)
     ffts         :      0.08s CPU      0.08s WALL (     322 calls)
                                        0.02s GPU  (     160 calls)
     fftw         :      9.10s CPU    423.60s WALL (  434836 calls)
                                      420.86s GPU  (  434836 calls)
     interpolate  :      7.36s CPU      0.65s WALL (     162 calls)
     davcio       :      0.94s CPU      2.42s WALL (     670 calls)
 
     Parallel routines
 
     PWSCF        :  21m30.81s CPU  18m49.70s WALL

 
   This run was terminated on:  20:36: 0  23Oct2023            

=------------------------------------------------------------------------------=
   JOB DONE.
=------------------------------------------------------------------------------=
