
     Program PWSCF v.7.2 starts on 22Oct2023 at 17: 9:29 

     This program is part of the open-source Quantum ESPRESSO suite
     for quantum simulation of materials; please cite
         "P. Giannozzi et al., J. Phys.:Condens. Matter 21 395502 (2009);
         "P. Giannozzi et al., J. Phys.:Condens. Matter 29 465901 (2017);
         "P. Giannozzi et al., J. Chem. Phys. 152 154105 (2020);
          URL http://www.quantum-espresso.org", 
     in publications or presentations arising from this work. More details at
     http://www.quantum-espresso.org/quote

     Parallel version (MPI & OpenMP), running on      12 processor cores
     Number of MPI processes:                 1
     Threads/MPI process:                    12

     MPI processes distributed on     1 nodes
     59557 MiB available memory on the printing compute node when the environment starts
 
     Reading input from aiida.in

     Current dimensions of program PWSCF are:
     Max number of different atomic species (ntypx) = 10
     Max number of k-points (npk) =  40000
     Max angular momentum in pseudopotentials (lmaxx) =  4
     file O.pbesol-n-kjpaw_psl.0.1.UPF: wavefunction(s)  2P renormalized
     Message from routine setup:
     using ibrav=0 with symmetry is DISCOURAGED, use correct ibrav instead
 
     Subspace diagonalization in iterative solution of the eigenvalue problem:
     a serial algorithm will be used

 
     G-vector sticks info
     --------------------
     sticks:   dense  smooth     PW     G-vecs:    dense   smooth      PW
     Sum        4879    2431    721               156471    55363    8959
 
     Using Slab Decomposition
 


     bravais-lattice index     =            0
     lattice parameter (alat)  =      12.3701  a.u.
     unit-cell volume          =    1158.2074 (a.u.)^3
     number of atoms/cell      =            8
     number of atomic types    =            1
     number of electrons       =        48.00
     number of Kohn-Sham states=           29
     kinetic-energy cutoff     =      50.0000  Ry
     charge density cutoff     =     400.0000  Ry
     scf convergence threshold =      1.6E-09
     mixing beta               =       0.4000
     number of iterations used =            8  plain     mixing
     Exchange-correlation= SLA  PW   PSX  PSC
                           (   1   4  10   8   0   0   0)

     GPU acceleration is ACTIVE.


     GPU used by master process:

        Device Number: 0
        Device name: Tesla P100-PCIE-16GB
        Compute capability : 60
        Ratio of single to double precision performance  : 2
        Memory Clock Rate (KHz): 715000
        Memory Bus Width (bits): 4096
        Peak Memory Bandwidth (GB/s): 732.16

     celldm(1)=  12.370059  celldm(2)=   0.000000  celldm(3)=   0.000000
     celldm(4)=   0.000000  celldm(5)=   0.000000  celldm(6)=   0.000000

     crystal axes: (cart. coord. in units of alat)
               a(1) = (   0.689763   0.724035   0.000000 )  
               a(2) = (  -0.689763   0.724035   0.000000 )  
               a(3) = (  -0.315278   0.000000   0.612606 )  

     reciprocal axes: (cart. coord. in units 2 pi/alat)
               b(1) = (  0.724887  0.690574  0.373064 )  
               b(2) = ( -0.724887  0.690574 -0.373064 )  
               b(3) = (  0.000000 -0.000000  1.632370 )  


     PseudoPot. # 1 for O  read from file:
     ./pseudo/O.pbesol-n-kjpaw_psl.0.1.UPF
     MD5 check sum: 81d73d1479e654e5638b0319f0d6c2c7
     Pseudo is Projector augmented-wave + core cor, Zval =  6.0
     Generated using "atomic" code by A. Dal Corso  v.6.0 svn rev. 13079
     Shape of augmentation charge: BESSEL
     Using radial grid of 1095 points,  4 beta functions with: 
                l(1) =   0
                l(2) =   0
                l(3) =   1
                l(4) =   1
     Q(r) pseudized with 0 coefficients 


     atomic species   valence    mass     pseudopotential
        O              6.00    15.99940     O ( 1.00)

     Starting magnetic structure 
     atomic species   magnetization
        O            0.100

      4 Sym. Ops., with inversion, found ( 2 have fractional translation)


                                    s                        frac. trans.

      isym =  1     identity                                     

 cryst.   s( 1) = (     1          0          0      )
                  (     0          1          0      )
                  (     0          0          1      )

 cart.    s( 1) = (  1.0000000 -0.0000000 -0.0000000 )
                  ( -0.0000000  1.0000000  0.0000000 )
                  (  0.0000000  0.0000000  1.0000000 )


      isym =  2     180 deg rotation - cart. axis [0,1,0]        

 cryst.   s( 2) = (     0          1          0      )    f =( -0.0000000 )
                  (     1          0          0      )       (  0.0000000 )
                  (     0          0         -1      )       (  0.5000000 )

 cart.    s( 2) = ( -1.0000000 -0.0000000  0.0000000 )    f =( -0.1576392 )
                  (  0.0000000  1.0000000 -0.0000000 )       (  0.0000000 )
                  (  0.0000000  0.0000000 -1.0000000 )       (  0.3063031 )


      isym =  3     inversion                                    

 cryst.   s( 3) = (    -1          0          0      )
                  (     0         -1          0      )
                  (     0          0         -1      )

 cart.    s( 3) = ( -1.0000000  0.0000000  0.0000000 )
                  (  0.0000000 -1.0000000 -0.0000000 )
                  (  0.0000000  0.0000000 -1.0000000 )


      isym =  4     inv. 180 deg rotation - cart. axis [0,1,0]   

 cryst.   s( 4) = (     0         -1          0      )    f =( -0.0000000 )
                  (    -1          0          0      )       (  0.0000000 )
                  (     0          0          1      )       (  0.5000000 )

 cart.    s( 4) = (  1.0000000  0.0000000 -0.0000000 )    f =( -0.1576392 )
                  ( -0.0000000 -1.0000000  0.0000000 )       (  0.0000000 )
                  (  0.0000000  0.0000000  1.0000000 )       (  0.3063031 )


   Cartesian axes

     site n.     atom                  positions (alat units)
         1           O   tau(   1) = (   0.5129918   0.9859910   0.3635818  )
         2           O   tau(   2) = (   0.3936168   0.9859910   0.5553276  )
         3           O   tau(   3) = (   0.5512560   0.4620792   0.2490245  )
         4           O   tau(   4) = (   0.6706310   0.4620792   0.0572787  )
         5           O   tau(   5) = (   0.9088398   0.1190314   0.1157826  )
         6           O   tau(   6) = (   0.3130472   0.1190314   0.1905206  )
         7           O   tau(   7) = (   0.1554080   1.3290389   0.4968237  )
         8           O   tau(   8) = (   0.7512006   1.3290389   0.4220857  )

   Crystallographic axes

     site n.     atom                  positions (cryst. coord.)
         1           O   tau(   1) = (  1.1884000  0.1734000  0.5935000  )
         2           O   tau(   2) = (  1.1734000  0.1884000  0.9065000  )
         3           O   tau(   3) = (  0.8116000 -0.1734000  0.4065000  )
         4           O   tau(   4) = (  0.8266000 -0.1884000  0.0935000  )
         5           O   tau(   5) = (  0.7842000 -0.6198000  0.1890000  )
         6           O   tau(   6) = (  0.3802000 -0.2158000  0.3110000  )
         7           O   tau(   7) = (  1.2158000  0.6198000  0.8110000  )
         8           O   tau(   8) = (  1.6198000  0.2158000  0.6890000  )

     number of k points=   156  Marzari-Vanderbilt smearing, width (Ry)=  0.0100
                       cart. coord. in units 2pi/alat
        k(    1) = (   0.0000000   0.0000000   0.0000000), wk =   0.0018553
        k(    2) = (   0.0000000   0.0000000   0.1483973), wk =   0.0037106
        k(    3) = (   0.0000000   0.0000000   0.2967945), wk =   0.0037106
        k(    4) = (   0.0000000   0.0000000   0.4451918), wk =   0.0037106
        k(    5) = (   0.0000000   0.0000000   0.5935890), wk =   0.0037106
        k(    6) = (   0.0000000   0.0000000   0.7419863), wk =   0.0037106
        k(    7) = (  -0.1035552   0.0986535  -0.0532948), wk =   0.0074212
        k(    8) = (  -0.1035552   0.0986535   0.0951025), wk =   0.0074212
        k(    9) = (  -0.1035552   0.0986535   0.2434997), wk =   0.0074212
        k(   10) = (  -0.1035552   0.0986535   0.3918970), wk =   0.0074212
        k(   11) = (  -0.1035552   0.0986535   0.5402942), wk =   0.0074212
        k(   12) = (  -0.1035552   0.0986535   0.6886915), wk =   0.0074212
        k(   13) = (  -0.1035552   0.0986535  -0.7952811), wk =   0.0074212
        k(   14) = (  -0.1035552   0.0986535  -0.6468838), wk =   0.0074212
        k(   15) = (  -0.1035552   0.0986535  -0.4984866), wk =   0.0074212
        k(   16) = (  -0.1035552   0.0986535  -0.3500893), wk =   0.0074212
        k(   17) = (  -0.1035552   0.0986535  -0.2016921), wk =   0.0074212
        k(   18) = (  -0.2071104   0.1973069  -0.1065896), wk =   0.0074212
        k(   19) = (  -0.2071104   0.1973069   0.0418077), wk =   0.0074212
        k(   20) = (  -0.2071104   0.1973069   0.1902049), wk =   0.0074212
        k(   21) = (  -0.2071104   0.1973069   0.3386022), wk =   0.0074212
        k(   22) = (  -0.2071104   0.1973069   0.4869994), wk =   0.0074212
        k(   23) = (  -0.2071104   0.1973069   0.6353967), wk =   0.0074212
        k(   24) = (  -0.2071104   0.1973069  -0.8485759), wk =   0.0074212
        k(   25) = (  -0.2071104   0.1973069  -0.7001786), wk =   0.0074212
        k(   26) = (  -0.2071104   0.1973069  -0.5517814), wk =   0.0074212
        k(   27) = (  -0.2071104   0.1973069  -0.4033841), wk =   0.0074212
        k(   28) = (  -0.2071104   0.1973069  -0.2549869), wk =   0.0074212
        k(   29) = (  -0.3106657   0.2959604  -0.1598844), wk =   0.0074212
        k(   30) = (  -0.3106657   0.2959604  -0.0114871), wk =   0.0074212
        k(   31) = (  -0.3106657   0.2959604   0.1369101), wk =   0.0074212
        k(   32) = (  -0.3106657   0.2959604   0.2853074), wk =   0.0074212
        k(   33) = (  -0.3106657   0.2959604   0.4337046), wk =   0.0074212
        k(   34) = (  -0.3106657   0.2959604   0.5821019), wk =   0.0074212
        k(   35) = (  -0.3106657   0.2959604  -0.9018707), wk =   0.0074212
        k(   36) = (  -0.3106657   0.2959604  -0.7534734), wk =   0.0074212
        k(   37) = (  -0.3106657   0.2959604  -0.6050762), wk =   0.0074212
        k(   38) = (  -0.3106657   0.2959604  -0.4566789), wk =   0.0074212
        k(   39) = (  -0.3106657   0.2959604  -0.3082816), wk =   0.0074212
        k(   40) = (   0.0000000   0.1973069   0.0000000), wk =   0.0037106
        k(   41) = (   0.0000000   0.1973069   0.1483973), wk =   0.0074212
        k(   42) = (   0.0000000   0.1973069   0.2967945), wk =   0.0074212
        k(   43) = (   0.0000000   0.1973069   0.4451918), wk =   0.0074212
        k(   44) = (   0.0000000   0.1973069   0.5935890), wk =   0.0074212
        k(   45) = (   0.0000000   0.1973069   0.7419863), wk =   0.0074212
        k(   46) = (  -0.1035552   0.2959604  -0.0532948), wk =   0.0074212
        k(   47) = (  -0.1035552   0.2959604   0.0951025), wk =   0.0074212
        k(   48) = (  -0.1035552   0.2959604   0.2434997), wk =   0.0074212
        k(   49) = (  -0.1035552   0.2959604   0.3918970), wk =   0.0074212
        k(   50) = (  -0.1035552   0.2959604   0.5402942), wk =   0.0074212
        k(   51) = (  -0.1035552   0.2959604   0.6886915), wk =   0.0074212
        k(   52) = (  -0.1035552   0.2959604  -0.7952811), wk =   0.0074212
        k(   53) = (  -0.1035552   0.2959604  -0.6468838), wk =   0.0074212
        k(   54) = (  -0.1035552   0.2959604  -0.4984866), wk =   0.0074212
        k(   55) = (  -0.1035552   0.2959604  -0.3500893), wk =   0.0074212
        k(   56) = (  -0.1035552   0.2959604  -0.2016921), wk =   0.0074212
        k(   57) = (  -0.2071104   0.3946138  -0.1065896), wk =   0.0074212
        k(   58) = (  -0.2071104   0.3946138   0.0418077), wk =   0.0074212
        k(   59) = (  -0.2071104   0.3946138   0.1902049), wk =   0.0074212
        k(   60) = (  -0.2071104   0.3946138   0.3386022), wk =   0.0074212
        k(   61) = (  -0.2071104   0.3946138   0.4869994), wk =   0.0074212
        k(   62) = (  -0.2071104   0.3946138   0.6353967), wk =   0.0074212
        k(   63) = (  -0.2071104   0.3946138  -0.8485759), wk =   0.0074212
        k(   64) = (  -0.2071104   0.3946138  -0.7001786), wk =   0.0074212
        k(   65) = (  -0.2071104   0.3946138  -0.5517814), wk =   0.0074212
        k(   66) = (  -0.2071104   0.3946138  -0.4033841), wk =   0.0074212
        k(   67) = (  -0.2071104   0.3946138  -0.2549869), wk =   0.0074212
        k(   68) = (   0.4142209  -0.1973069   0.2131792), wk =   0.0074212
        k(   69) = (   0.4142209  -0.1973069   0.3615764), wk =   0.0074212
        k(   70) = (   0.4142209  -0.1973069   0.5099737), wk =   0.0074212
        k(   71) = (   0.4142209  -0.1973069   0.6583710), wk =   0.0074212
        k(   72) = (   0.4142209  -0.1973069   0.8067682), wk =   0.0074212
        k(   73) = (   0.4142209  -0.1973069   0.9551655), wk =   0.0074212
        k(   74) = (   0.4142209  -0.1973069  -0.5288071), wk =   0.0074212
        k(   75) = (   0.4142209  -0.1973069  -0.3804098), wk =   0.0074212
        k(   76) = (   0.4142209  -0.1973069  -0.2320126), wk =   0.0074212
        k(   77) = (   0.4142209  -0.1973069  -0.0836153), wk =   0.0074212
        k(   78) = (   0.4142209  -0.1973069   0.0647819), wk =   0.0074212
        k(   79) = (   0.3106657  -0.0986535   0.1598844), wk =   0.0074212
        k(   80) = (   0.3106657  -0.0986535   0.3082816), wk =   0.0074212
        k(   81) = (   0.3106657  -0.0986535   0.4566789), wk =   0.0074212
        k(   82) = (   0.3106657  -0.0986535   0.6050762), wk =   0.0074212
        k(   83) = (   0.3106657  -0.0986535   0.7534734), wk =   0.0074212
        k(   84) = (   0.3106657  -0.0986535   0.9018707), wk =   0.0074212
        k(   85) = (   0.3106657  -0.0986535  -0.5821019), wk =   0.0074212
        k(   86) = (   0.3106657  -0.0986535  -0.4337046), wk =   0.0074212
        k(   87) = (   0.3106657  -0.0986535  -0.2853074), wk =   0.0074212
        k(   88) = (   0.3106657  -0.0986535  -0.1369101), wk =   0.0074212
        k(   89) = (   0.3106657  -0.0986535   0.0114871), wk =   0.0074212
        k(   90) = (   0.2071104  -0.0000000   0.1065896), wk =   0.0037106
        k(   91) = (   0.2071104  -0.0000000   0.2549869), wk =   0.0037106
        k(   92) = (   0.2071104  -0.0000000   0.4033841), wk =   0.0037106
        k(   93) = (   0.2071104  -0.0000000   0.5517814), wk =   0.0037106
        k(   94) = (   0.2071104  -0.0000000   0.7001786), wk =   0.0037106
        k(   95) = (   0.2071104  -0.0000000   0.8485759), wk =   0.0037106
        k(   96) = (   0.2071104  -0.0000000  -0.6353967), wk =   0.0037106
        k(   97) = (   0.2071104  -0.0000000  -0.4869994), wk =   0.0037106
        k(   98) = (   0.2071104  -0.0000000  -0.3386022), wk =   0.0037106
        k(   99) = (   0.2071104  -0.0000000  -0.1902049), wk =   0.0037106
        k(  100) = (   0.2071104  -0.0000000  -0.0418077), wk =   0.0037106
        k(  101) = (   0.0000000   0.3946138   0.0000000), wk =   0.0037106
        k(  102) = (   0.0000000   0.3946138   0.1483973), wk =   0.0074212
        k(  103) = (   0.0000000   0.3946138   0.2967945), wk =   0.0074212
        k(  104) = (   0.0000000   0.3946138   0.4451918), wk =   0.0074212
        k(  105) = (   0.0000000   0.3946138   0.5935890), wk =   0.0074212
        k(  106) = (   0.0000000   0.3946138   0.7419863), wk =   0.0074212
        k(  107) = (  -0.1035552   0.4932673  -0.0532948), wk =   0.0074212
        k(  108) = (  -0.1035552   0.4932673   0.0951025), wk =   0.0074212
        k(  109) = (  -0.1035552   0.4932673   0.2434997), wk =   0.0074212
        k(  110) = (  -0.1035552   0.4932673   0.3918970), wk =   0.0074212
        k(  111) = (  -0.1035552   0.4932673   0.5402942), wk =   0.0074212
        k(  112) = (  -0.1035552   0.4932673   0.6886915), wk =   0.0074212
        k(  113) = (  -0.1035552   0.4932673  -0.7952811), wk =   0.0074212
        k(  114) = (  -0.1035552   0.4932673  -0.6468838), wk =   0.0074212
        k(  115) = (  -0.1035552   0.4932673  -0.4984866), wk =   0.0074212
        k(  116) = (  -0.1035552   0.4932673  -0.3500893), wk =   0.0074212
        k(  117) = (  -0.1035552   0.4932673  -0.2016921), wk =   0.0074212
        k(  118) = (   0.5177761  -0.0986535   0.2664740), wk =   0.0074212
        k(  119) = (   0.5177761  -0.0986535   0.4148712), wk =   0.0074212
        k(  120) = (   0.5177761  -0.0986535   0.5632685), wk =   0.0074212
        k(  121) = (   0.5177761  -0.0986535   0.7116658), wk =   0.0074212
        k(  122) = (   0.5177761  -0.0986535   0.8600630), wk =   0.0074212
        k(  123) = (   0.5177761  -0.0986535   1.0084603), wk =   0.0074212
        k(  124) = (   0.5177761  -0.0986535  -0.4755123), wk =   0.0074212
        k(  125) = (   0.5177761  -0.0986535  -0.3271150), wk =   0.0074212
        k(  126) = (   0.5177761  -0.0986535  -0.1787178), wk =   0.0074212
        k(  127) = (   0.5177761  -0.0986535  -0.0303205), wk =   0.0074212
        k(  128) = (   0.5177761  -0.0986535   0.1180767), wk =   0.0074212
        k(  129) = (   0.4142209  -0.0000000   0.2131792), wk =   0.0037106
        k(  130) = (   0.4142209  -0.0000000   0.3615764), wk =   0.0037106
        k(  131) = (   0.4142209  -0.0000000   0.5099737), wk =   0.0037106
        k(  132) = (   0.4142209  -0.0000000   0.6583710), wk =   0.0037106
        k(  133) = (   0.4142209  -0.0000000   0.8067682), wk =   0.0037106
        k(  134) = (   0.4142209  -0.0000000   0.9551655), wk =   0.0037106
        k(  135) = (   0.4142209  -0.0000000  -0.5288071), wk =   0.0037106
        k(  136) = (   0.4142209  -0.0000000  -0.3804098), wk =   0.0037106
        k(  137) = (   0.4142209  -0.0000000  -0.2320126), wk =   0.0037106
        k(  138) = (   0.4142209  -0.0000000  -0.0836153), wk =   0.0037106
        k(  139) = (   0.4142209  -0.0000000   0.0647819), wk =   0.0037106
        k(  140) = (   0.0000000   0.5919208   0.0000000), wk =   0.0037106
        k(  141) = (   0.0000000   0.5919208   0.1483973), wk =   0.0074212
        k(  142) = (   0.0000000   0.5919208   0.2967945), wk =   0.0074212
        k(  143) = (   0.0000000   0.5919208   0.4451918), wk =   0.0074212
        k(  144) = (   0.0000000   0.5919208   0.5935890), wk =   0.0074212
        k(  145) = (   0.0000000   0.5919208   0.7419863), wk =   0.0074212
        k(  146) = (   0.6213313  -0.0000000   0.3197688), wk =   0.0037106
        k(  147) = (   0.6213313  -0.0000000   0.4681660), wk =   0.0037106
        k(  148) = (   0.6213313  -0.0000000   0.6165633), wk =   0.0037106
        k(  149) = (   0.6213313  -0.0000000   0.7649606), wk =   0.0037106
        k(  150) = (   0.6213313  -0.0000000   0.9133578), wk =   0.0037106
        k(  151) = (   0.6213313  -0.0000000   1.0617551), wk =   0.0037106
        k(  152) = (   0.6213313  -0.0000000  -0.4222175), wk =   0.0037106
        k(  153) = (   0.6213313  -0.0000000  -0.2738202), wk =   0.0037106
        k(  154) = (   0.6213313  -0.0000000  -0.1254230), wk =   0.0037106
        k(  155) = (   0.6213313  -0.0000000   0.0229743), wk =   0.0037106
        k(  156) = (   0.6213313  -0.0000000   0.1713715), wk =   0.0037106

                       cryst. coord.
        k(    1) = (   0.0000000   0.0000000   0.0000000), wk =   0.0018553
        k(    2) = (   0.0000000   0.0000000   0.0909091), wk =   0.0037106
        k(    3) = (   0.0000000   0.0000000   0.1818182), wk =   0.0037106
        k(    4) = (   0.0000000   0.0000000   0.2727273), wk =   0.0037106
        k(    5) = (   0.0000000   0.0000000   0.3636364), wk =   0.0037106
        k(    6) = (   0.0000000   0.0000000   0.4545455), wk =   0.0037106
        k(    7) = (   0.0000000   0.1428571  -0.0000000), wk =   0.0074212
        k(    8) = (   0.0000000   0.1428571   0.0909091), wk =   0.0074212
        k(    9) = (   0.0000000   0.1428571   0.1818182), wk =   0.0074212
        k(   10) = (   0.0000000   0.1428571   0.2727273), wk =   0.0074212
        k(   11) = (   0.0000000   0.1428571   0.3636364), wk =   0.0074212
        k(   12) = (   0.0000000   0.1428571   0.4545455), wk =   0.0074212
        k(   13) = (   0.0000000   0.1428571  -0.4545455), wk =   0.0074212
        k(   14) = (   0.0000000   0.1428571  -0.3636364), wk =   0.0074212
        k(   15) = (   0.0000000   0.1428571  -0.2727273), wk =   0.0074212
        k(   16) = (   0.0000000   0.1428571  -0.1818182), wk =   0.0074212
        k(   17) = (   0.0000000   0.1428571  -0.0909091), wk =   0.0074212
        k(   18) = (   0.0000000   0.2857143  -0.0000000), wk =   0.0074212
        k(   19) = (   0.0000000   0.2857143   0.0909091), wk =   0.0074212
        k(   20) = (   0.0000000   0.2857143   0.1818182), wk =   0.0074212
        k(   21) = (   0.0000000   0.2857143   0.2727273), wk =   0.0074212
        k(   22) = (   0.0000000   0.2857143   0.3636364), wk =   0.0074212
        k(   23) = (   0.0000000   0.2857143   0.4545455), wk =   0.0074212
        k(   24) = (   0.0000000   0.2857143  -0.4545455), wk =   0.0074212
        k(   25) = (   0.0000000   0.2857143  -0.3636364), wk =   0.0074212
        k(   26) = (   0.0000000   0.2857143  -0.2727273), wk =   0.0074212
        k(   27) = (   0.0000000   0.2857143  -0.1818182), wk =   0.0074212
        k(   28) = (   0.0000000   0.2857143  -0.0909091), wk =   0.0074212
        k(   29) = (   0.0000000   0.4285714  -0.0000000), wk =   0.0074212
        k(   30) = (   0.0000000   0.4285714   0.0909091), wk =   0.0074212
        k(   31) = (   0.0000000   0.4285714   0.1818182), wk =   0.0074212
        k(   32) = (   0.0000000   0.4285714   0.2727273), wk =   0.0074212
        k(   33) = (   0.0000000   0.4285714   0.3636364), wk =   0.0074212
        k(   34) = (   0.0000000   0.4285714   0.4545455), wk =   0.0074212
        k(   35) = (   0.0000000   0.4285714  -0.4545455), wk =   0.0074212
        k(   36) = (   0.0000000   0.4285714  -0.3636364), wk =   0.0074212
        k(   37) = (   0.0000000   0.4285714  -0.2727273), wk =   0.0074212
        k(   38) = (   0.0000000   0.4285714  -0.1818182), wk =   0.0074212
        k(   39) = (   0.0000000   0.4285714  -0.0909091), wk =   0.0074212
        k(   40) = (   0.1428571   0.1428571  -0.0000000), wk =   0.0037106
        k(   41) = (   0.1428571   0.1428571   0.0909091), wk =   0.0074212
        k(   42) = (   0.1428571   0.1428571   0.1818182), wk =   0.0074212
        k(   43) = (   0.1428571   0.1428571   0.2727273), wk =   0.0074212
        k(   44) = (   0.1428571   0.1428571   0.3636364), wk =   0.0074212
        k(   45) = (   0.1428571   0.1428571   0.4545455), wk =   0.0074212
        k(   46) = (   0.1428571   0.2857143  -0.0000000), wk =   0.0074212
        k(   47) = (   0.1428571   0.2857143   0.0909091), wk =   0.0074212
        k(   48) = (   0.1428571   0.2857143   0.1818182), wk =   0.0074212
        k(   49) = (   0.1428571   0.2857143   0.2727273), wk =   0.0074212
        k(   50) = (   0.1428571   0.2857143   0.3636364), wk =   0.0074212
        k(   51) = (   0.1428571   0.2857143   0.4545455), wk =   0.0074212
        k(   52) = (   0.1428571   0.2857143  -0.4545455), wk =   0.0074212
        k(   53) = (   0.1428571   0.2857143  -0.3636364), wk =   0.0074212
        k(   54) = (   0.1428571   0.2857143  -0.2727273), wk =   0.0074212
        k(   55) = (   0.1428571   0.2857143  -0.1818182), wk =   0.0074212
        k(   56) = (   0.1428571   0.2857143  -0.0909091), wk =   0.0074212
        k(   57) = (   0.1428571   0.4285714  -0.0000000), wk =   0.0074212
        k(   58) = (   0.1428571   0.4285714   0.0909091), wk =   0.0074212
        k(   59) = (   0.1428571   0.4285714   0.1818182), wk =   0.0074212
        k(   60) = (   0.1428571   0.4285714   0.2727273), wk =   0.0074212
        k(   61) = (   0.1428571   0.4285714   0.3636364), wk =   0.0074212
        k(   62) = (   0.1428571   0.4285714   0.4545455), wk =   0.0074212
        k(   63) = (   0.1428571   0.4285714  -0.4545455), wk =   0.0074212
        k(   64) = (   0.1428571   0.4285714  -0.3636364), wk =   0.0074212
        k(   65) = (   0.1428571   0.4285714  -0.2727273), wk =   0.0074212
        k(   66) = (   0.1428571   0.4285714  -0.1818182), wk =   0.0074212
        k(   67) = (   0.1428571   0.4285714  -0.0909091), wk =   0.0074212
        k(   68) = (   0.1428571  -0.4285714   0.0000000), wk =   0.0074212
        k(   69) = (   0.1428571  -0.4285714   0.0909091), wk =   0.0074212
        k(   70) = (   0.1428571  -0.4285714   0.1818182), wk =   0.0074212
        k(   71) = (   0.1428571  -0.4285714   0.2727273), wk =   0.0074212
        k(   72) = (   0.1428571  -0.4285714   0.3636364), wk =   0.0074212
        k(   73) = (   0.1428571  -0.4285714   0.4545455), wk =   0.0074212
        k(   74) = (   0.1428571  -0.4285714  -0.4545455), wk =   0.0074212
        k(   75) = (   0.1428571  -0.4285714  -0.3636364), wk =   0.0074212
        k(   76) = (   0.1428571  -0.4285714  -0.2727273), wk =   0.0074212
        k(   77) = (   0.1428571  -0.4285714  -0.1818182), wk =   0.0074212
        k(   78) = (   0.1428571  -0.4285714  -0.0909091), wk =   0.0074212
        k(   79) = (   0.1428571  -0.2857143   0.0000000), wk =   0.0074212
        k(   80) = (   0.1428571  -0.2857143   0.0909091), wk =   0.0074212
        k(   81) = (   0.1428571  -0.2857143   0.1818182), wk =   0.0074212
        k(   82) = (   0.1428571  -0.2857143   0.2727273), wk =   0.0074212
        k(   83) = (   0.1428571  -0.2857143   0.3636364), wk =   0.0074212
        k(   84) = (   0.1428571  -0.2857143   0.4545455), wk =   0.0074212
        k(   85) = (   0.1428571  -0.2857143  -0.4545455), wk =   0.0074212
        k(   86) = (   0.1428571  -0.2857143  -0.3636364), wk =   0.0074212
        k(   87) = (   0.1428571  -0.2857143  -0.2727273), wk =   0.0074212
        k(   88) = (   0.1428571  -0.2857143  -0.1818182), wk =   0.0074212
        k(   89) = (   0.1428571  -0.2857143  -0.0909091), wk =   0.0074212
        k(   90) = (   0.1428571  -0.1428571   0.0000000), wk =   0.0037106
        k(   91) = (   0.1428571  -0.1428571   0.0909091), wk =   0.0037106
        k(   92) = (   0.1428571  -0.1428571   0.1818182), wk =   0.0037106
        k(   93) = (   0.1428571  -0.1428571   0.2727273), wk =   0.0037106
        k(   94) = (   0.1428571  -0.1428571   0.3636364), wk =   0.0037106
        k(   95) = (   0.1428571  -0.1428571   0.4545455), wk =   0.0037106
        k(   96) = (   0.1428571  -0.1428571  -0.4545455), wk =   0.0037106
        k(   97) = (   0.1428571  -0.1428571  -0.3636364), wk =   0.0037106
        k(   98) = (   0.1428571  -0.1428571  -0.2727273), wk =   0.0037106
        k(   99) = (   0.1428571  -0.1428571  -0.1818182), wk =   0.0037106
        k(  100) = (   0.1428571  -0.1428571  -0.0909091), wk =   0.0037106
        k(  101) = (   0.2857143   0.2857143  -0.0000000), wk =   0.0037106
        k(  102) = (   0.2857143   0.2857143   0.0909091), wk =   0.0074212
        k(  103) = (   0.2857143   0.2857143   0.1818182), wk =   0.0074212
        k(  104) = (   0.2857143   0.2857143   0.2727273), wk =   0.0074212
        k(  105) = (   0.2857143   0.2857143   0.3636364), wk =   0.0074212
        k(  106) = (   0.2857143   0.2857143   0.4545455), wk =   0.0074212
        k(  107) = (   0.2857143   0.4285714  -0.0000000), wk =   0.0074212
        k(  108) = (   0.2857143   0.4285714   0.0909091), wk =   0.0074212
        k(  109) = (   0.2857143   0.4285714   0.1818182), wk =   0.0074212
        k(  110) = (   0.2857143   0.4285714   0.2727273), wk =   0.0074212
        k(  111) = (   0.2857143   0.4285714   0.3636364), wk =   0.0074212
        k(  112) = (   0.2857143   0.4285714   0.4545455), wk =   0.0074212
        k(  113) = (   0.2857143   0.4285714  -0.4545455), wk =   0.0074212
        k(  114) = (   0.2857143   0.4285714  -0.3636364), wk =   0.0074212
        k(  115) = (   0.2857143   0.4285714  -0.2727273), wk =   0.0074212
        k(  116) = (   0.2857143   0.4285714  -0.1818182), wk =   0.0074212
        k(  117) = (   0.2857143   0.4285714  -0.0909091), wk =   0.0074212
        k(  118) = (   0.2857143  -0.4285714   0.0000000), wk =   0.0074212
        k(  119) = (   0.2857143  -0.4285714   0.0909091), wk =   0.0074212
        k(  120) = (   0.2857143  -0.4285714   0.1818182), wk =   0.0074212
        k(  121) = (   0.2857143  -0.4285714   0.2727273), wk =   0.0074212
        k(  122) = (   0.2857143  -0.4285714   0.3636364), wk =   0.0074212
        k(  123) = (   0.2857143  -0.4285714   0.4545455), wk =   0.0074212
        k(  124) = (   0.2857143  -0.4285714  -0.4545455), wk =   0.0074212
        k(  125) = (   0.2857143  -0.4285714  -0.3636364), wk =   0.0074212
        k(  126) = (   0.2857143  -0.4285714  -0.2727273), wk =   0.0074212
        k(  127) = (   0.2857143  -0.4285714  -0.1818182), wk =   0.0074212
        k(  128) = (   0.2857143  -0.4285714  -0.0909091), wk =   0.0074212
        k(  129) = (   0.2857143  -0.2857143   0.0000000), wk =   0.0037106
        k(  130) = (   0.2857143  -0.2857143   0.0909091), wk =   0.0037106
        k(  131) = (   0.2857143  -0.2857143   0.1818182), wk =   0.0037106
        k(  132) = (   0.2857143  -0.2857143   0.2727273), wk =   0.0037106
        k(  133) = (   0.2857143  -0.2857143   0.3636364), wk =   0.0037106
        k(  134) = (   0.2857143  -0.2857143   0.4545455), wk =   0.0037106
        k(  135) = (   0.2857143  -0.2857143  -0.4545455), wk =   0.0037106
        k(  136) = (   0.2857143  -0.2857143  -0.3636364), wk =   0.0037106
        k(  137) = (   0.2857143  -0.2857143  -0.2727273), wk =   0.0037106
        k(  138) = (   0.2857143  -0.2857143  -0.1818182), wk =   0.0037106
        k(  139) = (   0.2857143  -0.2857143  -0.0909091), wk =   0.0037106
        k(  140) = (   0.4285714   0.4285714   0.0000000), wk =   0.0037106
        k(  141) = (   0.4285714   0.4285714   0.0909091), wk =   0.0074212
        k(  142) = (   0.4285714   0.4285714   0.1818182), wk =   0.0074212
        k(  143) = (   0.4285714   0.4285714   0.2727273), wk =   0.0074212
        k(  144) = (   0.4285714   0.4285714   0.3636364), wk =   0.0074212
        k(  145) = (   0.4285714   0.4285714   0.4545455), wk =   0.0074212
        k(  146) = (   0.4285714  -0.4285714   0.0000000), wk =   0.0037106
        k(  147) = (   0.4285714  -0.4285714   0.0909091), wk =   0.0037106
        k(  148) = (   0.4285714  -0.4285714   0.1818182), wk =   0.0037106
        k(  149) = (   0.4285714  -0.4285714   0.2727273), wk =   0.0037106
        k(  150) = (   0.4285714  -0.4285714   0.3636364), wk =   0.0037106
        k(  151) = (   0.4285714  -0.4285714   0.4545455), wk =   0.0037106
        k(  152) = (   0.4285714  -0.4285714  -0.4545455), wk =   0.0037106
        k(  153) = (   0.4285714  -0.4285714  -0.3636364), wk =   0.0037106
        k(  154) = (   0.4285714  -0.4285714  -0.2727273), wk =   0.0037106
        k(  155) = (   0.4285714  -0.4285714  -0.1818182), wk =   0.0037106
        k(  156) = (   0.4285714  -0.4285714  -0.0909091), wk =   0.0037106

     Dense  grid:   156471 G-vectors     FFT dimensions: (  80,  80,  60)

     Smooth grid:    55363 G-vectors     FFT dimensions: (  60,  60,  40)

     Dynamical RAM for                 wfc:       3.06 MB

     Dynamical RAM for     wfc (w. buffer):     957.76 MB

     Dynamical RAM for           str. fact:       2.39 MB

     Dynamical RAM for           local pot:       0.00 MB

     Dynamical RAM for          nlocal pot:       6.75 MB

     Dynamical RAM for                qrad:       0.46 MB

     Dynamical RAM for          rho,v,vnew:      31.90 MB

     Dynamical RAM for               rhoin:      10.63 MB

     Dynamical RAM for            rho*nmix:      76.40 MB

     Dynamical RAM for           G-vectors:       9.38 MB

     Dynamical RAM for          h,s,v(r/c):       0.15 MB

     Dynamical RAM for          <psi|beta>:       0.03 MB

     Dynamical RAM for                 psi:       6.12 MB

     Dynamical RAM for                hpsi:       6.12 MB

     Dynamical RAM for                spsi:       6.12 MB

     Dynamical RAM for      wfcinit/wfcrot:       6.78 MB

     Dynamical RAM for           addusdens:     124.15 MB

     Dynamical RAM for          addusforce:     157.59 MB

     Dynamical RAM for         addusstress:     122.96 MB

     Estimated static dynamical RAM per process >       1.02 GB

     Estimated max dynamical RAM per process >       1.25 GB

     Check: negative core charge=   -0.000003
     Generating pointlists ...
     new r_m :   0.0932 (alat units)  1.1525 (a.u.) for type    1

     Initial potential from superposition of free atoms

     starting charge      48.0000, renormalised to      48.0000
     Starting wfcs are   32 randomized atomic wfcs
     Checking if some PAW data can be deallocated... 

     total cpu time spent up to now is        7.6 secs

     per-process dynamical memory:  1727.1 Mb

     Self-consistent Calculation
[tb_dev] Currently allocated     1.76E+00 Mbytes, locked:    0 /  10
[tb_pin] Currently allocated     0.00E+00 Mbytes, locked:    0 /   0

     iteration #  1     ecut=    50.00 Ry     beta= 0.40
     Davidson diagonalization with overlap

---- Real-time Memory Report at c_bands before calling an iterative solver
          2083 MiB given to the printing process from OS
          1696 MiB allocation reported by mallinfo(arena+hblkhd)
         56470 MiB available memory on the node where the printing process lives
     GPU memory used/free/total (MiB): 1256 / 15024 / 16280
------------------
     ethr =  1.00E-02,  avg # of iterations =  2.0

     total cpu time spent up to now is       15.1 secs

     total energy              =    -324.92584523 Ry
     estimated scf accuracy    <       3.33703084 Ry

     total magnetization       =     4.00 Bohr mag/cell
     absolute magnetization    =     4.06 Bohr mag/cell
[tb_dev] Currently allocated     4.12E+00 Mbytes, locked:    0 /  14
[tb_pin] Currently allocated     0.00E+00 Mbytes, locked:    0 /   0

     iteration #  2     ecut=    50.00 Ry     beta= 0.40
     Davidson diagonalization with overlap

---- Real-time Memory Report at c_bands before calling an iterative solver
          2308 MiB given to the printing process from OS
          1746 MiB allocation reported by mallinfo(arena+hblkhd)
         56424 MiB available memory on the node where the printing process lives
     GPU memory used/free/total (MiB): 1426 / 14854 / 16280
------------------
     ethr =  6.95E-03,  avg # of iterations =  6.0

     total cpu time spent up to now is       28.1 secs

     total energy              =    -327.10148135 Ry
     estimated scf accuracy    <      12.81471575 Ry

     total magnetization       =     5.43 Bohr mag/cell
     absolute magnetization    =     5.49 Bohr mag/cell
[tb_dev] Currently allocated     4.12E+00 Mbytes, locked:    0 /  14
[tb_pin] Currently allocated     0.00E+00 Mbytes, locked:    0 /   0

     iteration #  3     ecut=    50.00 Ry     beta= 0.40
     Davidson diagonalization with overlap

---- Real-time Memory Report at c_bands before calling an iterative solver
          2479 MiB given to the printing process from OS
          1769 MiB allocation reported by mallinfo(arena+hblkhd)
         56396 MiB available memory on the node where the printing process lives
     GPU memory used/free/total (MiB): 1520 / 14760 / 16280
------------------
     ethr =  6.95E-03,  avg # of iterations =  2.0

     total cpu time spent up to now is       36.2 secs

     total energy              =    -327.10633753 Ry
     estimated scf accuracy    <       6.60918414 Ry

     total magnetization       =     8.84 Bohr mag/cell
     absolute magnetization    =     8.86 Bohr mag/cell
[tb_dev] Currently allocated     4.12E+00 Mbytes, locked:    0 /  14
[tb_pin] Currently allocated     0.00E+00 Mbytes, locked:    0 /   0

     iteration #  4     ecut=    50.00 Ry     beta= 0.40
     Davidson diagonalization with overlap

---- Real-time Memory Report at c_bands before calling an iterative solver
          2569 MiB given to the printing process from OS
          1803 MiB allocation reported by mallinfo(arena+hblkhd)
         56380 MiB available memory on the node where the printing process lives
     GPU memory used/free/total (MiB): 1622 / 14658 / 16280
------------------
     ethr =  6.95E-03,  avg # of iterations =  1.0

     total cpu time spent up to now is       43.1 secs

     total energy              =    -327.09410834 Ry
     estimated scf accuracy    <       5.63988227 Ry

     total magnetization       =     9.79 Bohr mag/cell
     absolute magnetization    =     9.80 Bohr mag/cell
[tb_dev] Currently allocated     4.12E+00 Mbytes, locked:    0 /  14
[tb_pin] Currently allocated     0.00E+00 Mbytes, locked:    0 /   0

     iteration #  5     ecut=    50.00 Ry     beta= 0.40
     Davidson diagonalization with overlap

---- Real-time Memory Report at c_bands before calling an iterative solver
          2646 MiB given to the printing process from OS
          1824 MiB allocation reported by mallinfo(arena+hblkhd)
         56357 MiB available memory on the node where the printing process lives
     GPU memory used/free/total (MiB): 1622 / 14658 / 16280
------------------
     ethr =  6.95E-03,  avg # of iterations =  1.0

     total cpu time spent up to now is       49.9 secs

     total energy              =    -326.84759772 Ry
     estimated scf accuracy    <       5.48994029 Ry

     total magnetization       =     9.25 Bohr mag/cell
     absolute magnetization    =     9.26 Bohr mag/cell
[tb_dev] Currently allocated     4.12E+00 Mbytes, locked:    0 /  14
[tb_pin] Currently allocated     0.00E+00 Mbytes, locked:    0 /   0

     iteration #  6     ecut=    50.00 Ry     beta= 0.40
     Davidson diagonalization with overlap

---- Real-time Memory Report at c_bands before calling an iterative solver
          2720 MiB given to the printing process from OS
          1844 MiB allocation reported by mallinfo(arena+hblkhd)
         56339 MiB available memory on the node where the printing process lives
     GPU memory used/free/total (MiB): 1622 / 14658 / 16280
------------------
     ethr =  6.95E-03,  avg # of iterations =  1.0

     total cpu time spent up to now is       56.7 secs

     total energy              =    -326.12188137 Ry
     estimated scf accuracy    <       3.91760183 Ry

     total magnetization       =     7.17 Bohr mag/cell
     absolute magnetization    =     7.17 Bohr mag/cell
[tb_dev] Currently allocated     4.12E+00 Mbytes, locked:    0 /  14
[tb_pin] Currently allocated     0.00E+00 Mbytes, locked:    0 /   0

     iteration #  7     ecut=    50.00 Ry     beta= 0.40
     Davidson diagonalization with overlap

---- Real-time Memory Report at c_bands before calling an iterative solver
          2754 MiB given to the printing process from OS
          1866 MiB allocation reported by mallinfo(arena+hblkhd)
         56318 MiB available memory on the node where the printing process lives
     GPU memory used/free/total (MiB): 1622 / 14658 / 16280
------------------
     ethr =  6.95E-03,  avg # of iterations =  1.0

     total cpu time spent up to now is       63.5 secs

     total energy              =    -326.59280893 Ry
     estimated scf accuracy    <       5.02649020 Ry

     total magnetization       =     2.09 Bohr mag/cell
     absolute magnetization    =     2.24 Bohr mag/cell
[tb_dev] Currently allocated     4.12E+00 Mbytes, locked:    0 /  14
[tb_pin] Currently allocated     0.00E+00 Mbytes, locked:    0 /   0

     iteration #  8     ecut=    50.00 Ry     beta= 0.40
     Davidson diagonalization with overlap

---- Real-time Memory Report at c_bands before calling an iterative solver
          2787 MiB given to the printing process from OS
          1887 MiB allocation reported by mallinfo(arena+hblkhd)
         56296 MiB available memory on the node where the printing process lives
     GPU memory used/free/total (MiB): 1622 / 14658 / 16280
------------------
     ethr =  6.95E-03,  avg # of iterations =  1.0

     total cpu time spent up to now is       70.3 secs

     total energy              =    -326.66719054 Ry
     estimated scf accuracy    <       0.08678661 Ry

     total magnetization       =     4.82 Bohr mag/cell
     absolute magnetization    =     4.85 Bohr mag/cell
[tb_dev] Currently allocated     4.12E+00 Mbytes, locked:    0 /  14
[tb_pin] Currently allocated     0.00E+00 Mbytes, locked:    0 /   0

     iteration #  9     ecut=    50.00 Ry     beta= 0.40
     Davidson diagonalization with overlap

---- Real-time Memory Report at c_bands before calling an iterative solver
          2805 MiB given to the printing process from OS
          1905 MiB allocation reported by mallinfo(arena+hblkhd)
         56279 MiB available memory on the node where the printing process lives
     GPU memory used/free/total (MiB): 1622 / 14658 / 16280
------------------
     ethr =  1.81E-04,  avg # of iterations =  4.2

     total cpu time spent up to now is       80.8 secs

     total energy              =    -326.75476724 Ry
     estimated scf accuracy    <       2.63429736 Ry

     total magnetization       =     5.62 Bohr mag/cell
     absolute magnetization    =     6.08 Bohr mag/cell
[tb_dev] Currently allocated     4.12E+00 Mbytes, locked:    0 /  14
[tb_pin] Currently allocated     0.00E+00 Mbytes, locked:    0 /   0

     iteration # 10     ecut=    50.00 Ry     beta= 0.40
     Davidson diagonalization with overlap

---- Real-time Memory Report at c_bands before calling an iterative solver
          2824 MiB given to the printing process from OS
          1925 MiB allocation reported by mallinfo(arena+hblkhd)
         56259 MiB available memory on the node where the printing process lives
     GPU memory used/free/total (MiB): 1648 / 14632 / 16280
------------------
     ethr =  1.81E-04,  avg # of iterations =  1.5

     total cpu time spent up to now is       88.2 secs

     total energy              =    -326.77818724 Ry
     estimated scf accuracy    <       2.23655035 Ry

     total magnetization       =     4.70 Bohr mag/cell
     absolute magnetization    =     5.99 Bohr mag/cell
[tb_dev] Currently allocated     4.12E+00 Mbytes, locked:    0 /  14
[tb_pin] Currently allocated     0.00E+00 Mbytes, locked:    0 /   0

     iteration # 11     ecut=    50.00 Ry     beta= 0.40
     Davidson diagonalization with overlap

---- Real-time Memory Report at c_bands before calling an iterative solver
          2843 MiB given to the printing process from OS
          1940 MiB allocation reported by mallinfo(arena+hblkhd)
         56241 MiB available memory on the node where the printing process lives
     GPU memory used/free/total (MiB): 1648 / 14632 / 16280
------------------
     ethr =  1.81E-04,  avg # of iterations =  1.1

     total cpu time spent up to now is       95.3 secs

     total energy              =    -326.66718069 Ry
     estimated scf accuracy    <       2.74422404 Ry

     total magnetization       =     4.25 Bohr mag/cell
     absolute magnetization    =     6.05 Bohr mag/cell
[tb_dev] Currently allocated     4.12E+00 Mbytes, locked:    0 /  14
[tb_pin] Currently allocated     0.00E+00 Mbytes, locked:    0 /   0

     iteration # 12     ecut=    50.00 Ry     beta= 0.40
     Davidson diagonalization with overlap

---- Real-time Memory Report at c_bands before calling an iterative solver
          2860 MiB given to the printing process from OS
          1955 MiB allocation reported by mallinfo(arena+hblkhd)
         56226 MiB available memory on the node where the printing process lives
     GPU memory used/free/total (MiB): 1648 / 14632 / 16280
------------------
     ethr =  1.81E-04,  avg # of iterations =  2.1

     total cpu time spent up to now is      103.2 secs

     total energy              =    -326.66050334 Ry
     estimated scf accuracy    <       0.37506049 Ry

     total magnetization       =     2.85 Bohr mag/cell
     absolute magnetization    =     5.42 Bohr mag/cell
[tb_dev] Currently allocated     4.12E+00 Mbytes, locked:    0 /  14
[tb_pin] Currently allocated     0.00E+00 Mbytes, locked:    0 /   0

     iteration # 13     ecut=    50.00 Ry     beta= 0.40
     Davidson diagonalization with overlap

---- Real-time Memory Report at c_bands before calling an iterative solver
          2875 MiB given to the printing process from OS
          1969 MiB allocation reported by mallinfo(arena+hblkhd)
         56213 MiB available memory on the node where the printing process lives
     GPU memory used/free/total (MiB): 1648 / 14632 / 16280
------------------
     ethr =  1.81E-04,  avg # of iterations =  2.8

     total cpu time spent up to now is      111.8 secs

     total energy              =    -326.64423865 Ry
     estimated scf accuracy    <       1.23966897 Ry

     total magnetization       =    -0.28 Bohr mag/cell
     absolute magnetization    =     3.20 Bohr mag/cell
[tb_dev] Currently allocated     4.12E+00 Mbytes, locked:    0 /  14
[tb_pin] Currently allocated     0.00E+00 Mbytes, locked:    0 /   0

     iteration # 14     ecut=    50.00 Ry     beta= 0.40
     Davidson diagonalization with overlap

---- Real-time Memory Report at c_bands before calling an iterative solver
          2891 MiB given to the printing process from OS
          1984 MiB allocation reported by mallinfo(arena+hblkhd)
         56195 MiB available memory on the node where the printing process lives
     GPU memory used/free/total (MiB): 1648 / 14632 / 16280
------------------
     ethr =  1.81E-04,  avg # of iterations =  2.6

     total cpu time spent up to now is      120.1 secs

     total energy              =    -326.69476390 Ry
     estimated scf accuracy    <       0.19321179 Ry

     total magnetization       =     1.92 Bohr mag/cell
     absolute magnetization    =     5.49 Bohr mag/cell
[tb_dev] Currently allocated     4.12E+00 Mbytes, locked:    0 /  14
[tb_pin] Currently allocated     0.00E+00 Mbytes, locked:    0 /   0

     iteration # 15     ecut=    50.00 Ry     beta= 0.40
     Davidson diagonalization with overlap

---- Real-time Memory Report at c_bands before calling an iterative solver
          2905 MiB given to the printing process from OS
          1999 MiB allocation reported by mallinfo(arena+hblkhd)
         56180 MiB available memory on the node where the printing process lives
     GPU memory used/free/total (MiB): 1648 / 14632 / 16280
------------------
     ethr =  1.81E-04,  avg # of iterations =  1.0

     total cpu time spent up to now is      126.9 secs

     total energy              =    -326.69785787 Ry
     estimated scf accuracy    <       0.12815560 Ry

     total magnetization       =     2.74 Bohr mag/cell
     absolute magnetization    =     5.19 Bohr mag/cell
[tb_dev] Currently allocated     4.12E+00 Mbytes, locked:    0 /  14
[tb_pin] Currently allocated     0.00E+00 Mbytes, locked:    0 /   0

     iteration # 16     ecut=    50.00 Ry     beta= 0.40
     Davidson diagonalization with overlap

---- Real-time Memory Report at c_bands before calling an iterative solver
          2920 MiB given to the printing process from OS
          2014 MiB allocation reported by mallinfo(arena+hblkhd)
         56167 MiB available memory on the node where the printing process lives
     GPU memory used/free/total (MiB): 1648 / 14632 / 16280
------------------
     ethr =  1.81E-04,  avg # of iterations =  1.0

     total cpu time spent up to now is      133.7 secs

     total energy              =    -326.69964907 Ry
     estimated scf accuracy    <       0.01696560 Ry

     total magnetization       =     2.07 Bohr mag/cell
     absolute magnetization    =     4.76 Bohr mag/cell
[tb_dev] Currently allocated     4.12E+00 Mbytes, locked:    0 /  14
[tb_pin] Currently allocated     0.00E+00 Mbytes, locked:    0 /   0

     iteration # 17     ecut=    50.00 Ry     beta= 0.40
     Davidson diagonalization with overlap

---- Real-time Memory Report at c_bands before calling an iterative solver
          2935 MiB given to the printing process from OS
          2028 MiB allocation reported by mallinfo(arena+hblkhd)
         56151 MiB available memory on the node where the printing process lives
     GPU memory used/free/total (MiB): 1648 / 14632 / 16280
------------------
     ethr =  3.53E-05,  avg # of iterations =  1.8

     total cpu time spent up to now is      141.3 secs

     total energy              =    -326.70114823 Ry
     estimated scf accuracy    <       0.04897686 Ry

     total magnetization       =     2.32 Bohr mag/cell
     absolute magnetization    =     4.97 Bohr mag/cell
[tb_dev] Currently allocated     4.12E+00 Mbytes, locked:    0 /  14
[tb_pin] Currently allocated     0.00E+00 Mbytes, locked:    0 /   0

     iteration # 18     ecut=    50.00 Ry     beta= 0.40
     Davidson diagonalization with overlap

---- Real-time Memory Report at c_bands before calling an iterative solver
          2952 MiB given to the printing process from OS
          2043 MiB allocation reported by mallinfo(arena+hblkhd)
         56136 MiB available memory on the node where the printing process lives
     GPU memory used/free/total (MiB): 1648 / 14632 / 16280
------------------
     ethr =  3.53E-05,  avg # of iterations =  1.0

     total cpu time spent up to now is      148.0 secs

     total energy              =    -326.70613319 Ry
     estimated scf accuracy    <       0.05134532 Ry

     total magnetization       =     2.31 Bohr mag/cell
     absolute magnetization    =     4.97 Bohr mag/cell
[tb_dev] Currently allocated     4.12E+00 Mbytes, locked:    0 /  14
[tb_pin] Currently allocated     0.00E+00 Mbytes, locked:    0 /   0

     iteration # 19     ecut=    50.00 Ry     beta= 0.40
     Davidson diagonalization with overlap

---- Real-time Memory Report at c_bands before calling an iterative solver
          2968 MiB given to the printing process from OS
         -2037 MiB allocation reported by mallinfo(arena+hblkhd)
         56120 MiB available memory on the node where the printing process lives
     GPU memory used/free/total (MiB): 1648 / 14632 / 16280
------------------
     ethr =  3.53E-05,  avg # of iterations =  3.0

     total cpu time spent up to now is      156.7 secs

     total energy              =    -326.71187030 Ry
     estimated scf accuracy    <       0.07351034 Ry

     total magnetization       =     2.36 Bohr mag/cell
     absolute magnetization    =     4.93 Bohr mag/cell
[tb_dev] Currently allocated     4.12E+00 Mbytes, locked:    0 /  14
[tb_pin] Currently allocated     0.00E+00 Mbytes, locked:    0 /   0

     iteration # 20     ecut=    50.00 Ry     beta= 0.40
     Davidson diagonalization with overlap

---- Real-time Memory Report at c_bands before calling an iterative solver
          2984 MiB given to the printing process from OS
         -2022 MiB allocation reported by mallinfo(arena+hblkhd)
         56102 MiB available memory on the node where the printing process lives
     GPU memory used/free/total (MiB): 1648 / 14632 / 16280
------------------
     ethr =  3.53E-05,  avg # of iterations =  1.0

     total cpu time spent up to now is      163.5 secs

     total energy              =    -326.71090678 Ry
     estimated scf accuracy    <       0.07235587 Ry

     total magnetization       =     2.27 Bohr mag/cell
     absolute magnetization    =     4.94 Bohr mag/cell
[tb_dev] Currently allocated     4.12E+00 Mbytes, locked:    0 /  14
[tb_pin] Currently allocated     0.00E+00 Mbytes, locked:    0 /   0

     iteration # 21     ecut=    50.00 Ry     beta= 0.40
     Davidson diagonalization with overlap

---- Real-time Memory Report at c_bands before calling an iterative solver
          2999 MiB given to the printing process from OS
         -2008 MiB allocation reported by mallinfo(arena+hblkhd)
         56088 MiB available memory on the node where the printing process lives
     GPU memory used/free/total (MiB): 1648 / 14632 / 16280
------------------
     ethr =  3.53E-05,  avg # of iterations =  1.0

     total cpu time spent up to now is      170.4 secs

     total energy              =    -326.71092615 Ry
     estimated scf accuracy    <       0.04081569 Ry

     total magnetization       =     2.46 Bohr mag/cell
     absolute magnetization    =     5.01 Bohr mag/cell
[tb_dev] Currently allocated     4.12E+00 Mbytes, locked:    0 /  14
[tb_pin] Currently allocated     0.00E+00 Mbytes, locked:    0 /   0

     iteration # 22     ecut=    50.00 Ry     beta= 0.40
     Davidson diagonalization with overlap

---- Real-time Memory Report at c_bands before calling an iterative solver
          3018 MiB given to the printing process from OS
         -1993 MiB allocation reported by mallinfo(arena+hblkhd)
         56072 MiB available memory on the node where the printing process lives
     GPU memory used/free/total (MiB): 1648 / 14632 / 16280
------------------
     ethr =  3.53E-05,  avg # of iterations =  1.1

     total cpu time spent up to now is      177.3 secs

     total energy              =    -326.71238501 Ry
     estimated scf accuracy    <       0.03154861 Ry

     total magnetization       =     2.77 Bohr mag/cell
     absolute magnetization    =     5.12 Bohr mag/cell
[tb_dev] Currently allocated     4.12E+00 Mbytes, locked:    0 /  14
[tb_pin] Currently allocated     0.00E+00 Mbytes, locked:    0 /   0

     iteration # 23     ecut=    50.00 Ry     beta= 0.40
     Davidson diagonalization with overlap

---- Real-time Memory Report at c_bands before calling an iterative solver
          3032 MiB given to the printing process from OS
         -1978 MiB allocation reported by mallinfo(arena+hblkhd)
         56036 MiB available memory on the node where the printing process lives
     GPU memory used/free/total (MiB): 1648 / 14632 / 16280
------------------
     ethr =  3.53E-05,  avg # of iterations =  1.0

     total cpu time spent up to now is      184.4 secs

     total energy              =    -326.71143598 Ry
     estimated scf accuracy    <       0.02745921 Ry

     total magnetization       =     2.82 Bohr mag/cell
     absolute magnetization    =     5.17 Bohr mag/cell
[tb_dev] Currently allocated     4.12E+00 Mbytes, locked:    0 /  14
[tb_pin] Currently allocated     0.00E+00 Mbytes, locked:    0 /   0

     iteration # 24     ecut=    50.00 Ry     beta= 0.40
     Davidson diagonalization with overlap

---- Real-time Memory Report at c_bands before calling an iterative solver
          3047 MiB given to the printing process from OS
         -1963 MiB allocation reported by mallinfo(arena+hblkhd)
         56019 MiB available memory on the node where the printing process lives
     GPU memory used/free/total (MiB): 1648 / 14632 / 16280
------------------
     ethr =  3.53E-05,  avg # of iterations =  1.1

     total cpu time spent up to now is      191.3 secs

     total energy              =    -326.71386666 Ry
     estimated scf accuracy    <       0.02981489 Ry

     total magnetization       =     2.86 Bohr mag/cell
     absolute magnetization    =     5.28 Bohr mag/cell
[tb_dev] Currently allocated     4.12E+00 Mbytes, locked:    0 /  14
[tb_pin] Currently allocated     0.00E+00 Mbytes, locked:    0 /   0

     iteration # 25     ecut=    50.00 Ry     beta= 0.40
     Davidson diagonalization with overlap

---- Real-time Memory Report at c_bands before calling an iterative solver
          3063 MiB given to the printing process from OS
         -1949 MiB allocation reported by mallinfo(arena+hblkhd)
         56011 MiB available memory on the node where the printing process lives
     GPU memory used/free/total (MiB): 1648 / 14632 / 16280
------------------
     ethr =  3.53E-05,  avg # of iterations =  1.0

     total cpu time spent up to now is      198.0 secs

     total energy              =    -326.71289133 Ry
     estimated scf accuracy    <       0.03918576 Ry

     total magnetization       =     2.71 Bohr mag/cell
     absolute magnetization    =     5.37 Bohr mag/cell
[tb_dev] Currently allocated     4.12E+00 Mbytes, locked:    0 /  14
[tb_pin] Currently allocated     0.00E+00 Mbytes, locked:    0 /   0

     iteration # 26     ecut=    50.00 Ry     beta= 0.40
     Davidson diagonalization with overlap

---- Real-time Memory Report at c_bands before calling an iterative solver
          3081 MiB given to the printing process from OS
         -1934 MiB allocation reported by mallinfo(arena+hblkhd)
         55997 MiB available memory on the node where the printing process lives
     GPU memory used/free/total (MiB): 1648 / 14632 / 16280
------------------
     ethr =  3.53E-05,  avg # of iterations =  2.9

     total cpu time spent up to now is      206.6 secs

     total energy              =    -326.69368976 Ry
     estimated scf accuracy    <       0.01570355 Ry

     total magnetization       =     4.05 Bohr mag/cell
     absolute magnetization    =     6.05 Bohr mag/cell
[tb_dev] Currently allocated     4.12E+00 Mbytes, locked:    0 /  14
[tb_pin] Currently allocated     0.00E+00 Mbytes, locked:    0 /   0

     iteration # 27     ecut=    50.00 Ry     beta= 0.40
     Davidson diagonalization with overlap

---- Real-time Memory Report at c_bands before calling an iterative solver
          3096 MiB given to the printing process from OS
         -1919 MiB allocation reported by mallinfo(arena+hblkhd)
         55984 MiB available memory on the node where the printing process lives
     GPU memory used/free/total (MiB): 1648 / 14632 / 16280
------------------
     ethr =  3.27E-05,  avg # of iterations =  3.4

     total cpu time spent up to now is      216.5 secs

     total energy              =    -326.70207967 Ry
     estimated scf accuracy    <       0.01831371 Ry

     total magnetization       =     3.07 Bohr mag/cell
     absolute magnetization    =     5.22 Bohr mag/cell
[tb_dev] Currently allocated     4.12E+00 Mbytes, locked:    0 /  14
[tb_pin] Currently allocated     0.00E+00 Mbytes, locked:    0 /   0

     iteration # 28     ecut=    50.00 Ry     beta= 0.40
     Davidson diagonalization with overlap

---- Real-time Memory Report at c_bands before calling an iterative solver
          3111 MiB given to the printing process from OS
         -1904 MiB allocation reported by mallinfo(arena+hblkhd)
         55971 MiB available memory on the node where the printing process lives
     GPU memory used/free/total (MiB): 1648 / 14632 / 16280
------------------
     ethr =  3.27E-05,  avg # of iterations =  3.0

     total cpu time spent up to now is      225.2 secs

     total energy              =    -326.70575250 Ry
     estimated scf accuracy    <       0.00965095 Ry

     total magnetization       =     2.32 Bohr mag/cell
     absolute magnetization    =     4.70 Bohr mag/cell
[tb_dev] Currently allocated     4.12E+00 Mbytes, locked:    0 /  14
[tb_pin] Currently allocated     0.00E+00 Mbytes, locked:    0 /   0

     iteration # 29     ecut=    50.00 Ry     beta= 0.40
     Davidson diagonalization with overlap

---- Real-time Memory Report at c_bands before calling an iterative solver
          3127 MiB given to the printing process from OS
         -1890 MiB allocation reported by mallinfo(arena+hblkhd)
         55956 MiB available memory on the node where the printing process lives
     GPU memory used/free/total (MiB): 1648 / 14632 / 16280
------------------
     ethr =  2.01E-05,  avg # of iterations =  1.6

     total cpu time spent up to now is      232.5 secs

     total energy              =    -326.70528985 Ry
     estimated scf accuracy    <       0.01096718 Ry

     total magnetization       =     1.78 Bohr mag/cell
     absolute magnetization    =     4.40 Bohr mag/cell
[tb_dev] Currently allocated     4.12E+00 Mbytes, locked:    0 /  14
[tb_pin] Currently allocated     0.00E+00 Mbytes, locked:    0 /   0

     iteration # 30     ecut=    50.00 Ry     beta= 0.40
     Davidson diagonalization with overlap

---- Real-time Memory Report at c_bands before calling an iterative solver
          3143 MiB given to the printing process from OS
         -1875 MiB allocation reported by mallinfo(arena+hblkhd)
         55942 MiB available memory on the node where the printing process lives
     GPU memory used/free/total (MiB): 1648 / 14632 / 16280
------------------
     ethr =  2.01E-05,  avg # of iterations =  2.3

     total cpu time spent up to now is      240.8 secs

     total energy              =    -326.70997315 Ry
     estimated scf accuracy    <       0.00336466 Ry

     total magnetization       =     1.48 Bohr mag/cell
     absolute magnetization    =     4.84 Bohr mag/cell
[tb_dev] Currently allocated     4.12E+00 Mbytes, locked:    0 /  14
[tb_pin] Currently allocated     0.00E+00 Mbytes, locked:    0 /   0

     iteration # 31     ecut=    50.00 Ry     beta= 0.40
     Davidson diagonalization with overlap

---- Real-time Memory Report at c_bands before calling an iterative solver
          3158 MiB given to the printing process from OS
         -1857 MiB allocation reported by mallinfo(arena+hblkhd)
         55925 MiB available memory on the node where the printing process lives
     GPU memory used/free/total (MiB): 1648 / 14632 / 16280
------------------
     ethr =  7.01E-06,  avg # of iterations =  2.4

     total cpu time spent up to now is      249.1 secs

     total energy              =    -326.70487850 Ry
     estimated scf accuracy    <       0.00341510 Ry

     total magnetization       =     1.43 Bohr mag/cell
     absolute magnetization    =     4.73 Bohr mag/cell
[tb_dev] Currently allocated     4.12E+00 Mbytes, locked:    0 /  14
[tb_pin] Currently allocated     0.00E+00 Mbytes, locked:    0 /   0

     iteration # 32     ecut=    50.00 Ry     beta= 0.40
     Davidson diagonalization with overlap

---- Real-time Memory Report at c_bands before calling an iterative solver
          3177 MiB given to the printing process from OS
         -1842 MiB allocation reported by mallinfo(arena+hblkhd)
         55908 MiB available memory on the node where the printing process lives
     GPU memory used/free/total (MiB): 1648 / 14632 / 16280
------------------
     ethr =  7.01E-06,  avg # of iterations =  1.9

     total cpu time spent up to now is      256.8 secs

     total energy              =    -326.70600323 Ry
     estimated scf accuracy    <       0.00147079 Ry

     total magnetization       =     1.04 Bohr mag/cell
     absolute magnetization    =     4.37 Bohr mag/cell
[tb_dev] Currently allocated     4.12E+00 Mbytes, locked:    0 /  14
[tb_pin] Currently allocated     0.00E+00 Mbytes, locked:    0 /   0

     iteration # 33     ecut=    50.00 Ry     beta= 0.40
     Davidson diagonalization with overlap

---- Real-time Memory Report at c_bands before calling an iterative solver
          3193 MiB given to the printing process from OS
         -1828 MiB allocation reported by mallinfo(arena+hblkhd)
         55896 MiB available memory on the node where the printing process lives
     GPU memory used/free/total (MiB): 1648 / 14632 / 16280
------------------
     ethr =  3.06E-06,  avg # of iterations =  5.1

     total cpu time spent up to now is      268.7 secs

     total energy              =    -326.70581378 Ry
     estimated scf accuracy    <       0.00336305 Ry

     total magnetization       =     0.66 Bohr mag/cell
     absolute magnetization    =     4.03 Bohr mag/cell
[tb_dev] Currently allocated     4.12E+00 Mbytes, locked:    0 /  14
[tb_pin] Currently allocated     0.00E+00 Mbytes, locked:    0 /   0

     iteration # 34     ecut=    50.00 Ry     beta= 0.40
     Davidson diagonalization with overlap

---- Real-time Memory Report at c_bands before calling an iterative solver
          3208 MiB given to the printing process from OS
         -1810 MiB allocation reported by mallinfo(arena+hblkhd)
         55880 MiB available memory on the node where the printing process lives
     GPU memory used/free/total (MiB): 1648 / 14632 / 16280
------------------
     ethr =  3.06E-06,  avg # of iterations =  6.3

     total cpu time spent up to now is      283.0 secs

     total energy              =    -326.71148524 Ry
     estimated scf accuracy    <       0.00207286 Ry

     total magnetization       =     0.57 Bohr mag/cell
     absolute magnetization    =     4.54 Bohr mag/cell
[tb_dev] Currently allocated     4.12E+00 Mbytes, locked:    0 /  14
[tb_pin] Currently allocated     0.00E+00 Mbytes, locked:    0 /   0

     iteration # 35     ecut=    50.00 Ry     beta= 0.40
     Davidson diagonalization with overlap

---- Real-time Memory Report at c_bands before calling an iterative solver
          3224 MiB given to the printing process from OS
         -1795 MiB allocation reported by mallinfo(arena+hblkhd)
         55865 MiB available memory on the node where the printing process lives
     GPU memory used/free/total (MiB): 1648 / 14632 / 16280
------------------
     ethr =  3.06E-06,  avg # of iterations =  4.0

     total cpu time spent up to now is      293.8 secs

     total energy              =    -326.71139304 Ry
     estimated scf accuracy    <       0.00583080 Ry

     total magnetization       =     0.78 Bohr mag/cell
     absolute magnetization    =     4.73 Bohr mag/cell
[tb_dev] Currently allocated     4.12E+00 Mbytes, locked:    0 /  14
[tb_pin] Currently allocated     0.00E+00 Mbytes, locked:    0 /   0

     iteration # 36     ecut=    50.00 Ry     beta= 0.40
     Davidson diagonalization with overlap

---- Real-time Memory Report at c_bands before calling an iterative solver
          3238 MiB given to the printing process from OS
         -1780 MiB allocation reported by mallinfo(arena+hblkhd)
         55852 MiB available memory on the node where the printing process lives
     GPU memory used/free/total (MiB): 1648 / 14632 / 16280
------------------
     ethr =  3.06E-06,  avg # of iterations =  2.1

     total cpu time spent up to now is      301.8 secs

     total energy              =    -326.71304783 Ry
     estimated scf accuracy    <       0.00134460 Ry

     total magnetization       =     0.25 Bohr mag/cell
     absolute magnetization    =     4.67 Bohr mag/cell
[tb_dev] Currently allocated     4.12E+00 Mbytes, locked:    0 /  14
[tb_pin] Currently allocated     0.00E+00 Mbytes, locked:    0 /   0

     iteration # 37     ecut=    50.00 Ry     beta= 0.40
     Davidson diagonalization with overlap

---- Real-time Memory Report at c_bands before calling an iterative solver
          3255 MiB given to the printing process from OS
         -1763 MiB allocation reported by mallinfo(arena+hblkhd)
         55836 MiB available memory on the node where the printing process lives
     GPU memory used/free/total (MiB): 1648 / 14632 / 16280
------------------
     ethr =  2.80E-06,  avg # of iterations =  1.1

     total cpu time spent up to now is      308.8 secs

     total energy              =    -326.71263218 Ry
     estimated scf accuracy    <       0.00199538 Ry

     total magnetization       =     0.29 Bohr mag/cell
     absolute magnetization    =     4.73 Bohr mag/cell
[tb_dev] Currently allocated     4.12E+00 Mbytes, locked:    0 /  14
[tb_pin] Currently allocated     0.00E+00 Mbytes, locked:    0 /   0

     iteration # 38     ecut=    50.00 Ry     beta= 0.40
     Davidson diagonalization with overlap

---- Real-time Memory Report at c_bands before calling an iterative solver
          3270 MiB given to the printing process from OS
         -1749 MiB allocation reported by mallinfo(arena+hblkhd)
         55822 MiB available memory on the node where the printing process lives
     GPU memory used/free/total (MiB): 1648 / 14632 / 16280
------------------
     ethr =  2.80E-06,  avg # of iterations =  1.0

     total cpu time spent up to now is      315.6 secs

     total energy              =    -326.71330800 Ry
     estimated scf accuracy    <       0.00143859 Ry

     total magnetization       =     0.54 Bohr mag/cell
     absolute magnetization    =     4.69 Bohr mag/cell
[tb_dev] Currently allocated     4.12E+00 Mbytes, locked:    0 /  14
[tb_pin] Currently allocated     0.00E+00 Mbytes, locked:    0 /   0

     iteration # 39     ecut=    50.00 Ry     beta= 0.40
     Davidson diagonalization with overlap

---- Real-time Memory Report at c_bands before calling an iterative solver
          3288 MiB given to the printing process from OS
         -1731 MiB allocation reported by mallinfo(arena+hblkhd)
         55804 MiB available memory on the node where the printing process lives
     GPU memory used/free/total (MiB): 1648 / 14632 / 16280
------------------
     ethr =  2.80E-06,  avg # of iterations =  1.0

     total cpu time spent up to now is      322.4 secs

     total energy              =    -326.70873237 Ry
     estimated scf accuracy    <       0.00185307 Ry

     total magnetization       =     0.49 Bohr mag/cell
     absolute magnetization    =     4.77 Bohr mag/cell
[tb_dev] Currently allocated     4.12E+00 Mbytes, locked:    0 /  14
[tb_pin] Currently allocated     0.00E+00 Mbytes, locked:    0 /   0

     iteration # 40     ecut=    50.00 Ry     beta= 0.40
     Davidson diagonalization with overlap

---- Real-time Memory Report at c_bands before calling an iterative solver
          3303 MiB given to the printing process from OS
         -1716 MiB allocation reported by mallinfo(arena+hblkhd)
         55792 MiB available memory on the node where the printing process lives
     GPU memory used/free/total (MiB): 1648 / 14632 / 16280
------------------
     ethr =  2.80E-06,  avg # of iterations =  3.1

     total cpu time spent up to now is      332.5 secs

     total energy              =    -326.71070117 Ry
     estimated scf accuracy    <       0.00050516 Ry

     total magnetization       =     0.45 Bohr mag/cell
     absolute magnetization    =     4.41 Bohr mag/cell
[tb_dev] Currently allocated     4.12E+00 Mbytes, locked:    0 /  14
[tb_pin] Currently allocated     0.00E+00 Mbytes, locked:    0 /   0

     iteration # 41     ecut=    50.00 Ry     beta= 0.40
     Davidson diagonalization with overlap

---- Real-time Memory Report at c_bands before calling an iterative solver
          3319 MiB given to the printing process from OS
         -1699 MiB allocation reported by mallinfo(arena+hblkhd)
         55773 MiB available memory on the node where the printing process lives
     GPU memory used/free/total (MiB): 1648 / 14632 / 16280
------------------
     ethr =  1.05E-06,  avg # of iterations =  3.2

     total cpu time spent up to now is      341.5 secs

     total energy              =    -326.71094302 Ry
     estimated scf accuracy    <       0.00064084 Ry

     total magnetization       =     0.45 Bohr mag/cell
     absolute magnetization    =     4.37 Bohr mag/cell
[tb_dev] Currently allocated     4.12E+00 Mbytes, locked:    0 /  14
[tb_pin] Currently allocated     0.00E+00 Mbytes, locked:    0 /   0

     iteration # 42     ecut=    50.00 Ry     beta= 0.40
     Davidson diagonalization with overlap

---- Real-time Memory Report at c_bands before calling an iterative solver
          3336 MiB given to the printing process from OS
         -1682 MiB allocation reported by mallinfo(arena+hblkhd)
         55754 MiB available memory on the node where the printing process lives
     GPU memory used/free/total (MiB): 1648 / 14632 / 16280
------------------
     ethr =  1.05E-06,  avg # of iterations =  4.9

     total cpu time spent up to now is      353.7 secs

     total energy              =    -326.71157945 Ry
     estimated scf accuracy    <       0.00135682 Ry

     total magnetization       =     0.68 Bohr mag/cell
     absolute magnetization    =     4.42 Bohr mag/cell
[tb_dev] Currently allocated     4.12E+00 Mbytes, locked:    0 /  14
[tb_pin] Currently allocated     0.00E+00 Mbytes, locked:    0 /   0

     iteration # 43     ecut=    50.00 Ry     beta= 0.40
     Davidson diagonalization with overlap

---- Real-time Memory Report at c_bands before calling an iterative solver
          3353 MiB given to the printing process from OS
         -1667 MiB allocation reported by mallinfo(arena+hblkhd)
         55742 MiB available memory on the node where the printing process lives
     GPU memory used/free/total (MiB): 1648 / 14632 / 16280
------------------
     ethr =  1.05E-06,  avg # of iterations =  2.6

     total cpu time spent up to now is      362.4 secs

     total energy              =    -326.70788051 Ry
     estimated scf accuracy    <       0.00093061 Ry

     total magnetization       =     0.51 Bohr mag/cell
     absolute magnetization    =     4.56 Bohr mag/cell
[tb_dev] Currently allocated     4.12E+00 Mbytes, locked:    0 /  14
[tb_pin] Currently allocated     0.00E+00 Mbytes, locked:    0 /   0

     iteration # 44     ecut=    50.00 Ry     beta= 0.40
     Davidson diagonalization with overlap

---- Real-time Memory Report at c_bands before calling an iterative solver
          3367 MiB given to the printing process from OS
         -1652 MiB allocation reported by mallinfo(arena+hblkhd)
         55726 MiB available memory on the node where the printing process lives
     GPU memory used/free/total (MiB): 1648 / 14632 / 16280
------------------
     ethr =  1.05E-06,  avg # of iterations =  5.5

     total cpu time spent up to now is      375.9 secs

     total energy              =    -326.71114013 Ry
     estimated scf accuracy    <       0.00866844 Ry

     total magnetization       =     0.40 Bohr mag/cell
     absolute magnetization    =     3.93 Bohr mag/cell
[tb_dev] Currently allocated     4.12E+00 Mbytes, locked:    0 /  14
[tb_pin] Currently allocated     0.00E+00 Mbytes, locked:    0 /   0

     iteration # 45     ecut=    50.00 Ry     beta= 0.40
     Davidson diagonalization with overlap

---- Real-time Memory Report at c_bands before calling an iterative solver
          3384 MiB given to the printing process from OS
         -1635 MiB allocation reported by mallinfo(arena+hblkhd)
         55710 MiB available memory on the node where the printing process lives
     GPU memory used/free/total (MiB): 1648 / 14632 / 16280
------------------
     ethr =  1.05E-06,  avg # of iterations =  1.5

     total cpu time spent up to now is      383.2 secs

     total energy              =    -326.71132761 Ry
     estimated scf accuracy    <       0.00452770 Ry

     total magnetization       =     0.40 Bohr mag/cell
     absolute magnetization    =     4.03 Bohr mag/cell
[tb_dev] Currently allocated     4.12E+00 Mbytes, locked:    0 /  14
[tb_pin] Currently allocated     0.00E+00 Mbytes, locked:    0 /   0

     iteration # 46     ecut=    50.00 Ry     beta= 0.40
     Davidson diagonalization with overlap

---- Real-time Memory Report at c_bands before calling an iterative solver
          3401 MiB given to the printing process from OS
         -1617 MiB allocation reported by mallinfo(arena+hblkhd)
         55694 MiB available memory on the node where the printing process lives
     GPU memory used/free/total (MiB): 1648 / 14632 / 16280
------------------
     ethr =  1.05E-06,  avg # of iterations =  1.0

     total cpu time spent up to now is      390.1 secs

     total energy              =    -326.71117872 Ry
     estimated scf accuracy    <       0.00447993 Ry

     total magnetization       =     0.43 Bohr mag/cell
     absolute magnetization    =     4.05 Bohr mag/cell
[tb_dev] Currently allocated     4.12E+00 Mbytes, locked:    0 /  14
[tb_pin] Currently allocated     0.00E+00 Mbytes, locked:    0 /   0

     iteration # 47     ecut=    50.00 Ry     beta= 0.40
     Davidson diagonalization with overlap

---- Real-time Memory Report at c_bands before calling an iterative solver
          3416 MiB given to the printing process from OS
         -1603 MiB allocation reported by mallinfo(arena+hblkhd)
         55677 MiB available memory on the node where the printing process lives
     GPU memory used/free/total (MiB): 1648 / 14632 / 16280
------------------
     ethr =  1.05E-06,  avg # of iterations =  5.6

     total cpu time spent up to now is      403.6 secs

     total energy              =    -326.71295390 Ry
     estimated scf accuracy    <       0.00027574 Ry

     total magnetization       =     0.69 Bohr mag/cell
     absolute magnetization    =     4.31 Bohr mag/cell
[tb_dev] Currently allocated     4.12E+00 Mbytes, locked:    0 /  14
[tb_pin] Currently allocated     0.00E+00 Mbytes, locked:    0 /   0

     iteration # 48     ecut=    50.00 Ry     beta= 0.40
     Davidson diagonalization with overlap

---- Real-time Memory Report at c_bands before calling an iterative solver
          3432 MiB given to the printing process from OS
         -1588 MiB allocation reported by mallinfo(arena+hblkhd)
         55662 MiB available memory on the node where the printing process lives
     GPU memory used/free/total (MiB): 1648 / 14632 / 16280
------------------
     ethr =  5.74E-07,  avg # of iterations =  6.2

     total cpu time spent up to now is      417.7 secs

     total energy              =    -326.71393681 Ry
     estimated scf accuracy    <       0.00032428 Ry

     total magnetization       =     0.77 Bohr mag/cell
     absolute magnetization    =     4.19 Bohr mag/cell
[tb_dev] Currently allocated     4.12E+00 Mbytes, locked:    0 /  14
[tb_pin] Currently allocated     0.00E+00 Mbytes, locked:    0 /   0

     iteration # 49     ecut=    50.00 Ry     beta= 0.40
     Davidson diagonalization with overlap

---- Real-time Memory Report at c_bands before calling an iterative solver
          3448 MiB given to the printing process from OS
         -1571 MiB allocation reported by mallinfo(arena+hblkhd)
         55645 MiB available memory on the node where the printing process lives
     GPU memory used/free/total (MiB): 1648 / 14632 / 16280
------------------
     ethr =  5.74E-07,  avg # of iterations =  1.8

     total cpu time spent up to now is      425.2 secs

     total energy              =    -326.71409870 Ry
     estimated scf accuracy    <       0.00029560 Ry

     total magnetization       =     0.76 Bohr mag/cell
     absolute magnetization    =     4.17 Bohr mag/cell
[tb_dev] Currently allocated     4.12E+00 Mbytes, locked:    0 /  14
[tb_pin] Currently allocated     0.00E+00 Mbytes, locked:    0 /   0

     iteration # 50     ecut=    50.00 Ry     beta= 0.40
     Davidson diagonalization with overlap

---- Real-time Memory Report at c_bands before calling an iterative solver
          3464 MiB given to the printing process from OS
         -1553 MiB allocation reported by mallinfo(arena+hblkhd)
         55630 MiB available memory on the node where the printing process lives
     GPU memory used/free/total (MiB): 1648 / 14632 / 16280
------------------
     ethr =  5.74E-07,  avg # of iterations =  3.6

     total cpu time spent up to now is      435.1 secs

     total energy              =    -326.71429320 Ry
     estimated scf accuracy    <       0.00025988 Ry

     total magnetization       =     0.67 Bohr mag/cell
     absolute magnetization    =     4.21 Bohr mag/cell
[tb_dev] Currently allocated     4.12E+00 Mbytes, locked:    0 /  14
[tb_pin] Currently allocated     0.00E+00 Mbytes, locked:    0 /   0

     iteration # 51     ecut=    50.00 Ry     beta= 0.40
     Davidson diagonalization with overlap

---- Real-time Memory Report at c_bands before calling an iterative solver
          3480 MiB given to the printing process from OS
         -1539 MiB allocation reported by mallinfo(arena+hblkhd)
         55611 MiB available memory on the node where the printing process lives
[...]
[tb_dev] Currently allocated     4.12E+00 Mbytes, locked:    0 /  14
[tb_pin] Currently allocated     0.00E+00 Mbytes, locked:    0 /   0

     iteration # 65     ecut=    50.00 Ry     beta= 0.40
     Davidson diagonalization with overlap

---- Real-time Memory Report at c_bands before calling an iterative solver
          3707 MiB given to the printing process from OS
         -1312 MiB allocation reported by mallinfo(arena+hblkhd)
         55386 MiB available memory on the node where the printing process lives
     GPU memory used/free/total (MiB): 1648 / 14632 / 16280
------------------
     ethr =  3.06E-07,  avg # of iterations =  5.4

     total cpu time spent up to now is      574.9 secs

     total energy              =    -326.71592289 Ry
     estimated scf accuracy    <       0.00017909 Ry

     total magnetization       =     0.59 Bohr mag/cell
     absolute magnetization    =     4.28 Bohr mag/cell
[tb_dev] Currently allocated     4.12E+00 Mbytes, locked:    0 /  14
[tb_pin] Currently allocated     0.00E+00 Mbytes, locked:    0 /   0

     iteration # 66     ecut=    50.00 Ry     beta= 0.40
     Davidson diagonalization with overlap

---- Real-time Memory Report at c_bands before calling an iterative solver
          3721 MiB given to the printing process from OS
         -1298 MiB allocation reported by mallinfo(arena+hblkhd)
         55370 MiB available memory on the node where the printing process lives
     GPU memory used/free/total (MiB): 1648 / 14632 / 16280
------------------
     ethr =  3.06E-07,  avg # of iterations =  4.6

     total cpu time spent up to now is      586.0 secs

     total energy              =    -326.71593645 Ry
     estimated scf accuracy    <       0.00017604 Ry

     total magnetization       =     0.48 Bohr mag/cell
     absolute magnetization    =     4.36 Bohr mag/cell
[tb_dev] Currently allocated     4.12E+00 Mbytes, locked:    0 /  14
[tb_pin] Currently allocated     0.00E+00 Mbytes, locked:    0 /   0

     iteration # 67     ecut=    50.00 Ry     beta= 0.40
     Davidson diagonalization with overlap

---- Real-time Memory Report at c_bands before calling an iterative solver
          3739 MiB given to the printing process from OS
         -1281 MiB allocation reported by mallinfo(arena+hblkhd)
         55348 MiB available memory on the node where the printing process lives
     GPU memory used/free/total (MiB): 1648 / 14632 / 16280
------------------
     ethr =  3.06E-07,  avg # of iterations =  3.0

     total cpu time spent up to now is      594.8 secs

     total energy              =    -326.71468842 Ry
     estimated scf accuracy    <       0.00017379 Ry

     total magnetization       =     0.59 Bohr mag/cell
     absolute magnetization    =     4.27 Bohr mag/cell
[tb_dev] Currently allocated     4.12E+00 Mbytes, locked:    0 /  14
[tb_pin] Currently allocated     0.00E+00 Mbytes, locked:    0 /   0

     iteration # 68     ecut=    50.00 Ry     beta= 0.40
     Davidson diagonalization with overlap

---- Real-time Memory Report at c_bands before calling an iterative solver
          3756 MiB given to the printing process from OS
         -1263 MiB allocation reported by mallinfo(arena+hblkhd)
         55335 MiB available memory on the node where the printing process lives
     GPU memory used/free/total (MiB): 1648 / 14632 / 16280
------------------
     ethr =  3.06E-07,  avg # of iterations =  6.2

     total cpu time spent up to now is      609.0 secs

     total energy              =    -326.71555106 Ry
     estimated scf accuracy    <       0.00015485 Ry

     total magnetization       =     0.56 Bohr mag/cell
     absolute magnetization    =     4.20 Bohr mag/cell
[tb_dev] Currently allocated     4.12E+00 Mbytes, locked:    0 /  14
[tb_pin] Currently allocated     0.00E+00 Mbytes, locked:    0 /   0

     iteration # 69     ecut=    50.00 Ry     beta= 0.40
     Davidson diagonalization with overlap

---- Real-time Memory Report at c_bands before calling an iterative solver
          3771 MiB given to the printing process from OS
         -1248 MiB allocation reported by mallinfo(arena+hblkhd)
         55321 MiB available memory on the node where the printing process lives
     GPU memory used/free/total (MiB): 1648 / 14632 / 16280
------------------
     ethr =  3.06E-07,  avg # of iterations =  4.1

     total cpu time spent up to now is      619.6 secs

     total energy              =    -326.71584753 Ry
     estimated scf accuracy    <       0.00013847 Ry

     total magnetization       =     0.53 Bohr mag/cell
     absolute magnetization    =     4.21 Bohr mag/cell
[tb_dev] Currently allocated     4.12E+00 Mbytes, locked:    0 /  14
[tb_pin] Currently allocated     0.00E+00 Mbytes, locked:    0 /   0

     iteration # 70     ecut=    50.00 Ry     beta= 0.40
     Davidson diagonalization with overlap

---- Real-time Memory Report at c_bands before calling an iterative solver
          3788 MiB given to the printing process from OS
         -1232 MiB allocation reported by mallinfo(arena+hblkhd)
         55304 MiB available memory on the node where the printing process lives
     GPU memory used/free/total (MiB): 1648 / 14632 / 16280
------------------
     ethr =  2.88E-07,  avg # of iterations =  5.9

     total cpu time spent up to now is      633.2 secs

     total energy              =    -326.71588481 Ry
     estimated scf accuracy    <       0.00015685 Ry

     total magnetization       =     0.46 Bohr mag/cell
     absolute magnetization    =     4.25 Bohr mag/cell
[tb_dev] Currently allocated     4.12E+00 Mbytes, locked:    0 /  14
[tb_pin] Currently allocated     0.00E+00 Mbytes, locked:    0 /   0

     iteration # 71     ecut=    50.00 Ry     beta= 0.40
     Davidson diagonalization with overlap

---- Real-time Memory Report at c_bands before calling an iterative solver
          3802 MiB given to the printing process from OS
         -1214 MiB allocation reported by mallinfo(arena+hblkhd)
         55290 MiB available memory on the node where the printing process lives
     GPU memory used/free/total (MiB): 1648 / 14632 / 16280
------------------
     ethr =  2.88E-07,  avg # of iterations =  3.6

     total cpu time spent up to now is      643.0 secs

     total energy              =    -326.71549759 Ry
     estimated scf accuracy    <       0.00016389 Ry

     total magnetization       =     0.50 Bohr mag/cell
     absolute magnetization    =     4.23 Bohr mag/cell
[tb_dev] Currently allocated     4.12E+00 Mbytes, locked:    0 /  14
[tb_pin] Currently allocated     0.00E+00 Mbytes, locked:    0 /   0

     iteration # 72     ecut=    50.00 Ry     beta= 0.40
     Davidson diagonalization with overlap

---- Real-time Memory Report at c_bands before calling an iterative solver
          3820 MiB given to the printing process from OS
         -1200 MiB allocation reported by mallinfo(arena+hblkhd)
         55274 MiB available memory on the node where the printing process lives
     GPU memory used/free/total (MiB): 1648 / 14632 / 16280
------------------
     ethr =  2.88E-07,  avg # of iterations =  4.9

     total cpu time spent up to now is      655.0 secs

     total energy              =    -326.71586881 Ry
     estimated scf accuracy    <       0.00019394 Ry

     total magnetization       =     0.60 Bohr mag/cell
     absolute magnetization    =     4.27 Bohr mag/cell
[tb_dev] Currently allocated     4.12E+00 Mbytes, locked:    0 /  14
[tb_pin] Currently allocated     0.00E+00 Mbytes, locked:    0 /   0

     iteration # 73     ecut=    50.00 Ry     beta= 0.40
     Davidson diagonalization with overlap

---- Real-time Memory Report at c_bands before calling an iterative solver
          3834 MiB given to the printing process from OS
         -1185 MiB allocation reported by mallinfo(arena+hblkhd)
         55259 MiB available memory on the node where the printing process lives
     GPU memory used/free/total (MiB): 1648 / 14632 / 16280
------------------
     ethr =  2.88E-07,  avg # of iterations =  5.7

     total cpu time spent up to now is      668.4 secs

     total energy              =    -326.71629703 Ry
     estimated scf accuracy    <       0.00017467 Ry

     total magnetization       =     0.52 Bohr mag/cell
     absolute magnetization    =     4.29 Bohr mag/cell
[tb_dev] Currently allocated     4.12E+00 Mbytes, locked:    0 /  14
[tb_pin] Currently allocated     0.00E+00 Mbytes, locked:    0 /   0

     iteration # 74     ecut=    50.00 Ry     beta= 0.40
     Davidson diagonalization with overlap

---- Real-time Memory Report at c_bands before calling an iterative solver
          3851 MiB given to the printing process from OS
         -1168 MiB allocation reported by mallinfo(arena+hblkhd)
         55242 MiB available memory on the node where the printing process lives
     GPU memory used/free/total (MiB): 1648 / 14632 / 16280
------------------
     ethr =  2.88E-07,  avg # of iterations =  1.0

     total cpu time spent up to now is      675.3 secs

     total energy              =    -326.71640811 Ry
     estimated scf accuracy    <       0.00016550 Ry

     total magnetization       =     0.55 Bohr mag/cell
     absolute magnetization    =     4.29 Bohr mag/cell
[tb_dev] Currently allocated     4.12E+00 Mbytes, locked:    0 /  14
[tb_pin] Currently allocated     0.00E+00 Mbytes, locked:    0 /   0

     iteration # 75     ecut=    50.00 Ry     beta= 0.40
     Davidson diagonalization with overlap

---- Real-time Memory Report at c_bands before calling an iterative solver
          3867 MiB given to the printing process from OS
         -1150 MiB allocation reported by mallinfo(arena+hblkhd)
         55223 MiB available memory on the node where the printing process lives
     GPU memory used/free/total (MiB): 1648 / 14632 / 16280
------------------
     ethr =  2.88E-07,  avg # of iterations =  3.7

     total cpu time spent up to now is      685.3 secs

     total energy              =    -326.71661652 Ry
     estimated scf accuracy    <       0.00019441 Ry

     total magnetization       =     0.50 Bohr mag/cell
     absolute magnetization    =     4.27 Bohr mag/cell
[tb_dev] Currently allocated     4.12E+00 Mbytes, locked:    0 /  14
[tb_pin] Currently allocated     0.00E+00 Mbytes, locked:    0 /   0

     iteration # 76     ecut=    50.00 Ry     beta= 0.40
     Davidson diagonalization with overlap

---- Real-time Memory Report at c_bands before calling an iterative solver
          3883 MiB given to the printing process from OS
         -1136 MiB allocation reported by mallinfo(arena+hblkhd)
         55209 MiB available memory on the node where the printing process lives
     GPU memory used/free/total (MiB): 1648 / 14632 / 16280
------------------
     ethr =  2.88E-07,  avg # of iterations =  5.8

     total cpu time spent up to now is      698.7 secs

     total energy              =    -326.71448710 Ry
     estimated scf accuracy    <       0.00014083 Ry

     total magnetization       =     0.44 Bohr mag/cell
     absolute magnetization    =     4.36 Bohr mag/cell
[tb_dev] Currently allocated     4.12E+00 Mbytes, locked:    0 /  14
[tb_pin] Currently allocated     0.00E+00 Mbytes, locked:    0 /   0

     iteration # 77     ecut=    50.00 Ry     beta= 0.40
     Davidson diagonalization with overlap

---- Real-time Memory Report at c_bands before calling an iterative solver
          3900 MiB given to the printing process from OS
         -1119 MiB allocation reported by mallinfo(arena+hblkhd)
         55195 MiB available memory on the node where the printing process lives
     GPU memory used/free/total (MiB): 1648 / 14632 / 16280
------------------
     ethr =  2.88E-07,  avg # of iterations =  7.1

     total cpu time spent up to now is      714.4 secs

     total energy              =    -326.71578773 Ry
     estimated scf accuracy    <       0.00017753 Ry

     total magnetization       =     0.55 Bohr mag/cell
     absolute magnetization    =     4.22 Bohr mag/cell
[tb_dev] Currently allocated     4.12E+00 Mbytes, locked:    0 /  14
[tb_pin] Currently allocated     0.00E+00 Mbytes, locked:    0 /   0

     iteration # 78     ecut=    50.00 Ry     beta= 0.40
     Davidson diagonalization with overlap

---- Real-time Memory Report at c_bands before calling an iterative solver
          3916 MiB given to the printing process from OS
         -1102 MiB allocation reported by mallinfo(arena+hblkhd)
         55174 MiB available memory on the node where the printing process lives
     GPU memory used/free/total (MiB): 1648 / 14632 / 16280
------------------
     ethr =  2.88E-07,  avg # of iterations =  5.1

     total cpu time spent up to now is      726.2 secs

     total energy              =    -326.71477772 Ry
     estimated scf accuracy    <       0.00025302 Ry

     total magnetization       =     0.48 Bohr mag/cell
     absolute magnetization    =     4.31 Bohr mag/cell
[tb_dev] Currently allocated     4.12E+00 Mbytes, locked:    0 /  14
[tb_pin] Currently allocated     0.00E+00 Mbytes, locked:    0 /   0

     iteration # 79     ecut=    50.00 Ry     beta= 0.40
     Davidson diagonalization with overlap

---- Real-time Memory Report at c_bands before calling an iterative solver
          3932 MiB given to the printing process from OS
         -1087 MiB allocation reported by mallinfo(arena+hblkhd)
         55160 MiB available memory on the node where the printing process lives
     GPU memory used/free/total (MiB): 1648 / 14632 / 16280
------------------
     ethr =  2.88E-07,  avg # of iterations =  7.2

     total cpu time spent up to now is      742.0 secs

     total energy              =    -326.71709554 Ry
     estimated scf accuracy    <       0.00029123 Ry

     total magnetization       =     0.43 Bohr mag/cell
     absolute magnetization    =     4.39 Bohr mag/cell
[tb_dev] Currently allocated     4.12E+00 Mbytes, locked:    0 /  14
[tb_pin] Currently allocated     0.00E+00 Mbytes, locked:    0 /   0

     iteration # 80     ecut=    50.00 Ry     beta= 0.40
     Davidson diagonalization with overlap

---- Real-time Memory Report at c_bands before calling an iterative solver
          3950 MiB given to the printing process from OS
         -1069 MiB allocation reported by mallinfo(arena+hblkhd)
         55144 MiB available memory on the node where the printing process lives
     GPU memory used/free/total (MiB): 1648 / 14632 / 16280
------------------
     ethr =  2.88E-07,  avg # of iterations =  2.7

     total cpu time spent up to now is      750.9 secs

     total energy              =    -326.71712927 Ry
     estimated scf accuracy    <       0.00049153 Ry

     total magnetization       =     0.43 Bohr mag/cell
     absolute magnetization    =     4.38 Bohr mag/cell

     End of self-consistent calculation

     convergence NOT achieved after  80 iterations: stopping

     Writing config to output data dir ./out/aiida.save/
 
     init_run     :     24.79s CPU      7.40s WALL (       1 calls)
     electrons    :   1369.38s CPU    743.34s WALL (       1 calls)

     Called by init_run:
     wfcinit      :      3.84s CPU      4.99s WALL (       1 calls)
                                        4.99s GPU  (       1 calls)
     wfcinit:atom :      0.09s CPU      0.18s WALL (     312 calls)
                                        0.18s GPU  (     312 calls)
     wfcinit:wfcr :      2.23s CPU      2.80s WALL (     312 calls)
                                        2.79s GPU  (     312 calls)
     potinit      :     11.38s CPU      1.09s WALL (       1 calls)
     hinit0       :      4.11s CPU      0.61s WALL (       1 calls)

     Called by electrons:
     c_bands      :    682.01s CPU    597.93s WALL (      80 calls)
     sum_band     :     79.57s CPU     88.75s WALL (      80 calls)
     v_of_rho     :     26.03s CPU      2.34s WALL (      81 calls)
     v_h          :      3.66s CPU      0.32s WALL (      81 calls)
     v_xc         :     22.37s CPU      2.01s WALL (      81 calls)
     newd         :     15.66s CPU      1.64s WALL (      81 calls)
                                        1.64s GPU  (      81 calls)
     PAW_pot      :    537.92s CPU     49.90s WALL (      81 calls)
     mix_rho      :     29.69s CPU      3.06s WALL (      80 calls)

     Called by c_bands:
     init_us_2    :     37.09s CPU     35.79s WALL (   50232 calls)
     init_us_2:gp :     36.16s CPU     34.98s WALL (   50232 calls)
     cegterg      :    590.67s CPU    521.93s WALL (   24960 calls)

     Called by sum_band:
     sum_band:wei :      0.94s CPU      0.95s WALL (      80 calls)
                                        0.94s GPU  (      80 calls)
     sum_band:loo :     76.10s CPU     85.22s WALL (      80 calls)
                                       85.22s GPU  (      80 calls)
     sum_band:buf :     21.29s CPU     23.83s WALL (   24960 calls)
                                       23.68s GPU  (   24960 calls)
     sum_band:ini :     14.83s CPU     17.43s WALL (   24960 calls)
                                       17.30s GPU  (   24960 calls)
     sum_band:cal :      0.80s CPU      2.94s WALL (   24960 calls)
                                        1.95s GPU  (   24960 calls)
     sum_band:bec :      3.74s CPU      4.46s WALL (   24960 calls)
                                        4.30s GPU  (   24960 calls)
     addusdens    :      0.54s CPU      0.57s WALL (      80 calls)
                                        0.57s GPU  (      80 calls)
     addusd:skk   :      0.02s CPU      0.03s WALL (      80 calls)
                                        0.03s GPU  (      80 calls)

     Called by *egterg:
     cdiaghg      :    228.33s CPU    211.33s WALL (   98576 calls)
                                      210.68s GPU  (   98576 calls)
     cegterg:over :     13.83s CPU     12.52s WALL (   73616 calls)
     cegterg:upda :     21.97s CPU     19.50s WALL (   73616 calls)
     cegterg:last :      5.83s CPU      5.41s WALL (   42573 calls)
     h_psi        :    268.37s CPU    229.89s WALL (   98888 calls)
                                      229.25s GPU  (   98888 calls)
     s_psi        :     12.20s CPU     16.81s WALL (   98888 calls)
                                       15.56s GPU  (   98888 calls)
     g_psi        :      0.59s CPU      1.97s WALL (   73616 calls)
                                        1.51s GPU  (   73616 calls)

     Called by h_psi:
     h_psi:calbec :      4.02s CPU     11.40s WALL (   98888 calls)
                                       10.82s GPU  (   98888 calls)
     vloc_psi     :    221.37s CPU    189.40s WALL (   98888 calls)
                                      188.78s GPU  (   98888 calls)
     add_vuspsi   :     20.90s CPU     22.53s WALL (   98888 calls)
                                       21.95s GPU  (   98888 calls)

     General routines
     calbec       :      3.58s CPU      3.27s WALL (  123848 calls)
     fft          :      2.68s CPU      0.46s WALL (    2023 calls)
                                        0.36s GPU  (    1861 calls)
     ffts         :      0.10s CPU      0.04s WALL (     322 calls)
                                        0.01s GPU  (     160 calls)
     fftw         :      8.12s CPU    139.53s WALL (  353480 calls)
                                      137.60s GPU  (  353480 calls)
     interpolate  :      3.50s CPU      0.32s WALL (     162 calls)
     davcio       :      1.05s CPU      0.61s WALL (     330 calls)
 
     Parallel routines

     PAW routines
     PAW_pot      :    537.92s CPU     49.90s WALL (      81 calls)
     PAW_symme    :      0.07s CPU      0.01s WALL (     161 calls)
 
     PWSCF        :  23m17.65s CPU  12m31.74s WALL

 
   This run was terminated on:  17:22: 1  22Oct2023            

=------------------------------------------------------------------------------=
   JOB DONE.
=------------------------------------------------------------------------------=
