
     Program PWSCF v.7.2 starts on 22Oct2023 at 17:30:17 

     This program is part of the open-source Quantum ESPRESSO suite
     for quantum simulation of materials; please cite
         "P. Giannozzi et al., J. Phys.:Condens. Matter 21 395502 (2009);
         "P. Giannozzi et al., J. Phys.:Condens. Matter 29 465901 (2017);
         "P. Giannozzi et al., J. Chem. Phys. 152 154105 (2020);
          URL http://www.quantum-espresso.org", 
     in publications or presentations arising from this work. More details at
     http://www.quantum-espresso.org/quote

     Parallel version (MPI & OpenMP), running on      12 processor cores
     Number of MPI processes:                 1
     Threads/MPI process:                    12

     MPI processes distributed on     1 nodes
     41173 MiB available memory on the printing compute node when the environment starts
 
     Reading input from aiida.in

     Current dimensions of program PWSCF are:
     Max number of different atomic species (ntypx) = 10
     Max number of k-points (npk) =  40000
     Max angular momentum in pseudopotentials (lmaxx) =  4
     Message from routine setup:
     using ibrav=0 with symmetry is DISCOURAGED, use correct ibrav instead
 
     Subspace diagonalization in iterative solution of the eigenvalue problem:
     a serial algorithm will be used

 
     G-vector sticks info
     --------------------
     sticks:   dense  smooth     PW     G-vecs:    dense   smooth      PW
     Sum        4231    2107    583               543091   192131   27725
 
     Using Slab Decomposition
 


     bravais-lattice index     =            0
     lattice parameter (alat)  =      11.2930  a.u.
     unit-cell volume          =    3057.6378 (a.u.)^3
     number of atoms/cell      =            9
     number of atomic types    =            3
     number of electrons       =        68.00
     number of Kohn-Sham states=           41
     kinetic-energy cutoff     =      60.0000  Ry
     charge density cutoff     =     480.0000  Ry
     scf convergence threshold =      1.8E-09
     mixing beta               =       0.4000
     number of iterations used =            8  plain     mixing
     Exchange-correlation= SLA  PW   PSX  PSC
                           (   1   4  10   8   0   0   0)

     GPU acceleration is ACTIVE.


     GPU used by master process:

        Device Number: 0
        Device name: Tesla P100-PCIE-16GB
        Compute capability : 60
        Ratio of single to double precision performance  : 2
        Memory Clock Rate (KHz): 715000
        Memory Bus Width (bits): 4096
        Peak Memory Bandwidth (GB/s): 732.16

     celldm(1)=  11.293003  celldm(2)=   0.000000  celldm(3)=   0.000000
     celldm(4)=   0.000000  celldm(5)=   0.000000  celldm(6)=   0.000000

     crystal axes: (cart. coord. in units of alat)
               a(1) = (   1.000000   0.000000   0.000000 )  
               a(2) = (  -0.500000   0.866025   0.000000 )  
               a(3) = (   0.000000   0.000000   2.451473 )  

     reciprocal axes: (cart. coord. in units 2 pi/alat)
               b(1) = (  1.000000  0.577350 -0.000000 )  
               b(2) = (  0.000000  1.154701  0.000000 )  
               b(3) = (  0.000000 -0.000000  0.407918 )  


     PseudoPot. # 1 for F  read from file:
     ./pseudo/f_pbesol_v1.4.uspp.F.UPF
     MD5 check sum: d2815ecb49b17b99c5724ffd2f9bbd8d
     Pseudo is Ultrasoft, Zval =  7.0
     Generated by new atomic code, or converted to UPF format
     Using radial grid of  799 points,  4 beta functions with: 
                l(1) =   0
                l(2) =   0
                l(3) =   1
                l(4) =   1
     Q(r) pseudized with  8 coefficients,  rinner =    0.950   0.950   0.950


     PseudoPot. # 2 for N  read from file:
     ./pseudo/N.pbesol-theos.UPF
     MD5 check sum: 1b64827339d390a5a22afef3ff345c9d
     Pseudo is Ultrasoft + core correction, Zval =  5.0
     Generated using "atomic" code by A. Dal Corso  v.5.1
     Using radial grid of 1085 points,  4 beta functions with: 
                l(1) =   0
                l(2) =   0
                l(3) =   1
                l(4) =   1
     Q(r) pseudized with 0 coefficients 


     PseudoPot. # 3 for Pt read from file:
     ./pseudo/pt_pbesol_v1.4.uspp.F.UPF
     MD5 check sum: d14d547907f752a992688280a7473f8c
     Pseudo is Ultrasoft + core correction, Zval = 16.0
     Generated by new atomic code, or converted to UPF format
     Using radial grid of  985 points,  6 beta functions with: 
                l(1) =   0
                l(2) =   0
                l(3) =   1
                l(4) =   1
                l(5) =   2
                l(6) =   2
     Q(r) pseudized with  8 coefficients,  rinner =    1.300   1.300   1.300
                                                       1.300   1.300

     atomic species   valence    mass     pseudopotential
        F              7.00    18.99840     F ( 1.00)
        N              5.00    14.00670     N ( 1.00)
        Pt            16.00   195.08400     Pt( 1.00)

     Starting magnetic structure 
     atomic species   magnetization
        F            0.100
        N            0.100
        Pt           0.313

     12 Sym. Ops., with inversion, found


                                    s                        frac. trans.

      isym =  1     identity                                     

 cryst.   s( 1) = (     1          0          0      )
                  (     0          1          0      )
                  (     0          0          1      )

 cart.    s( 1) = (  1.0000000  0.0000000  0.0000000 )
                  (  0.0000000  1.0000000  0.0000000 )
                  (  0.0000000  0.0000000  1.0000000 )


      isym =  2     180 deg rotation - cart. axis [1,0,0]        

 cryst.   s( 2) = (     1          0          0      )
                  (    -1         -1          0      )
                  (     0          0         -1      )

 cart.    s( 2) = (  1.0000000  0.0000000  0.0000000 )
                  (  0.0000000 -1.0000000  0.0000000 )
                  (  0.0000000  0.0000000 -1.0000000 )


      isym =  3     120 deg rotation - cryst. axis [0,0,1]       

 cryst.   s( 3) = (     0          1          0      )
                  (    -1         -1          0      )
                  (     0          0          1      )

 cart.    s( 3) = ( -0.5000000 -0.8660254  0.0000000 )
                  (  0.8660254 -0.5000000  0.0000000 )
                  (  0.0000000  0.0000000  1.0000000 )


      isym =  4     120 deg rotation - cryst. axis [0,0,-1]      

 cryst.   s( 4) = (    -1         -1          0      )
                  (     1          0          0      )
                  (     0          0          1      )

 cart.    s( 4) = ( -0.5000000  0.8660254  0.0000000 )
                  ( -0.8660254 -0.5000000  0.0000000 )
                  (  0.0000000  0.0000000  1.0000000 )


      isym =  5     180 deg rotation - cryst. axis [0,1,0]       

 cryst.   s( 5) = (    -1         -1          0      )
                  (     0          1          0      )
                  (     0          0         -1      )

 cart.    s( 5) = ( -0.5000000 -0.8660254  0.0000000 )
                  ( -0.8660254  0.5000000  0.0000000 )
                  (  0.0000000  0.0000000 -1.0000000 )


      isym =  6     180 deg rotation - cryst. axis [1,1,0]       

 cryst.   s( 6) = (     0          1          0      )
                  (     1          0          0      )
                  (     0          0         -1      )

 cart.    s( 6) = ( -0.5000000  0.8660254  0.0000000 )
                  (  0.8660254  0.5000000  0.0000000 )
                  (  0.0000000  0.0000000 -1.0000000 )


      isym =  7     inversion                                    

 cryst.   s( 7) = (    -1          0          0      )
                  (     0         -1          0      )
                  (     0          0         -1      )

 cart.    s( 7) = ( -1.0000000  0.0000000  0.0000000 )
                  (  0.0000000 -1.0000000  0.0000000 )
                  (  0.0000000  0.0000000 -1.0000000 )


      isym =  8     inv. 180 deg rotation - cart. axis [1,0,0]   

 cryst.   s( 8) = (    -1          0          0      )
                  (     1          1          0      )
                  (     0          0          1      )

 cart.    s( 8) = ( -1.0000000  0.0000000  0.0000000 )
                  (  0.0000000  1.0000000  0.0000000 )
                  (  0.0000000  0.0000000  1.0000000 )


      isym =  9     inv. 120 deg rotation - cryst. axis [0,0,1]  

 cryst.   s( 9) = (     0         -1          0      )
                  (     1          1          0      )
                  (     0          0         -1      )

 cart.    s( 9) = (  0.5000000  0.8660254  0.0000000 )
                  ( -0.8660254  0.5000000  0.0000000 )
                  (  0.0000000  0.0000000 -1.0000000 )


      isym = 10     inv. 120 deg rotation - cryst. axis [0,0,-1] 

 cryst.   s(10) = (     1          1          0      )
                  (    -1          0          0      )
                  (     0          0         -1      )

 cart.    s(10) = (  0.5000000 -0.8660254  0.0000000 )
                  (  0.8660254  0.5000000  0.0000000 )
                  (  0.0000000  0.0000000 -1.0000000 )


      isym = 11     inv. 180 deg rotation - cryst. axis [0,1,0]  

 cryst.   s(11) = (     1          1          0      )
                  (     0         -1          0      )
                  (     0          0          1      )

 cart.    s(11) = (  0.5000000  0.8660254  0.0000000 )
                  (  0.8660254 -0.5000000  0.0000000 )
                  (  0.0000000  0.0000000  1.0000000 )


      isym = 12     inv. 180 deg rotation - cryst. axis [1,1,0]  

 cryst.   s(12) = (     0         -1          0      )
                  (    -1          0          0      )
                  (     0          0          1      )

 cart.    s(12) = (  0.5000000 -0.8660254  0.0000000 )
                  ( -0.8660254 -0.5000000  0.0000000 )
                  (  0.0000000  0.0000000  1.0000000 )


   Cartesian axes

     site n.     atom                  positions (alat units)
         1           Pt  tau(   1) = (   0.0000000   0.0000000   0.0000000  )
         2           N   tau(   2) = (   0.0000000   0.0000000   0.6099264  )
         3           N   tau(   3) = (   0.0000000   0.0000000   1.8415462  )
         4           F   tau(   4) = (  -0.2708000   0.7336967   0.1870474  )
         5           F   tau(   5) = (   0.5000000   0.6013680   2.2644252  )
         6           F   tau(   6) = (   0.2708000   0.7336967   0.1870474  )
         7           F   tau(   7) = (   0.0000000   0.2646574   0.1870474  )
         8           F   tau(   8) = (   0.7708000   0.1323287   2.2644252  )
         9           F   tau(   9) = (   0.2292000   0.1323287   2.2644252  )

   Crystallographic axes

     site n.     atom                  positions (cryst. coord.)
         1           Pt  tau(   1) = (  0.0000000  0.0000000  0.0000000  )
         2           N   tau(   2) = (  0.0000000  0.0000000  0.2488000  )
         3           N   tau(   3) = (  0.0000000  0.0000000  0.7512000  )
         4           F   tau(   4) = (  0.1528000  0.8472000  0.0763000  )
         5           F   tau(   5) = (  0.8472000  0.6944000  0.9237000  )
         6           F   tau(   6) = (  0.6944000  0.8472000  0.0763000  )
         7           F   tau(   7) = (  0.1528000  0.3056000  0.0763000  )
         8           F   tau(   8) = (  0.8472000  0.1528000  0.9237000  )
         9           F   tau(   9) = (  0.3056000  0.1528000  0.9237000  )

     number of k points=    31  Marzari-Vanderbilt smearing, width (Ry)=  0.0100
                       cart. coord. in units 2pi/alat
        k(    1) = (   0.0000000   0.0000000   0.0000000), wk =   0.0041152
        k(    2) = (   0.0000000   0.0000000   0.1359727), wk =   0.0082305
        k(    3) = (   0.0000000   0.1283001   0.0000000), wk =   0.0246914
        k(    4) = (   0.0000000   0.1283001   0.1359727), wk =   0.0246914
        k(    5) = (   0.0000000   0.2566001   0.0000000), wk =   0.0246914
        k(    6) = (   0.0000000   0.2566001   0.1359727), wk =   0.0246914
        k(    7) = (   0.0000000   0.3849002   0.0000000), wk =   0.0246914
        k(    8) = (   0.0000000   0.3849002   0.1359727), wk =   0.0246914
        k(    9) = (   0.0000000   0.5132002   0.0000000), wk =   0.0246914
        k(   10) = (   0.0000000   0.5132002   0.1359727), wk =   0.0246914
        k(   11) = (   0.1111111   0.1924501   0.0000000), wk =   0.0246914
        k(   12) = (   0.1111111   0.1924501   0.1359727), wk =   0.0493827
        k(   13) = (   0.1111111   0.3207501   0.0000000), wk =   0.0493827
        k(   14) = (   0.1111111   0.3207501   0.1359727), wk =   0.0493827
        k(   15) = (   0.1111111   0.4490502   0.0000000), wk =   0.0493827
        k(   16) = (   0.1111111   0.4490502   0.1359727), wk =   0.0493827
        k(   17) = (   0.1111111   0.5773503   0.0000000), wk =   0.0246914
        k(   18) = (   0.1111111   0.5773503   0.1359727), wk =   0.0493827
        k(   19) = (   0.2222222   0.3849002   0.0000000), wk =   0.0246914
        k(   20) = (   0.2222222   0.3849002   0.1359727), wk =   0.0493827
        k(   21) = (   0.2222222   0.5132002   0.0000000), wk =   0.0493827
        k(   22) = (   0.2222222   0.5132002   0.1359727), wk =   0.0493827
        k(   23) = (   0.3333333   0.5773503   0.0000000), wk =   0.0082305
        k(   24) = (   0.3333333   0.5773503   0.1359727), wk =   0.0164609
        k(   25) = (   0.0000000   0.1283001  -0.1359727), wk =   0.0246914
        k(   26) = (   0.0000000   0.2566001  -0.1359727), wk =   0.0246914
        k(   27) = (   0.0000000   0.3849002  -0.1359727), wk =   0.0246914
        k(   28) = (   0.0000000   0.5132002  -0.1359727), wk =   0.0246914
        k(   29) = (  -0.1111111   0.3207501  -0.1359727), wk =   0.0493827
        k(   30) = (  -0.1111111   0.4490502  -0.1359727), wk =   0.0493827
        k(   31) = (  -0.2222222   0.5132002  -0.1359727), wk =   0.0493827

                       cryst. coord.
        k(    1) = (   0.0000000   0.0000000   0.0000000), wk =   0.0041152
        k(    2) = (   0.0000000   0.0000000   0.3333333), wk =   0.0082305
        k(    3) = (   0.0000000   0.1111111   0.0000000), wk =   0.0246914
        k(    4) = (   0.0000000   0.1111111   0.3333333), wk =   0.0246914
        k(    5) = (   0.0000000   0.2222222   0.0000000), wk =   0.0246914
        k(    6) = (   0.0000000   0.2222222   0.3333333), wk =   0.0246914
        k(    7) = (   0.0000000   0.3333333   0.0000000), wk =   0.0246914
        k(    8) = (   0.0000000   0.3333333   0.3333333), wk =   0.0246914
        k(    9) = (   0.0000000   0.4444444   0.0000000), wk =   0.0246914
        k(   10) = (   0.0000000   0.4444444   0.3333333), wk =   0.0246914
        k(   11) = (   0.1111111   0.1111111   0.0000000), wk =   0.0246914
        k(   12) = (   0.1111111   0.1111111   0.3333333), wk =   0.0493827
        k(   13) = (   0.1111111   0.2222222   0.0000000), wk =   0.0493827
        k(   14) = (   0.1111111   0.2222222   0.3333333), wk =   0.0493827
        k(   15) = (   0.1111111   0.3333333   0.0000000), wk =   0.0493827
        k(   16) = (   0.1111111   0.3333333   0.3333333), wk =   0.0493827
        k(   17) = (   0.1111111   0.4444444   0.0000000), wk =   0.0246914
        k(   18) = (   0.1111111   0.4444444   0.3333333), wk =   0.0493827
        k(   19) = (   0.2222222   0.2222222   0.0000000), wk =   0.0246914
        k(   20) = (   0.2222222   0.2222222   0.3333333), wk =   0.0493827
        k(   21) = (   0.2222222   0.3333333   0.0000000), wk =   0.0493827
        k(   22) = (   0.2222222   0.3333333   0.3333333), wk =   0.0493827
        k(   23) = (   0.3333333   0.3333333   0.0000000), wk =   0.0082305
        k(   24) = (   0.3333333   0.3333333   0.3333333), wk =   0.0164609
        k(   25) = (   0.0000000   0.1111111  -0.3333333), wk =   0.0246914
        k(   26) = (   0.0000000   0.2222222  -0.3333333), wk =   0.0246914
        k(   27) = (   0.0000000   0.3333333  -0.3333333), wk =   0.0246914
        k(   28) = (   0.0000000   0.4444444  -0.3333333), wk =   0.0246914
        k(   29) = (  -0.1111111   0.3333333  -0.3333333), wk =   0.0493827
        k(   30) = (  -0.1111111   0.4444444  -0.3333333), wk =   0.0493827
        k(   31) = (  -0.2222222   0.5555556  -0.3333333), wk =   0.0493827

     Dense  grid:   543091 G-vectors     FFT dimensions: (  80,  80, 200)

     Smooth grid:   192131 G-vectors     FFT dimensions: (  60,  60, 144)

     Dynamical RAM for                 wfc:      15.01 MB

     Dynamical RAM for     wfc (w. buffer):     945.80 MB

     Dynamical RAM for           str. fact:      24.86 MB

     Dynamical RAM for           local pot:       0.00 MB

     Dynamical RAM for          nlocal pot:      30.03 MB

     Dynamical RAM for                qrad:       5.27 MB

     Dynamical RAM for          rho,v,vnew:     108.32 MB

     Dynamical RAM for               rhoin:      36.11 MB

     Dynamical RAM for            rho*nmix:     265.18 MB

     Dynamical RAM for           G-vectors:      32.54 MB

     Dynamical RAM for          h,s,v(r/c):       0.31 MB

     Dynamical RAM for          <psi|beta>:       0.05 MB

     Dynamical RAM for                 psi:      30.03 MB

     Dynamical RAM for                hpsi:      30.03 MB

     Dynamical RAM for                spsi:      30.03 MB

     Dynamical RAM for      wfcinit/wfcrot:      32.27 MB

     Dynamical RAM for           addusdens:    1599.37 MB

     Dynamical RAM for          addusforce:    1682.29 MB

     Dynamical RAM for         addusstress:    1678.10 MB

     Estimated static dynamical RAM per process >       1.24 GB

     Estimated max dynamical RAM per process >       3.15 GB
     Generating pointlists ...
     new r_m :   0.1337 (alat units)  1.5097 (a.u.) for type    1
     new r_m :   0.2058 (alat units)  2.3239 (a.u.) for type    2
     new r_m :   0.1337 (alat units)  1.5097 (a.u.) for type    3

     Initial potential from superposition of free atoms

     starting charge      67.5000, renormalised to      68.0000

     negative rho (up, down):  1.208E-01 6.321E-02
     Starting wfcs are   44 randomized atomic wfcs

     total cpu time spent up to now is        7.1 secs

     per-process dynamical memory:  1921.9 Mb

     Self-consistent Calculation
[tb_dev] Currently allocated     2.33E+01 Mbytes, locked:    0 /  14
[tb_pin] Currently allocated     0.00E+00 Mbytes, locked:    0 /   0

     iteration #  1     ecut=    60.00 Ry     beta= 0.40
     Davidson diagonalization with overlap

---- Real-time Memory Report at c_bands before calling an iterative solver
          2100 MiB given to the printing process from OS
          1917 MiB allocation reported by mallinfo(arena+hblkhd)
         38591 MiB available memory on the node where the printing process lives
     GPU memory used/free/total (MiB): 1808 / 14472 / 16280
------------------
     ethr =  1.00E-02,  avg # of iterations =  3.9

     negative rho (up, down):  1.000E-01 6.502E-02

     total cpu time spent up to now is       12.4 secs

     total energy              =    -527.81818218 Ry
     estimated scf accuracy    <      23.63224404 Ry

     total magnetization       =     2.00 Bohr mag/cell
     absolute magnetization    =     2.47 Bohr mag/cell
[tb_dev] Currently allocated     2.33E+01 Mbytes, locked:    0 /  12
[tb_pin] Currently allocated     0.00E+00 Mbytes, locked:    0 /   0

     iteration #  2     ecut=    60.00 Ry     beta= 0.40
     Davidson diagonalization with overlap

---- Real-time Memory Report at c_bands before calling an iterative solver
          2267 MiB given to the printing process from OS
          2035 MiB allocation reported by mallinfo(arena+hblkhd)
         38473 MiB available memory on the node where the printing process lives
     GPU memory used/free/total (MiB): 3750 / 12530 / 16280
------------------
     ethr =  1.00E-02,  avg # of iterations =  3.9

     negative rho (up, down):  9.888E-02 6.833E-02

     total cpu time spent up to now is       19.1 secs

     WARNING: integrated charge=    68.00001208, expected=    68.00000000

     total energy              =    -539.72377543 Ry
     estimated scf accuracy    <      60.86460924 Ry

     total magnetization       =     2.00 Bohr mag/cell
     absolute magnetization    =     2.29 Bohr mag/cell
[tb_dev] Currently allocated     2.33E+01 Mbytes, locked:    0 /  12
[tb_pin] Currently allocated     0.00E+00 Mbytes, locked:    0 /   0

     iteration #  3     ecut=    60.00 Ry     beta= 0.40
     Davidson diagonalization with overlap

---- Real-time Memory Report at c_bands before calling an iterative solver
          2285 MiB given to the printing process from OS
         -2042 MiB allocation reported by mallinfo(arena+hblkhd)
         38458 MiB available memory on the node where the printing process lives
     GPU memory used/free/total (MiB): 4038 / 12242 / 16280
------------------
     ethr =  1.00E-02,  avg # of iterations =  6.2

     negative rho (up, down):  1.038E-01 8.482E-02

     total cpu time spent up to now is       26.0 secs

     WARNING: integrated charge=    67.99998436, expected=    68.00000000

     total energy              =    -533.41183498 Ry
     estimated scf accuracy    <      22.46361807 Ry

     total magnetization       =    -0.00 Bohr mag/cell
     absolute magnetization    =     0.35 Bohr mag/cell
[tb_dev] Currently allocated     2.33E+01 Mbytes, locked:    0 /  12
[tb_pin] Currently allocated     0.00E+00 Mbytes, locked:    0 /   0

     iteration #  4     ecut=    60.00 Ry     beta= 0.40
     Davidson diagonalization with overlap

---- Real-time Memory Report at c_bands before calling an iterative solver
          2297 MiB given to the printing process from OS
         -2031 MiB allocation reported by mallinfo(arena+hblkhd)
         38446 MiB available memory on the node where the printing process lives
     GPU memory used/free/total (MiB): 4446 / 11834 / 16280
------------------
     ethr =  1.00E-02,  avg # of iterations =  6.4

     negative rho (up, down):  9.770E-02 7.800E-02

     total cpu time spent up to now is       33.7 secs

     total energy              =    -539.47952926 Ry
     estimated scf accuracy    <      38.36940145 Ry

     total magnetization       =     2.37 Bohr mag/cell
     absolute magnetization    =     2.48 Bohr mag/cell
[tb_dev] Currently allocated     2.33E+01 Mbytes, locked:    0 /  12
[tb_pin] Currently allocated     0.00E+00 Mbytes, locked:    0 /   0

     iteration #  5     ecut=    60.00 Ry     beta= 0.40
     Davidson diagonalization with overlap

---- Real-time Memory Report at c_bands before calling an iterative solver
          2303 MiB given to the printing process from OS
         -2025 MiB allocation reported by mallinfo(arena+hblkhd)
         38442 MiB available memory on the node where the printing process lives
     GPU memory used/free/total (MiB): 4446 / 11834 / 16280
------------------
     ethr =  1.00E-02,  avg # of iterations =  4.0

     negative rho (up, down):  9.832E-02 7.634E-02

     total cpu time spent up to now is       39.3 secs

     total energy              =    -539.44816507 Ry
     estimated scf accuracy    <      10.47692954 Ry

     total magnetization       =     3.76 Bohr mag/cell
     absolute magnetization    =     3.79 Bohr mag/cell
[tb_dev] Currently allocated     2.33E+01 Mbytes, locked:    0 /  12
[tb_pin] Currently allocated     0.00E+00 Mbytes, locked:    0 /   0

     iteration #  6     ecut=    60.00 Ry     beta= 0.40
     Davidson diagonalization with overlap

---- Real-time Memory Report at c_bands before calling an iterative solver
          2320 MiB given to the printing process from OS
         -2007 MiB allocation reported by mallinfo(arena+hblkhd)
         38424 MiB available memory on the node where the printing process lives
     GPU memory used/free/total (MiB): 4446 / 11834 / 16280
------------------
     ethr =  1.00E-02,  avg # of iterations =  1.4

     negative rho (up, down):  9.711E-02 7.916E-02

     total cpu time spent up to now is       44.0 secs

     total energy              =    -540.38767986 Ry
     estimated scf accuracy    <       2.29057053 Ry

     total magnetization       =     4.00 Bohr mag/cell
     absolute magnetization    =     4.26 Bohr mag/cell
[tb_dev] Currently allocated     2.33E+01 Mbytes, locked:    0 /  12
[tb_pin] Currently allocated     0.00E+00 Mbytes, locked:    0 /   0

     iteration #  7     ecut=    60.00 Ry     beta= 0.40
     Davidson diagonalization with overlap

---- Real-time Memory Report at c_bands before calling an iterative solver
          2332 MiB given to the printing process from OS
         -1995 MiB allocation reported by mallinfo(arena+hblkhd)
         38413 MiB available memory on the node where the printing process lives
     GPU memory used/free/total (MiB): 4446 / 11834 / 16280
------------------
     ethr =  3.37E-03,  avg # of iterations =  1.7

     negative rho (up, down):  9.757E-02 7.934E-02

     total cpu time spent up to now is       48.7 secs

     total energy              =    -540.64931983 Ry
     estimated scf accuracy    <       0.39177348 Ry

     total magnetization       =     8.23 Bohr mag/cell
     absolute magnetization    =     8.27 Bohr mag/cell
[tb_dev] Currently allocated     2.33E+01 Mbytes, locked:    0 /  12
[tb_pin] Currently allocated     0.00E+00 Mbytes, locked:    0 /   0

     iteration #  8     ecut=    60.00 Ry     beta= 0.40
     Davidson diagonalization with overlap

---- Real-time Memory Report at c_bands before calling an iterative solver
          2344 MiB given to the printing process from OS
         -1984 MiB allocation reported by mallinfo(arena+hblkhd)
         38402 MiB available memory on the node where the printing process lives
     GPU memory used/free/total (MiB): 4446 / 11834 / 16280
------------------
     ethr =  5.76E-04,  avg # of iterations =  1.9

     negative rho (up, down):  9.401E-02 8.219E-02

     total cpu time spent up to now is       53.5 secs

     total energy              =    -540.87453800 Ry
     estimated scf accuracy    <       8.50086618 Ry

     total magnetization       =     2.86 Bohr mag/cell
     absolute magnetization    =     3.01 Bohr mag/cell
[tb_dev] Currently allocated     2.33E+01 Mbytes, locked:    0 /  12
[tb_pin] Currently allocated     0.00E+00 Mbytes, locked:    0 /   0

     iteration #  9     ecut=    60.00 Ry     beta= 0.40
     Davidson diagonalization with overlap

---- Real-time Memory Report at c_bands before calling an iterative solver
          2356 MiB given to the printing process from OS
         -1972 MiB allocation reported by mallinfo(arena+hblkhd)
         38390 MiB available memory on the node where the printing process lives
     GPU memory used/free/total (MiB): 4446 / 11834 / 16280
------------------
     ethr =  5.76E-04,  avg # of iterations =  1.5

     negative rho (up, down):  9.504E-02 8.914E-02

     total cpu time spent up to now is       58.3 secs

     total energy              =    -540.26850221 Ry
     estimated scf accuracy    <       7.63888566 Ry

     total magnetization       =     3.11 Bohr mag/cell
     absolute magnetization    =     3.24 Bohr mag/cell
[tb_dev] Currently allocated     2.33E+01 Mbytes, locked:    0 /  12
[tb_pin] Currently allocated     0.00E+00 Mbytes, locked:    0 /   0

     iteration # 10     ecut=    60.00 Ry     beta= 0.40
     Davidson diagonalization with overlap

---- Real-time Memory Report at c_bands before calling an iterative solver
          2367 MiB given to the printing process from OS
         -1960 MiB allocation reported by mallinfo(arena+hblkhd)
         38378 MiB available memory on the node where the printing process lives
     GPU memory used/free/total (MiB): 4446 / 11834 / 16280
------------------
     ethr =  5.76E-04,  avg # of iterations =  2.4

     negative rho (up, down):  9.580E-02 8.986E-02

     total cpu time spent up to now is       63.4 secs

     total energy              =    -540.75302036 Ry
     estimated scf accuracy    <       0.19834941 Ry

     total magnetization       =     8.09 Bohr mag/cell
     absolute magnetization    =     8.12 Bohr mag/cell
[tb_dev] Currently allocated     2.33E+01 Mbytes, locked:    0 /  12
[tb_pin] Currently allocated     0.00E+00 Mbytes, locked:    0 /   0

     iteration # 11     ecut=    60.00 Ry     beta= 0.40
     Davidson diagonalization with overlap

---- Real-time Memory Report at c_bands before calling an iterative solver
          2367 MiB given to the printing process from OS
         -1960 MiB allocation reported by mallinfo(arena+hblkhd)
         38377 MiB available memory on the node where the printing process lives
     GPU memory used/free/total (MiB): 4446 / 11834 / 16280
------------------
     ethr =  2.92E-04,  avg # of iterations =  2.0

     negative rho (up, down):  9.544E-02 8.813E-02

     total cpu time spent up to now is       68.2 secs

     total energy              =    -540.71068601 Ry
     estimated scf accuracy    <       0.11420124 Ry

     total magnetization       =     8.21 Bohr mag/cell
     absolute magnetization    =     8.24 Bohr mag/cell
[tb_dev] Currently allocated     2.33E+01 Mbytes, locked:    0 /  12
[tb_pin] Currently allocated     0.00E+00 Mbytes, locked:    0 /   0

     iteration # 12     ecut=    60.00 Ry     beta= 0.40
     Davidson diagonalization with overlap

---- Real-time Memory Report at c_bands before calling an iterative solver
          2367 MiB given to the printing process from OS
         -1960 MiB allocation reported by mallinfo(arena+hblkhd)
         38377 MiB available memory on the node where the printing process lives
     GPU memory used/free/total (MiB): 4446 / 11834 / 16280
------------------
     ethr =  1.68E-04,  avg # of iterations =  8.8

     negative rho (up, down):  9.566E-02 8.858E-02

     total cpu time spent up to now is       75.5 secs

     total energy              =    -540.81187762 Ry
     estimated scf accuracy    <       1.75649110 Ry

     total magnetization       =     3.99 Bohr mag/cell
     absolute magnetization    =     4.31 Bohr mag/cell
[tb_dev] Currently allocated     2.33E+01 Mbytes, locked:    0 /  12
[tb_pin] Currently allocated     0.00E+00 Mbytes, locked:    0 /   0

     iteration # 13     ecut=    60.00 Ry     beta= 0.40
     Davidson diagonalization with overlap

---- Real-time Memory Report at c_bands before calling an iterative solver
          2367 MiB given to the printing process from OS
         -1960 MiB allocation reported by mallinfo(arena+hblkhd)
         38377 MiB available memory on the node where the printing process lives
     GPU memory used/free/total (MiB): 4446 / 11834 / 16280
------------------
     ethr =  1.68E-04,  avg # of iterations =  1.0

     negative rho (up, down):  9.376E-02 8.565E-02

     total cpu time spent up to now is       80.1 secs

     total energy              =    -540.74390056 Ry
     estimated scf accuracy    <       1.85094575 Ry

     total magnetization       =     4.00 Bohr mag/cell
     absolute magnetization    =     4.26 Bohr mag/cell
[tb_dev] Currently allocated     2.33E+01 Mbytes, locked:    0 /  12
[tb_pin] Currently allocated     0.00E+00 Mbytes, locked:    0 /   0

     iteration # 14     ecut=    60.00 Ry     beta= 0.40
     Davidson diagonalization with overlap

---- Real-time Memory Report at c_bands before calling an iterative solver
          2367 MiB given to the printing process from OS
         -1960 MiB allocation reported by mallinfo(arena+hblkhd)
         38378 MiB available memory on the node where the printing process lives
     GPU memory used/free/total (MiB): 4446 / 11834 / 16280
------------------
     ethr =  1.68E-04,  avg # of iterations =  1.0

     negative rho (up, down):  9.199E-02 8.492E-02

     total cpu time spent up to now is       84.7 secs

     total energy              =    -540.62965404 Ry
     estimated scf accuracy    <       1.64194143 Ry

     total magnetization       =     3.85 Bohr mag/cell
     absolute magnetization    =     4.29 Bohr mag/cell
[tb_dev] Currently allocated     2.33E+01 Mbytes, locked:    0 /  12
[tb_pin] Currently allocated     0.00E+00 Mbytes, locked:    0 /   0

     iteration # 15     ecut=    60.00 Ry     beta= 0.40
     Davidson diagonalization with overlap

---- Real-time Memory Report at c_bands before calling an iterative solver
          2367 MiB given to the printing process from OS
         -1960 MiB allocation reported by mallinfo(arena+hblkhd)
         38378 MiB available memory on the node where the printing process lives
     GPU memory used/free/total (MiB): 4446 / 11834 / 16280
------------------
     ethr =  1.68E-04,  avg # of iterations =  2.4

     negative rho (up, down):  9.162E-02 8.452E-02

     total cpu time spent up to now is       89.7 secs

     total energy              =    -540.73559353 Ry
     estimated scf accuracy    <       0.03681293 Ry

     total magnetization       =     8.02 Bohr mag/cell
     absolute magnetization    =     8.08 Bohr mag/cell
[tb_dev] Currently allocated     2.33E+01 Mbytes, locked:    0 /  12
[tb_pin] Currently allocated     0.00E+00 Mbytes, locked:    0 /   0

     iteration # 16     ecut=    60.00 Ry     beta= 0.40
     Davidson diagonalization with overlap

---- Real-time Memory Report at c_bands before calling an iterative solver
          2367 MiB given to the printing process from OS
         -1960 MiB allocation reported by mallinfo(arena+hblkhd)
         38378 MiB available memory on the node where the printing process lives
     GPU memory used/free/total (MiB): 4446 / 11834 / 16280
------------------
     ethr =  5.41E-05,  avg # of iterations =  2.5

     negative rho (up, down):  9.143E-02 8.429E-02

     total cpu time spent up to now is       94.7 secs

     total energy              =    -540.73727850 Ry
     estimated scf accuracy    <       0.03003924 Ry

     total magnetization       =     8.03 Bohr mag/cell
     absolute magnetization    =     8.09 Bohr mag/cell
[tb_dev] Currently allocated     2.33E+01 Mbytes, locked:    0 /  12
[tb_pin] Currently allocated     0.00E+00 Mbytes, locked:    0 /   0

     iteration # 17     ecut=    60.00 Ry     beta= 0.40
     Davidson diagonalization with overlap

---- Real-time Memory Report at c_bands before calling an iterative solver
          2367 MiB given to the printing process from OS
         -1960 MiB allocation reported by mallinfo(arena+hblkhd)
         38378 MiB available memory on the node where the printing process lives
     GPU memory used/free/total (MiB): 4446 / 11834 / 16280
------------------
     ethr =  4.42E-05,  avg # of iterations =  1.5

     negative rho (up, down):  9.126E-02 8.406E-02

     total cpu time spent up to now is       99.4 secs

     total energy              =    -540.73838599 Ry
     estimated scf accuracy    <       0.03179353 Ry

     total magnetization       =     8.02 Bohr mag/cell
     absolute magnetization    =     8.08 Bohr mag/cell
[tb_dev] Currently allocated     2.33E+01 Mbytes, locked:    0 /  12
[tb_pin] Currently allocated     0.00E+00 Mbytes, locked:    0 /   0

     iteration # 18     ecut=    60.00 Ry     beta= 0.40
     Davidson diagonalization with overlap

---- Real-time Memory Report at c_bands before calling an iterative solver
          2367 MiB given to the printing process from OS
         -1960 MiB allocation reported by mallinfo(arena+hblkhd)
         38379 MiB available memory on the node where the printing process lives
     GPU memory used/free/total (MiB): 4446 / 11834 / 16280
------------------
     ethr =  4.42E-05,  avg # of iterations =  1.4

     negative rho (up, down):  9.105E-02 8.422E-02

     total cpu time spent up to now is      104.1 secs

     total energy              =    -540.74082531 Ry
     estimated scf accuracy    <       0.03350976 Ry

     total magnetization       =     8.02 Bohr mag/cell
     absolute magnetization    =     8.07 Bohr mag/cell
[tb_dev] Currently allocated     2.33E+01 Mbytes, locked:    0 /  12
[tb_pin] Currently allocated     0.00E+00 Mbytes, locked:    0 /   0

     iteration # 19     ecut=    60.00 Ry     beta= 0.40
     Davidson diagonalization with overlap

---- Real-time Memory Report at c_bands before calling an iterative solver
          2367 MiB given to the printing process from OS
         -1960 MiB allocation reported by mallinfo(arena+hblkhd)
         38378 MiB available memory on the node where the printing process lives
     GPU memory used/free/total (MiB): 4446 / 11834 / 16280
------------------
     ethr =  4.42E-05,  avg # of iterations =  3.4

     negative rho (up, down):  9.108E-02 8.417E-02

     total cpu time spent up to now is      109.4 secs

     total energy              =    -540.73505125 Ry
     estimated scf accuracy    <       0.04033931 Ry

     total magnetization       =     8.02 Bohr mag/cell
     absolute magnetization    =     8.08 Bohr mag/cell
[tb_dev] Currently allocated     2.33E+01 Mbytes, locked:    0 /  12
[tb_pin] Currently allocated     0.00E+00 Mbytes, locked:    0 /   0

     iteration # 20     ecut=    60.00 Ry     beta= 0.40
     Davidson diagonalization with overlap

---- Real-time Memory Report at c_bands before calling an iterative solver
          2367 MiB given to the printing process from OS
         -1960 MiB allocation reported by mallinfo(arena+hblkhd)
         38379 MiB available memory on the node where the printing process lives
     GPU memory used/free/total (MiB): 4446 / 11834 / 16280
------------------
     ethr =  4.42E-05,  avg # of iterations =  1.1

     negative rho (up, down):  9.114E-02 8.414E-02

     total cpu time spent up to now is      114.0 secs

     total energy              =    -540.73292761 Ry
     estimated scf accuracy    <       0.03353331 Ry

     total magnetization       =     8.10 Bohr mag/cell
     absolute magnetization    =     8.15 Bohr mag/cell
[tb_dev] Currently allocated     2.33E+01 Mbytes, locked:    0 /  12
[tb_pin] Currently allocated     0.00E+00 Mbytes, locked:    0 /   0

     iteration # 21     ecut=    60.00 Ry     beta= 0.40
     Davidson diagonalization with overlap

---- Real-time Memory Report at c_bands before calling an iterative solver
          2367 MiB given to the printing process from OS
         -1960 MiB allocation reported by mallinfo(arena+hblkhd)
         38380 MiB available memory on the node where the printing process lives
     GPU memory used/free/total (MiB): 4446 / 11834 / 16280
------------------
     ethr =  4.42E-05,  avg # of iterations =  1.2

     negative rho (up, down):  9.124E-02 8.403E-02

     total cpu time spent up to now is      118.7 secs

     total energy              =    -540.72851890 Ry
     estimated scf accuracy    <       0.03438292 Ry

     total magnetization       =     8.16 Bohr mag/cell
     absolute magnetization    =     8.22 Bohr mag/cell
[tb_dev] Currently allocated     2.33E+01 Mbytes, locked:    0 /  12
[tb_pin] Currently allocated     0.00E+00 Mbytes, locked:    0 /   0

     iteration # 22     ecut=    60.00 Ry     beta= 0.40
     Davidson diagonalization with overlap

---- Real-time Memory Report at c_bands before calling an iterative solver
          2367 MiB given to the printing process from OS
         -1960 MiB allocation reported by mallinfo(arena+hblkhd)
         38380 MiB available memory on the node where the printing process lives
     GPU memory used/free/total (MiB): 4446 / 11834 / 16280
------------------
     ethr =  4.42E-05,  avg # of iterations =  3.0

     negative rho (up, down):  9.122E-02 8.405E-02

     total cpu time spent up to now is      123.8 secs

     total energy              =    -540.72844368 Ry
     estimated scf accuracy    <       0.07392591 Ry

     total magnetization       =     8.35 Bohr mag/cell
     absolute magnetization    =     8.41 Bohr mag/cell
[tb_dev] Currently allocated     2.33E+01 Mbytes, locked:    0 /  12
[tb_pin] Currently allocated     0.00E+00 Mbytes, locked:    0 /   0

     iteration # 23     ecut=    60.00 Ry     beta= 0.40
     Davidson diagonalization with overlap

---- Real-time Memory Report at c_bands before calling an iterative solver
          2367 MiB given to the printing process from OS
         -1960 MiB allocation reported by mallinfo(arena+hblkhd)
         38379 MiB available memory on the node where the printing process lives
     GPU memory used/free/total (MiB): 4446 / 11834 / 16280
------------------
     ethr =  4.42E-05,  avg # of iterations =  1.0

     negative rho (up, down):  9.102E-02 8.435E-02

     total cpu time spent up to now is      128.4 secs

     total energy              =    -540.75514771 Ry
     estimated scf accuracy    <       0.07076828 Ry

     total magnetization       =     8.38 Bohr mag/cell
     absolute magnetization    =     8.43 Bohr mag/cell
[tb_dev] Currently allocated     2.33E+01 Mbytes, locked:    0 /  12
[tb_pin] Currently allocated     0.00E+00 Mbytes, locked:    0 /   0

     iteration # 24     ecut=    60.00 Ry     beta= 0.40
     Davidson diagonalization with overlap

---- Real-time Memory Report at c_bands before calling an iterative solver
          2367 MiB given to the printing process from OS
         -1960 MiB allocation reported by mallinfo(arena+hblkhd)
         38379 MiB available memory on the node where the printing process lives
     GPU memory used/free/total (MiB): 4446 / 11834 / 16280
------------------
     ethr =  4.42E-05,  avg # of iterations =  6.6

     negative rho (up, down):  9.103E-02 8.434E-02

     total cpu time spent up to now is      134.6 secs

     total energy              =    -540.74603564 Ry
     estimated scf accuracy    <       0.05066812 Ry

     total magnetization       =     8.02 Bohr mag/cell
     absolute magnetization    =     8.08 Bohr mag/cell
[tb_dev] Currently allocated     2.33E+01 Mbytes, locked:    0 /  12
[tb_pin] Currently allocated     0.00E+00 Mbytes, locked:    0 /   0

     iteration # 25     ecut=    60.00 Ry     beta= 0.40
     Davidson diagonalization with overlap

---- Real-time Memory Report at c_bands before calling an iterative solver
          2367 MiB given to the printing process from OS
         -1960 MiB allocation reported by mallinfo(arena+hblkhd)
         38381 MiB available memory on the node where the printing process lives
     GPU memory used/free/total (MiB): 4446 / 11834 / 16280
------------------
     ethr =  4.42E-05,  avg # of iterations =  1.0

     negative rho (up, down):  9.114E-02 8.424E-02

     total cpu time spent up to now is      139.2 secs

     total energy              =    -540.74079241 Ry
     estimated scf accuracy    <       0.05061062 Ry

     total magnetization       =     8.02 Bohr mag/cell
     absolute magnetization    =     8.08 Bohr mag/cell
[tb_dev] Currently allocated     2.33E+01 Mbytes, locked:    0 /  12
[tb_pin] Currently allocated     0.00E+00 Mbytes, locked:    0 /   0

     iteration # 26     ecut=    60.00 Ry     beta= 0.40
     Davidson diagonalization with overlap

---- Real-time Memory Report at c_bands before calling an iterative solver
          2367 MiB given to the printing process from OS
         -1960 MiB allocation reported by mallinfo(arena+hblkhd)
         38380 MiB available memory on the node where the printing process lives
     GPU memory used/free/total (MiB): 4446 / 11834 / 16280
------------------
     ethr =  4.42E-05,  avg # of iterations =  1.1

     negative rho (up, down):  9.130E-02 8.404E-02

     total cpu time spent up to now is      143.8 secs

     total energy              =    -540.72709285 Ry
     estimated scf accuracy    <       0.04037834 Ry

     total magnetization       =     8.03 Bohr mag/cell
     absolute magnetization    =     8.08 Bohr mag/cell
[tb_dev] Currently allocated     2.33E+01 Mbytes, locked:    0 /  12
[tb_pin] Currently allocated     0.00E+00 Mbytes, locked:    0 /   0

     iteration # 27     ecut=    60.00 Ry     beta= 0.40
     Davidson diagonalization with overlap

---- Real-time Memory Report at c_bands before calling an iterative solver
          2367 MiB given to the printing process from OS
         -1960 MiB allocation reported by mallinfo(arena+hblkhd)
         38380 MiB available memory on the node where the printing process lives
     GPU memory used/free/total (MiB): 4446 / 11834 / 16280
------------------
     ethr =  4.42E-05,  avg # of iterations =  6.6

     negative rho (up, down):  9.124E-02 8.407E-02

     total cpu time spent up to now is      150.2 secs

     total energy              =    -540.72535883 Ry
     estimated scf accuracy    <       0.01444969 Ry

     total magnetization       =     7.82 Bohr mag/cell
     absolute magnetization    =     7.88 Bohr mag/cell
[tb_dev] Currently allocated     2.33E+01 Mbytes, locked:    0 /  12
[tb_pin] Currently allocated     0.00E+00 Mbytes, locked:    0 /   0

     iteration # 28     ecut=    60.00 Ry     beta= 0.40
     Davidson diagonalization with overlap

---- Real-time Memory Report at c_bands before calling an iterative solver
          2367 MiB given to the printing process from OS
         -1960 MiB allocation reported by mallinfo(arena+hblkhd)
         38380 MiB available memory on the node where the printing process lives
     GPU memory used/free/total (MiB): 4446 / 11834 / 16280
------------------
     ethr =  2.12E-05,  avg # of iterations =  1.0

     negative rho (up, down):  9.122E-02 8.407E-02

     total cpu time spent up to now is      154.7 secs

     total energy              =    -540.72535156 Ry
     estimated scf accuracy    <       0.01581488 Ry

     total magnetization       =     7.83 Bohr mag/cell
     absolute magnetization    =     7.89 Bohr mag/cell
[tb_dev] Currently allocated     2.33E+01 Mbytes, locked:    0 /  12
[tb_pin] Currently allocated     0.00E+00 Mbytes, locked:    0 /   0

     iteration # 29     ecut=    60.00 Ry     beta= 0.40
     Davidson diagonalization with overlap

---- Real-time Memory Report at c_bands before calling an iterative solver
          2367 MiB given to the printing process from OS
         -1960 MiB allocation reported by mallinfo(arena+hblkhd)
         38380 MiB available memory on the node where the printing process lives
     GPU memory used/free/total (MiB): 4446 / 11834 / 16280
------------------
     ethr =  2.12E-05,  avg # of iterations =  1.0

     negative rho (up, down):  9.123E-02 8.405E-02

     total cpu time spent up to now is      159.4 secs

     total energy              =    -540.72425502 Ry
     estimated scf accuracy    <       0.01217384 Ry

     total magnetization       =     7.76 Bohr mag/cell
     absolute magnetization    =     7.82 Bohr mag/cell
[tb_dev] Currently allocated     2.33E+01 Mbytes, locked:    0 /  12
[tb_pin] Currently allocated     0.00E+00 Mbytes, locked:    0 /   0

     iteration # 30     ecut=    60.00 Ry     beta= 0.40
     Davidson diagonalization with overlap

---- Real-time Memory Report at c_bands before calling an iterative solver
          2367 MiB given to the printing process from OS
         -1960 MiB allocation reported by mallinfo(arena+hblkhd)
         38349 MiB available memory on the node where the printing process lives
     GPU memory used/free/total (MiB): 4446 / 11834 / 16280
------------------
     ethr =  1.79E-05,  avg # of iterations =  1.1

     negative rho (up, down):  9.109E-02 8.409E-02

     total cpu time spent up to now is      164.0 secs

     total energy              =    -540.71853832 Ry
     estimated scf accuracy    <       0.21175683 Ry

     total magnetization       =     6.19 Bohr mag/cell
     absolute magnetization    =     6.28 Bohr mag/cell
[tb_dev] Currently allocated     2.33E+01 Mbytes, locked:    0 /  12
[tb_pin] Currently allocated     0.00E+00 Mbytes, locked:    0 /   0

     iteration # 31     ecut=    60.00 Ry     beta= 0.40
     Davidson diagonalization with overlap

---- Real-time Memory Report at c_bands before calling an iterative solver
          2367 MiB given to the printing process from OS
         -1960 MiB allocation reported by mallinfo(arena+hblkhd)
         38354 MiB available memory on the node where the printing process lives
     GPU memory used/free/total (MiB): 4446 / 11834 / 16280
------------------
     ethr =  1.79E-05,  avg # of iterations =  1.0

     negative rho (up, down):  9.102E-02 8.413E-02

     total cpu time spent up to now is      168.6 secs

     total energy              =    -540.73093497 Ry
     estimated scf accuracy    <       0.06047772 Ry

     total magnetization       =     8.25 Bohr mag/cell
     absolute magnetization    =     8.31 Bohr mag/cell
[tb_dev] Currently allocated     2.33E+01 Mbytes, locked:    0 /  12
[tb_pin] Currently allocated     0.00E+00 Mbytes, locked:    0 /   0

     iteration # 32     ecut=    60.00 Ry     beta= 0.40
     Davidson diagonalization with overlap

---- Real-time Memory Report at c_bands before calling an iterative solver
          2367 MiB given to the printing process from OS
         -1960 MiB allocation reported by mallinfo(arena+hblkhd)
         38360 MiB available memory on the node where the printing process lives
     GPU memory used/free/total (MiB): 4446 / 11834 / 16280
------------------
     ethr =  1.79E-05,  avg # of iterations =  1.2

     negative rho (up, down):  9.107E-02 8.411E-02

     total cpu time spent up to now is      173.2 secs

     total energy              =    -540.72900464 Ry
     estimated scf accuracy    <       0.04179195 Ry

     total magnetization       =     8.23 Bohr mag/cell
     absolute magnetization    =     8.29 Bohr mag/cell
[tb_dev] Currently allocated     2.33E+01 Mbytes, locked:    0 /  12
[tb_pin] Currently allocated     0.00E+00 Mbytes, locked:    0 /   0

     iteration # 33     ecut=    60.00 Ry     beta= 0.40
     Davidson diagonalization with overlap

---- Real-time Memory Report at c_bands before calling an iterative solver
          2367 MiB given to the printing process from OS
         -1960 MiB allocation reported by mallinfo(arena+hblkhd)
         38365 MiB available memory on the node where the printing process lives
     GPU memory used/free/total (MiB): 4446 / 11834 / 16280
------------------
     ethr =  1.79E-05,  avg # of iterations =  1.0

     negative rho (up, down):  9.113E-02 8.408E-02

     total cpu time spent up to now is      177.8 secs

     total energy              =    -540.72627712 Ry
     estimated scf accuracy    <       0.06506867 Ry

     total magnetization       =     8.34 Bohr mag/cell
     absolute magnetization    =     8.39 Bohr mag/cell
[tb_dev] Currently allocated     2.33E+01 Mbytes, locked:    0 /  12
[tb_pin] Currently allocated     0.00E+00 Mbytes, locked:    0 /   0

     iteration # 34     ecut=    60.00 Ry     beta= 0.40
     Davidson diagonalization with overlap

---- Real-time Memory Report at c_bands before calling an iterative solver
          2367 MiB given to the printing process from OS
         -1960 MiB allocation reported by mallinfo(arena+hblkhd)
         38368 MiB available memory on the node where the printing process lives
     GPU memory used/free/total (MiB): 4446 / 11834 / 16280
------------------
     ethr =  1.79E-05,  avg # of iterations =  1.0

     negative rho (up, down):  9.116E-02 8.405E-02

     total cpu time spent up to now is      182.4 secs

     total energy              =    -540.72370124 Ry
     estimated scf accuracy    <       0.05009537 Ry

     total magnetization       =     8.15 Bohr mag/cell
     absolute magnetization    =     8.21 Bohr mag/cell
[tb_dev] Currently allocated     2.33E+01 Mbytes, locked:    0 /  12
[tb_pin] Currently allocated     0.00E+00 Mbytes, locked:    0 /   0

     iteration # 35     ecut=    60.00 Ry     beta= 0.40
     Davidson diagonalization with overlap

---- Real-time Memory Report at c_bands before calling an iterative solver
          2367 MiB given to the printing process from OS
         -1960 MiB allocation reported by mallinfo(arena+hblkhd)
         38371 MiB available memory on the node where the printing process lives
     GPU memory used/free/total (MiB): 4446 / 11834 / 16280
------------------
     ethr =  1.79E-05,  avg # of iterations =  1.0

     negative rho (up, down):  9.108E-02 8.412E-02

     total cpu time spent up to now is      187.0 secs

     total energy              =    -540.72146087 Ry
     estimated scf accuracy    <       0.03635338 Ry

     total magnetization       =     6.98 Bohr mag/cell
     absolute magnetization    =     7.05 Bohr mag/cell
[tb_dev] Currently allocated     2.33E+01 Mbytes, locked:    0 /  12
[tb_pin] Currently allocated     0.00E+00 Mbytes, locked:    0 /   0

     iteration # 36     ecut=    60.00 Ry     beta= 0.40
     Davidson diagonalization with overlap

---- Real-time Memory Report at c_bands before calling an iterative solver
          2367 MiB given to the printing process from OS
         -1960 MiB allocation reported by mallinfo(arena+hblkhd)
         38372 MiB available memory on the node where the printing process lives
     GPU memory used/free/total (MiB): 4446 / 11834 / 16280
------------------
     ethr =  1.79E-05,  avg # of iterations =  1.0

     negative rho (up, down):  9.112E-02 8.413E-02

     total cpu time spent up to now is      191.6 secs

     total energy              =    -540.72985576 Ry
     estimated scf accuracy    <       0.05229269 Ry

     total magnetization       =     8.31 Bohr mag/cell
     absolute magnetization    =     8.37 Bohr mag/cell
[tb_dev] Currently allocated     2.33E+01 Mbytes, locked:    0 /  12
[tb_pin] Currently allocated     0.00E+00 Mbytes, locked:    0 /   0

     iteration # 37     ecut=    60.00 Ry     beta= 0.40
     Davidson diagonalization with overlap

---- Real-time Memory Report at c_bands before calling an iterative solver
          2367 MiB given to the printing process from OS
         -1960 MiB allocation reported by mallinfo(arena+hblkhd)
         38373 MiB available memory on the node where the printing process lives
     GPU memory used/free/total (MiB): 4446 / 11834 / 16280
------------------
     ethr =  1.79E-05,  avg # of iterations =  1.0

     negative rho (up, down):  9.113E-02 8.413E-02

     total cpu time spent up to now is      196.3 secs

     total energy              =    -540.72934666 Ry
     estimated scf accuracy    <       0.05397190 Ry

     total magnetization       =     8.32 Bohr mag/cell
     absolute magnetization    =     8.38 Bohr mag/cell
[tb_dev] Currently allocated     2.33E+01 Mbytes, locked:    0 /  12
[tb_pin] Currently allocated     0.00E+00 Mbytes, locked:    0 /   0

     iteration # 38     ecut=    60.00 Ry     beta= 0.40
     Davidson diagonalization with overlap

---- Real-time Memory Report at c_bands before calling an iterative solver
          2367 MiB given to the printing process from OS
         -1960 MiB allocation reported by mallinfo(arena+hblkhd)
         38374 MiB available memory on the node where the printing process lives
     GPU memory used/free/total (MiB): 4446 / 11834 / 16280
------------------
     ethr =  1.79E-05,  avg # of iterations =  1.0

     negative rho (up, down):  9.112E-02 8.414E-02

     total cpu time spent up to now is      200.9 secs

     total energy              =    -540.72926558 Ry
     estimated scf accuracy    <       0.06132546 Ry

     total magnetization       =     8.35 Bohr mag/cell
     absolute magnetization    =     8.41 Bohr mag/cell
[tb_dev] Currently allocated     2.33E+01 Mbytes, locked:    0 /  12
[tb_pin] Currently allocated     0.00E+00 Mbytes, locked:    0 /   0

     iteration # 39     ecut=    60.00 Ry     beta= 0.40
     Davidson diagonalization with overlap

---- Real-time Memory Report at c_bands before calling an iterative solver
          2367 MiB given to the printing process from OS
         -1960 MiB allocation reported by mallinfo(arena+hblkhd)
         38374 MiB available memory on the node where the printing process lives
     GPU memory used/free/total (MiB): 4446 / 11834 / 16280
------------------
     ethr =  1.79E-05,  avg # of iterations =  1.0

     negative rho (up, down):  9.112E-02 8.414E-02

     total cpu time spent up to now is      205.4 secs

     total energy              =    -540.72917355 Ry
     estimated scf accuracy    <       0.06241353 Ry

     total magnetization       =     8.36 Bohr mag/cell
     absolute magnetization    =     8.41 Bohr mag/cell
[tb_dev] Currently allocated     2.33E+01 Mbytes, locked:    0 /  12
[tb_pin] Currently allocated     0.00E+00 Mbytes, locked:    0 /   0

     iteration # 40     ecut=    60.00 Ry     beta= 0.40
     Davidson diagonalization with overlap

---- Real-time Memory Report at c_bands before calling an iterative solver
          2367 MiB given to the printing process from OS
         -1960 MiB allocation reported by mallinfo(arena+hblkhd)
         38374 MiB available memory on the node where the printing process lives
     GPU memory used/free/total (MiB): 4446 / 11834 / 16280
------------------
     ethr =  1.79E-05,  avg # of iterations =  1.0

     negative rho (up, down):  9.112E-02 8.413E-02

     total cpu time spent up to now is      210.1 secs

     total energy              =    -540.72900594 Ry
     estimated scf accuracy    <       0.06348997 Ry

     total magnetization       =     8.36 Bohr mag/cell
     absolute magnetization    =     8.42 Bohr mag/cell
[tb_dev] Currently allocated     2.33E+01 Mbytes, locked:    0 /  12
[tb_pin] Currently allocated     0.00E+00 Mbytes, locked:    0 /   0

     iteration # 41     ecut=    60.00 Ry     beta= 0.40
     Davidson diagonalization with overlap

---- Real-time Memory Report at c_bands before calling an iterative solver
          2367 MiB given to the printing process from OS
         -1960 MiB allocation reported by mallinfo(arena+hblkhd)
         38374 MiB available memory on the node where the printing process lives
     GPU memory used/free/total (MiB): 4446 / 11834 / 16280
------------------
     ethr =  1.79E-05,  avg # of iterations =  1.0

     negative rho (up, down):  9.110E-02 8.415E-02

     total cpu time spent up to now is      214.7 secs

     total energy              =    -540.72831731 Ry
     estimated scf accuracy    <       0.06442373 Ry

     total magnetization       =     8.36 Bohr mag/cell
     absolute magnetization    =     8.42 Bohr mag/cell
[tb_dev] Currently allocated     2.33E+01 Mbytes, locked:    0 /  12
[tb_pin] Currently allocated     0.00E+00 Mbytes, locked:    0 /   0

     iteration # 42     ecut=    60.00 Ry     beta= 0.40
     Davidson diagonalization with overlap

---- Real-time Memory Report at c_bands before calling an iterative solver
          2367 MiB given to the printing process from OS
         -1960 MiB allocation reported by mallinfo(arena+hblkhd)
         38375 MiB available memory on the node where the printing process lives
     GPU memory used/free/total (MiB): 4446 / 11834 / 16280
------------------
     ethr =  1.79E-05,  avg # of iterations =  1.0

     negative rho (up, down):  9.110E-02 8.415E-02

     total cpu time spent up to now is      219.2 secs

     total energy              =    -540.72855201 Ry
     estimated scf accuracy    <       0.07156101 Ry

     total magnetization       =     8.37 Bohr mag/cell
     absolute magnetization    =     8.43 Bohr mag/cell
[tb_dev] Currently allocated     2.33E+01 Mbytes, locked:    0 /  12
[tb_pin] Currently allocated     0.00E+00 Mbytes, locked:    0 /   0

     iteration # 43     ecut=    60.00 Ry     beta= 0.40
     Davidson diagonalization with overlap

---- Real-time Memory Report at c_bands before calling an iterative solver
          2367 MiB given to the printing process from OS
         -1960 MiB allocation reported by mallinfo(arena+hblkhd)
         38375 MiB available memory on the node where the printing process lives
     GPU memory used/free/total (MiB): 4446 / 11834 / 16280
------------------
     ethr =  1.79E-05,  avg # of iterations =  1.0

     negative rho (up, down):  9.109E-02 8.415E-02

     total cpu time spent up to now is      223.7 secs

     total energy              =    -540.72839358 Ry
     estimated scf accuracy    <       0.06807912 Ry

     total magnetization       =     8.36 Bohr mag/cell
     absolute magnetization    =     8.42 Bohr mag/cell
[tb_dev] Currently allocated     2.33E+01 Mbytes, locked:    0 /  12
[tb_pin] Currently allocated     0.00E+00 Mbytes, locked:    0 /   0

     iteration # 44     ecut=    60.00 Ry     beta= 0.40
     Davidson diagonalization with overlap

---- Real-time Memory Report at c_bands before calling an iterative solver
          2367 MiB given to the printing process from OS
         -1960 MiB allocation reported by mallinfo(arena+hblkhd)
         38375 MiB available memory on the node where the printing process lives
     GPU memory used/free/total (MiB): 4446 / 11834 / 16280
------------------
     ethr =  1.79E-05,  avg # of iterations =  1.0

     negative rho (up, down):  9.105E-02 8.421E-02

     total cpu time spent up to now is      228.3 secs

     total energy              =    -540.73188076 Ry
     estimated scf accuracy    <       0.06852267 Ry

     total magnetization       =     8.35 Bohr mag/cell
     absolute magnetization    =     8.41 Bohr mag/cell
[tb_dev] Currently allocated     2.33E+01 Mbytes, locked:    0 /  12
[tb_pin] Currently allocated     0.00E+00 Mbytes, locked:    0 /   0

     iteration # 45     ecut=    60.00 Ry     beta= 0.40
     Davidson diagonalization with overlap

---- Real-time Memory Report at c_bands before calling an iterative solver
          2367 MiB given to the printing process from OS
         -1960 MiB allocation reported by mallinfo(arena+hblkhd)
         38375 MiB available memory on the node where the printing process lives
     GPU memory used/free/total (MiB): 4446 / 11834 / 16280
------------------
     ethr =  1.79E-05,  avg # of iterations =  1.3

     negative rho (up, down):  9.101E-02 8.428E-02

     total cpu time spent up to now is      232.9 secs

     total energy              =    -540.72914319 Ry
     estimated scf accuracy    <       0.03309010 Ry

     total magnetization       =     8.15 Bohr mag/cell
     absolute magnetization    =     8.20 Bohr mag/cell
[tb_dev] Currently allocated     2.33E+01 Mbytes, locked:    0 /  12
[tb_pin] Currently allocated     0.00E+00 Mbytes, locked:    0 /   0

     iteration # 46     ecut=    60.00 Ry     beta= 0.40
     Davidson diagonalization with overlap

---- Real-time Memory Report at c_bands before calling an iterative solver
          2367 MiB given to the printing process from OS
         -1960 MiB allocation reported by mallinfo(arena+hblkhd)
         38375 MiB available memory on the node where the printing process lives
     GPU memory used/free/total (MiB): 4446 / 11834 / 16280
------------------
     ethr =  1.79E-05,  avg # of iterations =  1.0

     negative rho (up, down):  9.075E-02 8.469E-02

     total cpu time spent up to now is      237.4 secs

     total energy              =    -540.72600855 Ry
     estimated scf accuracy    <       0.05731165 Ry

     total magnetization       =     8.27 Bohr mag/cell
     absolute magnetization    =     8.32 Bohr mag/cell
[tb_dev] Currently allocated     2.33E+01 Mbytes, locked:    0 /  12
[tb_pin] Currently allocated     0.00E+00 Mbytes, locked:    0 /   0

     iteration # 47     ecut=    60.00 Ry     beta= 0.40
     Davidson diagonalization with overlap

---- Real-time Memory Report at c_bands before calling an iterative solver
          2367 MiB given to the printing process from OS
         -1960 MiB allocation reported by mallinfo(arena+hblkhd)
         38376 MiB available memory on the node where the printing process lives
     GPU memory used/free/total (MiB): 4446 / 11834 / 16280
------------------
     ethr =  1.79E-05,  avg # of iterations =  1.0

     negative rho (up, down):  9.083E-02 8.455E-02

     total cpu time spent up to now is      242.0 secs

     total energy              =    -540.72862223 Ry
     estimated scf accuracy    <       0.01413749 Ry

     total magnetization       =     7.59 Bohr mag/cell
     absolute magnetization    =     7.64 Bohr mag/cell
[tb_dev] Currently allocated     2.33E+01 Mbytes, locked:    0 /  12
[tb_pin] Currently allocated     0.00E+00 Mbytes, locked:    0 /   0

     iteration # 48     ecut=    60.00 Ry     beta= 0.40
     Davidson diagonalization with overlap

---- Real-time Memory Report at c_bands before calling an iterative solver
          2367 MiB given to the printing process from OS
         -1960 MiB allocation reported by mallinfo(arena+hblkhd)
         38376 MiB available memory on the node where the printing process lives
     GPU memory used/free/total (MiB): 4446 / 11834 / 16280
------------------
     ethr =  1.79E-05,  avg # of iterations =  1.0

     negative rho (up, down):  9.093E-02 8.434E-02

     total cpu time spent up to now is      246.6 secs

     total energy              =    -540.73001416 Ry
     estimated scf accuracy    <       0.02029313 Ry

     total magnetization       =     7.82 Bohr mag/cell
     absolute magnetization    =     7.86 Bohr mag/cell
[tb_dev] Currently allocated     2.33E+01 Mbytes, locked:    0 /  12
[tb_pin] Currently allocated     0.00E+00 Mbytes, locked:    0 /   0

     iteration # 49     ecut=    60.00 Ry     beta= 0.40
     Davidson diagonalization with overlap

---- Real-time Memory Report at c_bands before calling an iterative solver
          2367 MiB given to the printing process from OS
         -1960 MiB allocation reported by mallinfo(arena+hblkhd)
         38377 MiB available memory on the node where the printing process lives
     GPU memory used/free/total (MiB): 4446 / 11834 / 16280
------------------
     ethr =  1.79E-05,  avg # of iterations =  1.5

     negative rho (up, down):  9.102E-02 8.433E-02

     total cpu time spent up to now is      251.4 secs

     total energy              =    -540.73070165 Ry
     estimated scf accuracy    <       0.02733440 Ry

     total magnetization       =     8.05 Bohr mag/cell
     absolute magnetization    =     8.10 Bohr mag/cell
[tb_dev] Currently allocated     2.33E+01 Mbytes, locked:    0 /  12
[tb_pin] Currently allocated     0.00E+00 Mbytes, locked:    0 /   0

     iteration # 50     ecut=    60.00 Ry     beta= 0.40
     Davidson diagonalization with overlap

---- Real-time Memory Report at c_bands before calling an iterative solver
          2367 MiB given to the printing process from OS
         -1960 MiB allocation reported by mallinfo(arena+hblkhd)
         38377 MiB available memory on the node where the printing process lives
     GPU memory used/free/total (MiB): 4446 / 11834 / 16280
------------------
     ethr =  1.79E-05,  avg # of iterations =  1.0

     negative rho (up, down):  9.082E-02 8.446E-02

     total cpu time spent up to now is      255.9 secs

     total energy              =    -540.72913043 Ry
     estimated scf accuracy    <       0.03749823 Ry

     total magnetization       =     8.21 Bohr mag/cell
     absolute magnetization    =     8.27 Bohr mag/cell
[tb_dev] Currently allocated     2.33E+01 Mbytes, locked:    0 /  12
[tb_pin] Currently allocated     0.00E+00 Mbytes, locked:    0 /   0

     iteration # 51     ecut=    60.00 Ry     beta= 0.40
     Davidson diagonalization with overlap

---- Real-time Memory Report at c_bands before calling an iterative solver
          2367 MiB given to the printing process from OS
         -1960 MiB allocation reported by mallinfo(arena+hblkhd)
         38377 MiB available memory on the node where the printing process lives
     GPU memory used/free/total (MiB): 4446 / 11834 / 16280
------------------
     ethr =  1.79E-05,  avg # of iterations =  1.0

     negative rho (up, down):  9.061E-02 8.471E-02

     total cpu time spent up to now is      260.5 secs

     total energy              =    -540.72934520 Ry
     estimated scf accuracy    <       0.02336516 Ry

     total magnetization       =     7.94 Bohr mag/cell
     absolute magnetization    =     7.99 Bohr mag/cell
[tb_dev] Currently allocated     2.33E+01 Mbytes, locked:    0 /  12
[tb_pin] Currently allocated     0.00E+00 Mbytes, locked:    0 /   0

     iteration # 52     ecut=    60.00 Ry     beta= 0.40
     Davidson diagonalization with overlap

---- Real-time Memory Report at c_bands before calling an iterative solver
          2367 MiB given to the printing process from OS
         -1960 MiB allocation reported by mallinfo(arena+hblkhd)
         38377 MiB available memory on the node where the printing process lives
     GPU memory used/free/total (MiB): 4446 / 11834 / 16280
------------------
     ethr =  1.79E-05,  avg # of iterations =  1.0

     negative rho (up, down):  9.116E-02 8.411E-02

     total cpu time spent up to now is      265.1 secs

     total energy              =    -540.73015914 Ry
     estimated scf accuracy    <       0.01195425 Ry

     total magnetization       =     7.61 Bohr mag/cell
     absolute magnetization    =     7.66 Bohr mag/cell
[tb_dev] Currently allocated     2.33E+01 Mbytes, locked:    0 /  12
[tb_pin] Currently allocated     0.00E+00 Mbytes, locked:    0 /   0

     iteration # 53     ecut=    60.00 Ry     beta= 0.40
     Davidson diagonalization with overlap

---- Real-time Memory Report at c_bands before calling an iterative solver
          2367 MiB given to the printing process from OS
         -1960 MiB allocation reported by mallinfo(arena+hblkhd)
         38378 MiB available memory on the node where the printing process lives
     GPU memory used/free/total (MiB): 4446 / 11834 / 16280
------------------
     ethr =  1.76E-05,  avg # of iterations =  1.0

     negative rho (up, down):  8.876E-02 8.659E-02

     total cpu time spent up to now is      269.7 secs

     total energy              =    -540.69642497 Ry
     estimated scf accuracy    <       0.03241117 Ry

     total magnetization       =     8.15 Bohr mag/cell
     absolute magnetization    =     8.21 Bohr mag/cell
[tb_dev] Currently allocated     2.33E+01 Mbytes, locked:    0 /  12
[tb_pin] Currently allocated     0.00E+00 Mbytes, locked:    0 /   0

     iteration # 54     ecut=    60.00 Ry     beta= 0.40
     Davidson diagonalization with overlap

---- Real-time Memory Report at c_bands before calling an iterative solver
          2367 MiB given to the printing process from OS
         -1960 MiB allocation reported by mallinfo(arena+hblkhd)
         38378 MiB available memory on the node where the printing process lives
     GPU memory used/free/total (MiB): 4446 / 11834 / 16280
------------------
     ethr =  1.76E-05,  avg # of iterations =  2.0

     negative rho (up, down):  8.917E-02 8.615E-02

     total cpu time spent up to now is      275.2 secs

     total energy              =    -540.72702207 Ry
     estimated scf accuracy    <       0.01089698 Ry

     total magnetization       =     6.30 Bohr mag/cell
     absolute magnetization    =     7.00 Bohr mag/cell
[tb_dev] Currently allocated     2.33E+01 Mbytes, locked:    0 /  12
[tb_pin] Currently allocated     0.00E+00 Mbytes, locked:    0 /   0

     iteration # 55     ecut=    60.00 Ry     beta= 0.40
     Davidson diagonalization with overlap

---- Real-time Memory Report at c_bands before calling an iterative solver
          2367 MiB given to the printing process from OS
         -1960 MiB allocation reported by mallinfo(arena+hblkhd)
         38379 MiB available memory on the node where the printing process lives
     GPU memory used/free/total (MiB): 4446 / 11834 / 16280
------------------
     ethr =  1.60E-05,  avg # of iterations =  1.0

     negative rho (up, down):  8.816E-02 8.717E-02

     total cpu time spent up to now is      279.8 secs

     total energy              =    -540.72301964 Ry
     estimated scf accuracy    <       0.01861154 Ry

     total magnetization       =     6.62 Bohr mag/cell
     absolute magnetization    =     7.18 Bohr mag/cell
[tb_dev] Currently allocated     2.33E+01 Mbytes, locked:    0 /  12
[tb_pin] Currently allocated     0.00E+00 Mbytes, locked:    0 /   0

     iteration # 56     ecut=    60.00 Ry     beta= 0.40
     Davidson diagonalization with overlap

---- Real-time Memory Report at c_bands before calling an iterative solver
          2367 MiB given to the printing process from OS
         -1960 MiB allocation reported by mallinfo(arena+hblkhd)
         38379 MiB available memory on the node where the printing process lives
     GPU memory used/free/total (MiB): 4446 / 11834 / 16280
------------------
     ethr =  1.60E-05,  avg # of iterations =  1.5

     negative rho (up, down):  9.109E-02 8.423E-02

     total cpu time spent up to now is      284.6 secs

     total energy              =    -540.68812159 Ry
     estimated scf accuracy    <       0.05690121 Ry

     total magnetization       =     6.52 Bohr mag/cell
     absolute magnetization    =     7.30 Bohr mag/cell
[tb_dev] Currently allocated     2.33E+01 Mbytes, locked:    0 /  12
[tb_pin] Currently allocated     0.00E+00 Mbytes, locked:    0 /   0

     iteration # 57     ecut=    60.00 Ry     beta= 0.40
     Davidson diagonalization with overlap

---- Real-time Memory Report at c_bands before calling an iterative solver
          2367 MiB given to the printing process from OS
         -1960 MiB allocation reported by mallinfo(arena+hblkhd)
         38379 MiB available memory on the node where the printing process lives
     GPU memory used/free/total (MiB): 4446 / 11834 / 16280
------------------
     ethr =  1.60E-05,  avg # of iterations =  2.6

     negative rho (up, down):  9.085E-02 8.443E-02

     total cpu time spent up to now is      290.6 secs

     total energy              =    -540.72278883 Ry
     estimated scf accuracy    <       0.04247842 Ry

     total magnetization       =     6.91 Bohr mag/cell
     absolute magnetization    =     6.96 Bohr mag/cell
[tb_dev] Currently allocated     2.33E+01 Mbytes, locked:    0 /  12
[tb_pin] Currently allocated     0.00E+00 Mbytes, locked:    0 /   0

     iteration # 58     ecut=    60.00 Ry     beta= 0.40
     Davidson diagonalization with overlap

---- Real-time Memory Report at c_bands before calling an iterative solver
          2368 MiB given to the printing process from OS
         -1960 MiB allocation reported by mallinfo(arena+hblkhd)
         38379 MiB available memory on the node where the printing process lives
     GPU memory used/free/total (MiB): 4446 / 11834 / 16280
------------------
     ethr =  1.60E-05,  avg # of iterations =  1.5

     negative rho (up, down):  9.118E-02 8.410E-02

     total cpu time spent up to now is      295.4 secs

     total energy              =    -540.72530862 Ry
     estimated scf accuracy    <       0.04362847 Ry

     total magnetization       =     8.07 Bohr mag/cell
     absolute magnetization    =     8.12 Bohr mag/cell
[tb_dev] Currently allocated     2.33E+01 Mbytes, locked:    0 /  12
[tb_pin] Currently allocated     0.00E+00 Mbytes, locked:    0 /   0

     iteration # 59     ecut=    60.00 Ry     beta= 0.40
     Davidson diagonalization with overlap

---- Real-time Memory Report at c_bands before calling an iterative solver
          2368 MiB given to the printing process from OS
         -1960 MiB allocation reported by mallinfo(arena+hblkhd)
         38378 MiB available memory on the node where the printing process lives
     GPU memory used/free/total (MiB): 4446 / 11834 / 16280
------------------
     ethr =  1.60E-05,  avg # of iterations =  1.0

     negative rho (up, down):  9.125E-02 8.402E-02

     total cpu time spent up to now is      300.0 secs

     total energy              =    -540.72553294 Ry
     estimated scf accuracy    <       0.06947670 Ry

     total magnetization       =     8.33 Bohr mag/cell
     absolute magnetization    =     8.39 Bohr mag/cell
[tb_dev] Currently allocated     2.33E+01 Mbytes, locked:    0 /  12
[tb_pin] Currently allocated     0.00E+00 Mbytes, locked:    0 /   0

     iteration # 60     ecut=    60.00 Ry     beta= 0.40
     Davidson diagonalization with overlap

---- Real-time Memory Report at c_bands before calling an iterative solver
          2368 MiB given to the printing process from OS
         -1960 MiB allocation reported by mallinfo(arena+hblkhd)
         38379 MiB available memory on the node where the printing process lives
     GPU memory used/free/total (MiB): 4446 / 11834 / 16280
------------------
     ethr =  1.60E-05,  avg # of iterations =  1.0

     negative rho (up, down):  9.127E-02 8.400E-02

     total cpu time spent up to now is      304.6 secs

     total energy              =    -540.72552996 Ry
     estimated scf accuracy    <       0.07418097 Ry

     total magnetization       =     8.37 Bohr mag/cell
     absolute magnetization    =     8.43 Bohr mag/cell
[tb_dev] Currently allocated     2.33E+01 Mbytes, locked:    0 /  12
[tb_pin] Currently allocated     0.00E+00 Mbytes, locked:    0 /   0

     iteration # 61     ecut=    60.00 Ry     beta= 0.40
     Davidson diagonalization with overlap

---- Real-time Memory Report at c_bands before calling an iterative solver
          2368 MiB given to the printing process from OS
         -1960 MiB allocation reported by mallinfo(arena+hblkhd)
         38380 MiB available memory on the node where the printing process lives
     GPU memory used/free/total (MiB): 4446 / 11834 / 16280
------------------
     ethr =  1.60E-05,  avg # of iterations =  1.0

     negative rho (up, down):  9.059E-02 8.470E-02

     total cpu time spent up to now is      309.2 secs

     total energy              =    -540.72432749 Ry
     estimated scf accuracy    <       0.07409980 Ry

     total magnetization       =     8.37 Bohr mag/cell
     absolute magnetization    =     8.43 Bohr mag/cell
[tb_dev] Currently allocated     2.33E+01 Mbytes, locked:    0 /  12
[tb_pin] Currently allocated     0.00E+00 Mbytes, locked:    0 /   0

     iteration # 62     ecut=    60.00 Ry     beta= 0.40
     Davidson diagonalization with overlap

---- Real-time Memory Report at c_bands before calling an iterative solver
          2368 MiB given to the printing process from OS
         -1960 MiB allocation reported by mallinfo(arena+hblkhd)
         38380 MiB available memory on the node where the printing process lives
     GPU memory used/free/total (MiB): 4446 / 11834 / 16280
------------------
     ethr =  1.60E-05,  avg # of iterations =  1.5

     negative rho (up, down):  9.039E-02 8.488E-02

     total cpu time spent up to now is      313.9 secs

     total energy              =    -540.72482888 Ry
     estimated scf accuracy    <       0.02558372 Ry

     total magnetization       =     7.78 Bohr mag/cell
     absolute magnetization    =     7.83 Bohr mag/cell
[tb_dev] Currently allocated     2.33E+01 Mbytes, locked:    0 /  12
[tb_pin] Currently allocated     0.00E+00 Mbytes, locked:    0 /   0

     iteration # 63     ecut=    60.00 Ry     beta= 0.40
     Davidson diagonalization with overlap

---- Real-time Memory Report at c_bands before calling an iterative solver
          2368 MiB given to the printing process from OS
         -1960 MiB allocation reported by mallinfo(arena+hblkhd)
         38380 MiB available memory on the node where the printing process lives
     GPU memory used/free/total (MiB): 4446 / 11834 / 16280
------------------
     ethr =  1.60E-05,  avg # of iterations =  1.5

     negative rho (up, down):  9.006E-02 8.519E-02

     total cpu time spent up to now is      318.7 secs

[...]
------------------
     ethr =  1.66E-06,  avg # of iterations =  1.5

     negative rho (up, down):  8.938E-02 8.593E-02

     total cpu time spent up to now is      328.0 secs

     total energy              =    -540.72558624 Ry
     estimated scf accuracy    <       0.00017427 Ry

     total magnetization       =     6.85 Bohr mag/cell
     absolute magnetization    =     6.96 Bohr mag/cell
[tb_dev] Currently allocated     2.33E+01 Mbytes, locked:    0 /  12
[tb_pin] Currently allocated     0.00E+00 Mbytes, locked:    0 /   0

     iteration # 66     ecut=    60.00 Ry     beta= 0.40
     Davidson diagonalization with overlap

---- Real-time Memory Report at c_bands before calling an iterative solver
          2368 MiB given to the printing process from OS
         -1960 MiB allocation reported by mallinfo(arena+hblkhd)
         38379 MiB available memory on the node where the printing process lives
     GPU memory used/free/total (MiB): 4446 / 11834 / 16280
------------------
     ethr =  2.56E-07,  avg # of iterations =  3.7

     negative rho (up, down):  8.944E-02 8.586E-02

     total cpu time spent up to now is      334.3 secs

     total energy              =    -540.72651980 Ry
     estimated scf accuracy    <       0.00401488 Ry

     total magnetization       =     6.67 Bohr mag/cell
     absolute magnetization    =     7.03 Bohr mag/cell
[tb_dev] Currently allocated     2.33E+01 Mbytes, locked:    0 /  12
[tb_pin] Currently allocated     0.00E+00 Mbytes, locked:    0 /   0

     iteration # 67     ecut=    60.00 Ry     beta= 0.40
     Davidson diagonalization with overlap

---- Real-time Memory Report at c_bands before calling an iterative solver
          2368 MiB given to the printing process from OS
         -1960 MiB allocation reported by mallinfo(arena+hblkhd)
         38379 MiB available memory on the node where the printing process lives
     GPU memory used/free/total (MiB): 4446 / 11834 / 16280
------------------
     ethr =  2.56E-07,  avg # of iterations =  1.5

     negative rho (up, down):  8.946E-02 8.583E-02

     total cpu time spent up to now is      339.1 secs

     total energy              =    -540.72653053 Ry
     estimated scf accuracy    <       0.00072836 Ry

     total magnetization       =     6.63 Bohr mag/cell
     absolute magnetization    =     6.95 Bohr mag/cell
[tb_dev] Currently allocated     2.33E+01 Mbytes, locked:    0 /  12
[tb_pin] Currently allocated     0.00E+00 Mbytes, locked:    0 /   0

     iteration # 68     ecut=    60.00 Ry     beta= 0.40
     Davidson diagonalization with overlap

---- Real-time Memory Report at c_bands before calling an iterative solver
          2368 MiB given to the printing process from OS
         -1960 MiB allocation reported by mallinfo(arena+hblkhd)
         38364 MiB available memory on the node where the printing process lives
     GPU memory used/free/total (MiB): 4446 / 11834 / 16280
------------------
     ethr =  2.56E-07,  avg # of iterations =  1.0

     negative rho (up, down):  8.946E-02 8.584E-02

     total cpu time spent up to now is      343.6 secs

     total energy              =    -540.72657853 Ry
     estimated scf accuracy    <       0.00044360 Ry

     total magnetization       =     6.63 Bohr mag/cell
     absolute magnetization    =     6.94 Bohr mag/cell
[tb_dev] Currently allocated     2.33E+01 Mbytes, locked:    0 /  12
[tb_pin] Currently allocated     0.00E+00 Mbytes, locked:    0 /   0

     iteration # 69     ecut=    60.00 Ry     beta= 0.40
     Davidson diagonalization with overlap

---- Real-time Memory Report at c_bands before calling an iterative solver
          2368 MiB given to the printing process from OS
         -1960 MiB allocation reported by mallinfo(arena+hblkhd)
         38369 MiB available memory on the node where the printing process lives
     GPU memory used/free/total (MiB): 4446 / 11834 / 16280
------------------
     ethr =  2.56E-07,  avg # of iterations =  1.0

     negative rho (up, down):  8.954E-02 8.576E-02

     total cpu time spent up to now is      348.1 secs

     total energy              =    -540.72646012 Ry
     estimated scf accuracy    <       0.00097962 Ry

     total magnetization       =     6.63 Bohr mag/cell
     absolute magnetization    =     6.95 Bohr mag/cell
[tb_dev] Currently allocated     2.33E+01 Mbytes, locked:    0 /  12
[tb_pin] Currently allocated     0.00E+00 Mbytes, locked:    0 /   0

     iteration # 70     ecut=    60.00 Ry     beta= 0.40
     Davidson diagonalization with overlap

---- Real-time Memory Report at c_bands before calling an iterative solver
          2368 MiB given to the printing process from OS
         -1960 MiB allocation reported by mallinfo(arena+hblkhd)
         38373 MiB available memory on the node where the printing process lives
     GPU memory used/free/total (MiB): 4446 / 11834 / 16280
------------------
     ethr =  2.56E-07,  avg # of iterations =  1.5

     negative rho (up, down):  8.970E-02 8.559E-02

     total cpu time spent up to now is      352.9 secs

     total energy              =    -540.72577574 Ry
     estimated scf accuracy    <       0.00071408 Ry

     total magnetization       =     6.68 Bohr mag/cell
     absolute magnetization    =     6.96 Bohr mag/cell
[tb_dev] Currently allocated     2.33E+01 Mbytes, locked:    0 /  12
[tb_pin] Currently allocated     0.00E+00 Mbytes, locked:    0 /   0

     iteration # 71     ecut=    60.00 Ry     beta= 0.40
     Davidson diagonalization with overlap

---- Real-time Memory Report at c_bands before calling an iterative solver
          2368 MiB given to the printing process from OS
         -1960 MiB allocation reported by mallinfo(arena+hblkhd)
         38375 MiB available memory on the node where the printing process lives
     GPU memory used/free/total (MiB): 4446 / 11834 / 16280
------------------
     ethr =  2.56E-07,  avg # of iterations =  2.3

     negative rho (up, down):  8.948E-02 8.580E-02

     total cpu time spent up to now is      358.4 secs

     total energy              =    -540.72621102 Ry
     estimated scf accuracy    <       0.00299041 Ry

     total magnetization       =     6.67 Bohr mag/cell
     absolute magnetization    =     6.81 Bohr mag/cell
[tb_dev] Currently allocated     2.33E+01 Mbytes, locked:    0 /  12
[tb_pin] Currently allocated     0.00E+00 Mbytes, locked:    0 /   0

     iteration # 72     ecut=    60.00 Ry     beta= 0.40
     Davidson diagonalization with overlap

---- Real-time Memory Report at c_bands before calling an iterative solver
          2368 MiB given to the printing process from OS
         -1960 MiB allocation reported by mallinfo(arena+hblkhd)
         38378 MiB available memory on the node where the printing process lives
     GPU memory used/free/total (MiB): 4446 / 11834 / 16280
------------------
     ethr =  2.56E-07,  avg # of iterations =  2.0

     negative rho (up, down):  8.985E-02 8.542E-02

     total cpu time spent up to now is      363.5 secs

     total energy              =    -540.72574984 Ry
     estimated scf accuracy    <       0.00027267 Ry

     total magnetization       =     6.64 Bohr mag/cell
     absolute magnetization    =     6.88 Bohr mag/cell
[tb_dev] Currently allocated     2.33E+01 Mbytes, locked:    0 /  12
[tb_pin] Currently allocated     0.00E+00 Mbytes, locked:    0 /   0

     iteration # 73     ecut=    60.00 Ry     beta= 0.40
     Davidson diagonalization with overlap

---- Real-time Memory Report at c_bands before calling an iterative solver
          2368 MiB given to the printing process from OS
         -1960 MiB allocation reported by mallinfo(arena+hblkhd)
         38378 MiB available memory on the node where the printing process lives
     GPU memory used/free/total (MiB): 4446 / 11834 / 16280
------------------
     ethr =  2.56E-07,  avg # of iterations =  2.0

     negative rho (up, down):  8.974E-02 8.556E-02

     total cpu time spent up to now is      368.9 secs

     total energy              =    -540.72611458 Ry
     estimated scf accuracy    <       0.00038199 Ry

     total magnetization       =     6.88 Bohr mag/cell
     absolute magnetization    =     6.97 Bohr mag/cell
[tb_dev] Currently allocated     2.33E+01 Mbytes, locked:    0 /  12
[tb_pin] Currently allocated     0.00E+00 Mbytes, locked:    0 /   0

     iteration # 74     ecut=    60.00 Ry     beta= 0.40
     Davidson diagonalization with overlap

---- Real-time Memory Report at c_bands before calling an iterative solver
          2368 MiB given to the printing process from OS
         -1960 MiB allocation reported by mallinfo(arena+hblkhd)
         38378 MiB available memory on the node where the printing process lives
     GPU memory used/free/total (MiB): 4446 / 11834 / 16280
------------------
     ethr =  2.56E-07,  avg # of iterations =  1.5

     negative rho (up, down):  8.957E-02 8.572E-02

     total cpu time spent up to now is      373.7 secs

     total energy              =    -540.72620176 Ry
     estimated scf accuracy    <       0.00393254 Ry

     total magnetization       =     6.67 Bohr mag/cell
     absolute magnetization    =     6.79 Bohr mag/cell
[tb_dev] Currently allocated     2.33E+01 Mbytes, locked:    0 /  12
[tb_pin] Currently allocated     0.00E+00 Mbytes, locked:    0 /   0

     iteration # 75     ecut=    60.00 Ry     beta= 0.40
     Davidson diagonalization with overlap

---- Real-time Memory Report at c_bands before calling an iterative solver
          2368 MiB given to the printing process from OS
         -1960 MiB allocation reported by mallinfo(arena+hblkhd)
         38378 MiB available memory on the node where the printing process lives
     GPU memory used/free/total (MiB): 4446 / 11834 / 16280
------------------
     ethr =  2.56E-07,  avg # of iterations =  2.0

     negative rho (up, down):  8.964E-02 8.566E-02

     total cpu time spent up to now is      378.8 secs

     total energy              =    -540.72620020 Ry
     estimated scf accuracy    <       0.00195670 Ry

     total magnetization       =     6.57 Bohr mag/cell
     absolute magnetization    =     6.81 Bohr mag/cell
[tb_dev] Currently allocated     2.33E+01 Mbytes, locked:    0 /  12
[tb_pin] Currently allocated     0.00E+00 Mbytes, locked:    0 /   0

     iteration # 76     ecut=    60.00 Ry     beta= 0.40
     Davidson diagonalization with overlap

---- Real-time Memory Report at c_bands before calling an iterative solver
          2368 MiB given to the printing process from OS
         -1960 MiB allocation reported by mallinfo(arena+hblkhd)
         38379 MiB available memory on the node where the printing process lives
     GPU memory used/free/total (MiB): 4446 / 11834 / 16280
------------------
     ethr =  2.56E-07,  avg # of iterations =  2.0

     negative rho (up, down):  8.989E-02 8.540E-02

     total cpu time spent up to now is      383.8 secs

     total energy              =    -540.72588828 Ry
     estimated scf accuracy    <       0.00400152 Ry

     total magnetization       =     6.62 Bohr mag/cell
     absolute magnetization    =     6.78 Bohr mag/cell
[tb_dev] Currently allocated     2.33E+01 Mbytes, locked:    0 /  12
[tb_pin] Currently allocated     0.00E+00 Mbytes, locked:    0 /   0

     iteration # 77     ecut=    60.00 Ry     beta= 0.40
     Davidson diagonalization with overlap

---- Real-time Memory Report at c_bands before calling an iterative solver
          2368 MiB given to the printing process from OS
         -1960 MiB allocation reported by mallinfo(arena+hblkhd)
         38379 MiB available memory on the node where the printing process lives
     GPU memory used/free/total (MiB): 4446 / 11834 / 16280
------------------
     ethr =  2.56E-07,  avg # of iterations =  2.0

     negative rho (up, down):  9.066E-02 8.461E-02

     total cpu time spent up to now is      388.9 secs

     total energy              =    -540.72397988 Ry
     estimated scf accuracy    <       0.00216125 Ry

     total magnetization       =     6.81 Bohr mag/cell
     absolute magnetization    =     6.89 Bohr mag/cell
[tb_dev] Currently allocated     2.33E+01 Mbytes, locked:    0 /  12
[tb_pin] Currently allocated     0.00E+00 Mbytes, locked:    0 /   0

     iteration # 78     ecut=    60.00 Ry     beta= 0.40
     Davidson diagonalization with overlap

---- Real-time Memory Report at c_bands before calling an iterative solver
          2368 MiB given to the printing process from OS
         -1960 MiB allocation reported by mallinfo(arena+hblkhd)
         38379 MiB available memory on the node where the printing process lives
     GPU memory used/free/total (MiB): 4446 / 11834 / 16280
------------------
     ethr =  2.56E-07,  avg # of iterations =  3.8

     negative rho (up, down):  9.142E-02 8.383E-02

     total cpu time spent up to now is      395.3 secs

     total energy              =    -540.72297422 Ry
     estimated scf accuracy    <       0.00138524 Ry

     total magnetization       =     7.40 Bohr mag/cell
     absolute magnetization    =     7.45 Bohr mag/cell
[tb_dev] Currently allocated     2.33E+01 Mbytes, locked:    0 /  12
[tb_pin] Currently allocated     0.00E+00 Mbytes, locked:    0 /   0

     iteration # 79     ecut=    60.00 Ry     beta= 0.40
     Davidson diagonalization with overlap

---- Real-time Memory Report at c_bands before calling an iterative solver
          2368 MiB given to the printing process from OS
         -1960 MiB allocation reported by mallinfo(arena+hblkhd)
         38378 MiB available memory on the node where the printing process lives
     GPU memory used/free/total (MiB): 4446 / 11834 / 16280
------------------
     ethr =  2.56E-07,  avg # of iterations =  3.0

     negative rho (up, down):  9.008E-02 8.520E-02

     total cpu time spent up to now is      401.5 secs

     total energy              =    -540.72114425 Ry
     estimated scf accuracy    <       0.00851791 Ry

     total magnetization       =     7.78 Bohr mag/cell
     absolute magnetization    =     7.85 Bohr mag/cell
[tb_dev] Currently allocated     2.33E+01 Mbytes, locked:    0 /  12
[tb_pin] Currently allocated     0.00E+00 Mbytes, locked:    0 /   0

     iteration # 80     ecut=    60.00 Ry     beta= 0.40
     Davidson diagonalization with overlap

---- Real-time Memory Report at c_bands before calling an iterative solver
          2368 MiB given to the printing process from OS
         -1960 MiB allocation reported by mallinfo(arena+hblkhd)
         38378 MiB available memory on the node where the printing process lives
     GPU memory used/free/total (MiB): 4446 / 11834 / 16280
------------------
     ethr =  2.56E-07,  avg # of iterations =  3.3

     negative rho (up, down):  8.995E-02 8.534E-02

     total cpu time spent up to now is      408.0 secs

     total energy              =    -540.72602029 Ry
     estimated scf accuracy    <       0.00008495 Ry

     total magnetization       =     6.98 Bohr mag/cell
     absolute magnetization    =     7.04 Bohr mag/cell

     End of self-consistent calculation

     convergence NOT achieved after  80 iterations: stopping

     Writing config to output data dir ./out/aiida.save/
 
     init_run     :     15.53s CPU      6.48s WALL (       1 calls)
     electrons    :    730.21s CPU    401.04s WALL (       1 calls)

     Called by init_run:
     wfcinit      :      2.93s CPU      3.86s WALL (       1 calls)
                                        3.86s GPU  (       1 calls)
     wfcinit:atom :      0.02s CPU      0.10s WALL (      62 calls)
                                        0.10s GPU  (      62 calls)
     wfcinit:wfcr :      1.58s CPU      2.06s WALL (      62 calls)
                                        2.06s GPU  (      62 calls)
     potinit      :      2.71s CPU      0.25s WALL (       1 calls)
     hinit0       :      7.32s CPU      1.46s WALL (       1 calls)

     Called by electrons:
     c_bands      :    326.96s CPU    290.96s WALL (      80 calls)
     sum_band     :     76.72s CPU     79.47s WALL (      80 calls)
     v_of_rho     :     82.86s CPU      7.48s WALL (      81 calls)
     v_h          :     12.36s CPU      1.09s WALL (      81 calls)
     v_xc         :     70.49s CPU      6.39s WALL (      81 calls)
     newd         :    104.52s CPU      9.78s WALL (      81 calls)
                                        9.78s GPU  (      81 calls)
     mix_rho      :    103.75s CPU      9.97s WALL (      80 calls)

     Called by c_bands:
     init_us_2    :     12.05s CPU     14.74s WALL (    9982 calls)
     init_us_2:gp :     11.83s CPU     14.55s WALL (    9982 calls)
     cegterg      :    250.36s CPU    228.69s WALL (    4960 calls)

     Called by sum_band:
     sum_band:wei :      0.20s CPU      0.21s WALL (      80 calls)
                                        0.20s GPU  (      80 calls)
     sum_band:loo :     63.25s CPU     65.85s WALL (      80 calls)
                                       65.85s GPU  (      80 calls)
     sum_band:buf :     22.60s CPU     23.06s WALL (    4960 calls)
                                       23.03s GPU  (    4960 calls)
     sum_band:ini :      5.12s CPU      5.80s WALL (    4960 calls)
                                        5.77s GPU  (    4960 calls)
     sum_band:cal :      0.18s CPU      3.13s WALL (    4960 calls)
                                        1.83s GPU  (    4960 calls)
     sum_band:bec :      1.33s CPU      1.42s WALL (    4960 calls)
                                        1.38s GPU  (    4960 calls)
     addusdens    :      8.30s CPU      8.42s WALL (      80 calls)
                                        8.42s GPU  (      80 calls)
     addusd:skk   :      0.05s CPU      0.05s WALL (     240 calls)
                                        0.05s GPU  (     240 calls)

     Called by *egterg:
     cdiaghg      :     41.15s CPU     45.63s WALL (   14608 calls)
                                       45.53s GPU  (   14608 calls)
     cegterg:over :      5.36s CPU      5.56s WALL (    9648 calls)
     cegterg:upda :      6.09s CPU      5.81s WALL (    9648 calls)
     cegterg:last :      3.55s CPU      3.63s WALL (    7128 calls)
     h_psi        :    178.90s CPU    154.34s WALL (   14670 calls)
                                      153.94s GPU  (   14670 calls)
     s_psi        :      2.50s CPU      6.17s WALL (   14670 calls)
                                        5.46s GPU  (   14670 calls)
     g_psi        :      0.08s CPU      0.78s WALL (    9648 calls)
                                        0.72s GPU  (    9648 calls)

     Called by h_psi:
     h_psi:calbec :      0.59s CPU      4.95s WALL (   14670 calls)
                                        4.85s GPU  (   14670 calls)
     vloc_psi     :    160.11s CPU    140.33s WALL (   14670 calls)
                                      140.23s GPU  (   14670 calls)
     add_vuspsi   :      3.40s CPU      6.82s WALL (   14670 calls)
                                        6.73s GPU  (   14670 calls)

     General routines
     calbec       :      0.57s CPU      0.56s WALL (   19630 calls)
     fft          :      4.45s CPU      1.01s WALL (    2023 calls)
                                        0.77s GPU  (    1861 calls)
     ffts         :      0.23s CPU      0.12s WALL (     322 calls)
                                        0.03s GPU  (     160 calls)
     fftw         :      2.17s CPU    120.00s WALL (   85902 calls)
                                      119.26s GPU  (   85902 calls)
     interpolate  :     13.63s CPU      1.21s WALL (     162 calls)
     davcio       :      0.07s CPU      0.69s WALL (      80 calls)
 
     Parallel routines
 
     PWSCF        :  12m28.41s CPU   6m49.08s WALL

 
   This run was terminated on:  17:37: 6  22Oct2023            

=------------------------------------------------------------------------------=
   JOB DONE.
=------------------------------------------------------------------------------=
