
     Program PWSCF v.7.2 starts on 22Oct2023 at 18:23:10 

     This program is part of the open-source Quantum ESPRESSO suite
     for quantum simulation of materials; please cite
         "P. Giannozzi et al., J. Phys.:Condens. Matter 21 395502 (2009);
         "P. Giannozzi et al., J. Phys.:Condens. Matter 29 465901 (2017);
         "P. Giannozzi et al., J. Chem. Phys. 152 154105 (2020);
          URL http://www.quantum-espresso.org", 
     in publications or presentations arising from this work. More details at
     http://www.quantum-espresso.org/quote

     Parallel version (MPI & OpenMP), running on      12 processor cores
     Number of MPI processes:                 1
     Threads/MPI process:                    12

     MPI processes distributed on     1 nodes
     59783 MiB available memory on the printing compute node when the environment starts
 
     Reading input from aiida.in

     Current dimensions of program PWSCF are:
     Max number of different atomic species (ntypx) = 10
     Max number of k-points (npk) =  40000
     Max angular momentum in pseudopotentials (lmaxx) =  4
     file Fe.pbesol-spn-kjpaw_psl.0.2.1.UPF: wavefunction(s)  3D renormalized
     Message from routine setup:
     using ibrav=0 with symmetry is DISCOURAGED, use correct ibrav instead
 
     Subspace diagonalization in iterative solution of the eigenvalue problem:
     a serial algorithm will be used

 
     G-vector sticks info
     --------------------
     sticks:   dense  smooth     PW     G-vecs:    dense   smooth      PW
     Sum       13873    4639   1261              1077177   207247   29603
 
     Using Slab Decomposition
 


     bravais-lattice index     =            0
     lattice parameter (alat)  =      13.6457  a.u.
     unit-cell volume          =    1796.6729 (a.u.)^3
     number of atoms/cell      =            9
     number of atomic types    =            3
     number of electrons       =        60.00
     number of Kohn-Sham states=           36
     kinetic-energy cutoff     =      90.0000  Ry
     charge density cutoff     =    1080.0000  Ry
     scf convergence threshold =      1.8E-09
     mixing beta               =       0.4000
     number of iterations used =            8  plain     mixing
     Exchange-correlation= PBESOL
                           (   1   4  10   8   0   0   0)

     GPU acceleration is ACTIVE.


     GPU used by master process:

        Device Number: 0
        Device name: Tesla P100-PCIE-16GB
        Compute capability : 60
        Ratio of single to double precision performance  : 2
        Memory Clock Rate (KHz): 715000
        Memory Bus Width (bits): 4096
        Peak Memory Bandwidth (GB/s): 732.16

     celldm(1)=  13.645664  celldm(2)=   0.000000  celldm(3)=   0.000000
     celldm(4)=   0.000000  celldm(5)=   0.000000  celldm(6)=   0.000000

     crystal axes: (cart. coord. in units of alat)
               a(1) = (   0.000000   0.707107   0.707107 )  
               a(2) = (   0.707107   0.000000   0.707107 )  
               a(3) = (   0.707107   0.707107   0.000000 )  

     reciprocal axes: (cart. coord. in units 2 pi/alat)
               b(1) = ( -0.707107  0.707107  0.707107 )  
               b(2) = (  0.707107 -0.707107  0.707107 )  
               b(3) = (  0.707107  0.707107 -0.707107 )  


     PseudoPot. # 1 for Cl read from file:
     ./pseudo/cl_pbesol_v1.4.uspp.F.UPF
     MD5 check sum: ed6bbcf06f19043c0df9f6394706ff8f
     Pseudo is Ultrasoft + core correction, Zval =  7.0
     Generated by new atomic code, or converted to UPF format
     Using radial grid of  909 points,  6 beta functions with: 
                l(1) =   0
                l(2) =   0
                l(3) =   1
                l(4) =   1
                l(5) =   2
                l(6) =   2
     Q(r) pseudized with  8 coefficients,  rinner =    1.300   1.300   1.300
                                                       1.300   1.300

     PseudoPot. # 2 for Fe read from file:
     ./pseudo/Fe.pbesol-spn-kjpaw_psl.0.2.1.UPF
     MD5 check sum: 4d7ec5aa2156491519a4322664fbbf52
     Pseudo is Projector augmented-wave + core cor, Zval = 16.0
     Generated using "atomic" code by A. Dal Corso  v.6.0 svn rev. 13079
     Shape of augmentation charge: PSQ
     Using radial grid of 1191 points,  6 beta functions with: 
                l(1) =   0
                l(2) =   0
                l(3) =   1
                l(4) =   1
                l(5) =   2
                l(6) =   2
     Q(r) pseudized with 0 coefficients 


     PseudoPot. # 3 for N  read from file:
     ./pseudo/N.pbesol-theos.UPF
     MD5 check sum: 1b64827339d390a5a22afef3ff345c9d
     Pseudo is Ultrasoft + core correction, Zval =  5.0
     Generated using "atomic" code by A. Dal Corso  v.5.1
     Using radial grid of 1085 points,  4 beta functions with: 
                l(1) =   0
                l(2) =   0
                l(3) =   1
                l(4) =   1
     Q(r) pseudized with 0 coefficients 


     atomic species   valence    mass     pseudopotential
        Cl             7.00    35.45300     Cl( 1.00)
        Fe            16.00    55.84500     Fe( 1.00)
        N              5.00    14.00670     N ( 1.00)

     Starting magnetic structure 
     atomic species   magnetization
        Cl           0.100
        Fe           0.313
        N            0.100

     48 Sym. Ops., with inversion, found


                                    s                        frac. trans.

      isym =  1     identity                                     

 cryst.   s( 1) = (     1          0          0      )
                  (     0          1          0      )
                  (     0          0          1      )

 cart.    s( 1) = (  1.0000000 -0.0000000  0.0000000 )
                  ( -0.0000000  1.0000000  0.0000000 )
                  ( -0.0000000  0.0000000  1.0000000 )


      isym =  2     180 deg rotation - cart. axis [0,0,1]        

 cryst.   s( 2) = (     0          1         -1      )
                  (     1          0         -1      )
                  (     0          0         -1      )

 cart.    s( 2) = ( -1.0000000  0.0000000  0.0000000 )
                  (  0.0000000 -1.0000000  0.0000000 )
                  (  0.0000000 -0.0000000  1.0000000 )


      isym =  3     180 deg rotation - cart. axis [0,1,0]        

 cryst.   s( 3) = (     0         -1          1      )
                  (     0         -1          0      )
                  (     1         -1          0      )

 cart.    s( 3) = ( -1.0000000 -0.0000000 -0.0000000 )
                  (  0.0000000  1.0000000 -0.0000000 )
                  (  0.0000000  0.0000000 -1.0000000 )


      isym =  4     180 deg rotation - cart. axis [1,0,0]        

 cryst.   s( 4) = (    -1          0          0      )
                  (    -1          0          1      )
                  (    -1          1          0      )

 cart.    s( 4) = (  1.0000000  0.0000000 -0.0000000 )
                  ( -0.0000000 -1.0000000 -0.0000000 )
                  ( -0.0000000 -0.0000000 -1.0000000 )


      isym =  5     180 deg rotation - cart. axis [1,1,0]        

 cryst.   s( 5) = (    -1          0          1      )
                  (     0         -1          1      )
                  (     0          0          1      )

 cart.    s( 5) = ( -0.0000000  1.0000000 -0.0000000 )
                  (  1.0000000 -0.0000000 -0.0000000 )
                  (  0.0000000 -0.0000000 -1.0000000 )


      isym =  6     180 deg rotation - cart. axis [1,-1,0]       

 cryst.   s( 6) = (     0         -1          0      )
                  (    -1          0          0      )
                  (     0          0         -1      )

 cart.    s( 6) = (  0.0000000 -1.0000000 -0.0000000 )
                  ( -1.0000000  0.0000000 -0.0000000 )
                  ( -0.0000000  0.0000000 -1.0000000 )


      isym =  7      90 deg rotation - cart. axis [0,0,-1]       

 cryst.   s( 7) = (     0          1          0      )
                  (     0          1         -1      )
                  (    -1          1          0      )

 cart.    s( 7) = (  0.0000000  1.0000000  0.0000000 )
                  ( -1.0000000 -0.0000000  0.0000000 )
                  ( -0.0000000 -0.0000000  1.0000000 )


      isym =  8      90 deg rotation - cart. axis [0,0,1]        

 cryst.   s( 8) = (     1          0         -1      )
                  (     1          0          0      )
                  (     1         -1          0      )

 cart.    s( 8) = ( -0.0000000 -1.0000000  0.0000000 )
                  (  1.0000000  0.0000000  0.0000000 )
                  (  0.0000000  0.0000000  1.0000000 )


      isym =  9     180 deg rotation - cart. axis [1,0,1]        

 cryst.   s( 9) = (    -1          1          0      )
                  (     0          1          0      )
                  (     0          1         -1      )

 cart.    s( 9) = (  0.0000000  0.0000000  1.0000000 )
                  (  0.0000000 -1.0000000 -0.0000000 )
                  (  1.0000000 -0.0000000 -0.0000000 )


      isym = 10     180 deg rotation - cart. axis [-1,0,1]       

 cryst.   s(10) = (     0          0         -1      )
                  (     0         -1          0      )
                  (    -1          0          0      )

 cart.    s(10) = ( -0.0000000  0.0000000 -1.0000000 )
                  ( -0.0000000 -1.0000000  0.0000000 )
                  ( -1.0000000 -0.0000000  0.0000000 )


      isym = 11      90 deg rotation - cart. axis [0,1,0]        

 cryst.   s(11) = (     0          0          1      )
                  (    -1          0          1      )
                  (     0         -1          1      )

 cart.    s(11) = ( -0.0000000 -0.0000000  1.0000000 )
                  ( -0.0000000  1.0000000 -0.0000000 )
                  ( -1.0000000  0.0000000 -0.0000000 )


      isym = 12      90 deg rotation - cart. axis [0,-1,0]       

 cryst.   s(12) = (     1         -1          0      )
                  (     1          0         -1      )
                  (     1          0          0      )

 cart.    s(12) = (  0.0000000 -0.0000000 -1.0000000 )
                  (  0.0000000  1.0000000  0.0000000 )
                  (  1.0000000  0.0000000  0.0000000 )


      isym = 13     180 deg rotation - cart. axis [0,1,1]        

 cryst.   s(13) = (     1          0          0      )
                  (     1         -1          0      )
                  (     1          0         -1      )

 cart.    s(13) = ( -1.0000000  0.0000000 -0.0000000 )
                  (  0.0000000  0.0000000  1.0000000 )
                  (  0.0000000  1.0000000  0.0000000 )


      isym = 14     180 deg rotation - cart. axis [0,1,-1]       

 cryst.   s(14) = (    -1          0          0      )
                  (     0          0         -1      )
                  (     0         -1          0      )

 cart.    s(14) = ( -1.0000000 -0.0000000  0.0000000 )
                  (  0.0000000 -0.0000000 -1.0000000 )
                  (  0.0000000 -1.0000000 -0.0000000 )


      isym = 15      90 deg rotation - cart. axis [-1,0,0]       

 cryst.   s(15) = (     0         -1          1      )
                  (     0          0          1      )
                  (    -1          0          1      )

 cart.    s(15) = (  1.0000000 -0.0000000 -0.0000000 )
                  ( -0.0000000 -0.0000000  1.0000000 )
                  ( -0.0000000 -1.0000000  0.0000000 )


      isym = 16      90 deg rotation - cart. axis [1,0,0]        

 cryst.   s(16) = (     0          1         -1      )
                  (    -1          1          0      )
                  (     0          1          0      )

 cart.    s(16) = (  1.0000000  0.0000000  0.0000000 )
                  ( -0.0000000  0.0000000 -1.0000000 )
                  ( -0.0000000  1.0000000 -0.0000000 )


      isym = 17     120 deg rotation - cart. axis [-1,-1,-1]     

 cryst.   s(17) = (     0          0          1      )
                  (     1          0          0      )
                  (     0          1          0      )

 cart.    s(17) = (  0.0000000  1.0000000 -0.0000000 )
                  (  0.0000000 -0.0000000  1.0000000 )
                  (  1.0000000 -0.0000000  0.0000000 )


      isym = 18     120 deg rotation - cart. axis [-1,1,1]       

 cryst.   s(18) = (     1         -1          0      )
                  (     0         -1          1      )
                  (     0         -1          0      )

 cart.    s(18) = ( -0.0000000 -1.0000000 -0.0000000 )
                  ( -0.0000000  0.0000000  1.0000000 )
                  ( -1.0000000  0.0000000  0.0000000 )


      isym = 19     120 deg rotation - cart. axis [1,1,-1]       

 cryst.   s(19) = (    -1          1          0      )
                  (    -1          0          0      )
                  (    -1          0          1      )

 cart.    s(19) = ( -0.0000000  1.0000000  0.0000000 )
                  ( -0.0000000 -0.0000000 -1.0000000 )
                  ( -1.0000000 -0.0000000 -0.0000000 )


      isym = 20     120 deg rotation - cart. axis [1,-1,1]       

 cryst.   s(20) = (     0          0         -1      )
                  (     0          1         -1      )
                  (     1          0         -1      )

 cart.    s(20) = (  0.0000000 -1.0000000  0.0000000 )
                  (  0.0000000  0.0000000 -1.0000000 )
                  (  1.0000000  0.0000000 -0.0000000 )


      isym = 21     120 deg rotation - cart. axis [1,1,1]        

 cryst.   s(21) = (     0          1          0      )
                  (     0          0          1      )
                  (     1          0          0      )

 cart.    s(21) = ( -0.0000000  0.0000000  1.0000000 )
                  (  1.0000000  0.0000000 -0.0000000 )
                  (  0.0000000  1.0000000 -0.0000000 )


      isym = 22     120 deg rotation - cart. axis [-1,1,-1]      

 cryst.   s(22) = (    -1          0          1      )
                  (    -1          1          0      )
                  (    -1          0          0      )

 cart.    s(22) = (  0.0000000 -0.0000000  1.0000000 )
                  ( -1.0000000 -0.0000000 -0.0000000 )
                  ( -0.0000000 -1.0000000 -0.0000000 )


      isym = 23     120 deg rotation - cart. axis [1,-1,-1]      

 cryst.   s(23) = (     1          0         -1      )
                  (     0          0         -1      )
                  (     0          1         -1      )

 cart.    s(23) = (  0.0000000  0.0000000 -1.0000000 )
                  ( -1.0000000  0.0000000  0.0000000 )
                  ( -0.0000000  1.0000000  0.0000000 )


      isym = 24     120 deg rotation - cart. axis [-1,-1,1]      

 cryst.   s(24) = (     0         -1          0      )
                  (     1         -1          0      )
                  (     0         -1          1      )

 cart.    s(24) = ( -0.0000000 -0.0000000 -1.0000000 )
                  (  1.0000000 -0.0000000  0.0000000 )
                  (  0.0000000 -1.0000000  0.0000000 )


      isym = 25     inversion                                    

 cryst.   s(25) = (    -1          0          0      )
                  (     0         -1          0      )
                  (     0          0         -1      )

 cart.    s(25) = ( -1.0000000  0.0000000 -0.0000000 )
                  (  0.0000000 -1.0000000 -0.0000000 )
                  (  0.0000000 -0.0000000 -1.0000000 )


      isym = 26     inv. 180 deg rotation - cart. axis [0,0,1]   

 cryst.   s(26) = (     0         -1          1      )
                  (    -1          0          1      )
                  (     0          0          1      )

 cart.    s(26) = (  1.0000000 -0.0000000 -0.0000000 )
                  ( -0.0000000  1.0000000 -0.0000000 )
                  ( -0.0000000  0.0000000 -1.0000000 )


      isym = 27     inv. 180 deg rotation - cart. axis [0,1,0]   

 cryst.   s(27) = (     0          1         -1      )
                  (     0          1          0      )
                  (    -1          1          0      )

 cart.    s(27) = (  1.0000000  0.0000000  0.0000000 )
                  ( -0.0000000 -1.0000000  0.0000000 )
                  ( -0.0000000 -0.0000000  1.0000000 )


      isym = 28     inv. 180 deg rotation - cart. axis [1,0,0]   

 cryst.   s(28) = (     1          0          0      )
                  (     1          0         -1      )
                  (     1         -1          0      )

 cart.    s(28) = ( -1.0000000 -0.0000000  0.0000000 )
                  (  0.0000000  1.0000000  0.0000000 )
                  (  0.0000000  0.0000000  1.0000000 )


      isym = 29     inv. 180 deg rotation - cart. axis [1,1,0]   

 cryst.   s(29) = (     1          0         -1      )
                  (     0          1         -1      )
                  (     0          0         -1      )

 cart.    s(29) = (  0.0000000 -1.0000000  0.0000000 )
                  ( -1.0000000  0.0000000  0.0000000 )
                  ( -0.0000000  0.0000000  1.0000000 )


      isym = 30     inv. 180 deg rotation - cart. axis [1,-1,0]  

 cryst.   s(30) = (     0          1          0      )
                  (     1          0          0      )
                  (     0          0          1      )

 cart.    s(30) = ( -0.0000000  1.0000000  0.0000000 )
                  (  1.0000000 -0.0000000  0.0000000 )
                  (  0.0000000 -0.0000000  1.0000000 )


      isym = 31     inv.  90 deg rotation - cart. axis [0,0,-1]  

 cryst.   s(31) = (     0         -1          0      )
                  (     0         -1          1      )
                  (     1         -1          0      )

 cart.    s(31) = ( -0.0000000 -1.0000000 -0.0000000 )
                  (  1.0000000  0.0000000 -0.0000000 )
                  (  0.0000000  0.0000000 -1.0000000 )


      isym = 32     inv.  90 deg rotation - cart. axis [0,0,1]   

 cryst.   s(32) = (    -1          0          1      )
                  (    -1          0          0      )
                  (    -1          1          0      )

 cart.    s(32) = (  0.0000000  1.0000000 -0.0000000 )
                  ( -1.0000000 -0.0000000 -0.0000000 )
                  ( -0.0000000 -0.0000000 -1.0000000 )


      isym = 33     inv. 180 deg rotation - cart. axis [1,0,1]   

 cryst.   s(33) = (     1         -1          0      )
                  (     0         -1          0      )
                  (     0         -1          1      )

 cart.    s(33) = ( -0.0000000 -0.0000000 -1.0000000 )
                  ( -0.0000000  1.0000000  0.0000000 )
                  ( -1.0000000  0.0000000  0.0000000 )


      isym = 34     inv. 180 deg rotation - cart. axis [-1,0,1]  

 cryst.   s(34) = (     0          0          1      )
                  (     0          1          0      )
                  (     1          0          0      )

 cart.    s(34) = (  0.0000000 -0.0000000  1.0000000 )
                  (  0.0000000  1.0000000 -0.0000000 )
                  (  1.0000000  0.0000000 -0.0000000 )


      isym = 35     inv.  90 deg rotation - cart. axis [0,1,0]   

 cryst.   s(35) = (     0          0         -1      )
                  (     1          0         -1      )
                  (     0          1         -1      )

 cart.    s(35) = (  0.0000000  0.0000000 -1.0000000 )
                  (  0.0000000 -1.0000000  0.0000000 )
                  (  1.0000000 -0.0000000  0.0000000 )


      isym = 36     inv.  90 deg rotation - cart. axis [0,-1,0]  

 cryst.   s(36) = (    -1          1          0      )
                  (    -1          0          1      )
                  (    -1          0          0      )

 cart.    s(36) = ( -0.0000000  0.0000000  1.0000000 )
                  ( -0.0000000 -1.0000000 -0.0000000 )
                  ( -1.0000000 -0.0000000 -0.0000000 )


      isym = 37     inv. 180 deg rotation - cart. axis [0,1,1]   

 cryst.   s(37) = (    -1          0          0      )
                  (    -1          1          0      )
                  (    -1          0          1      )

 cart.    s(37) = (  1.0000000 -0.0000000  0.0000000 )
                  ( -0.0000000 -0.0000000 -1.0000000 )
                  ( -0.0000000 -1.0000000 -0.0000000 )


      isym = 38     inv. 180 deg rotation - cart. axis [0,1,-1]  

 cryst.   s(38) = (     1          0          0      )
                  (     0          0          1      )
                  (     0          1          0      )

 cart.    s(38) = (  1.0000000  0.0000000 -0.0000000 )
                  ( -0.0000000  0.0000000  1.0000000 )
                  ( -0.0000000  1.0000000  0.0000000 )


      isym = 39     inv.  90 deg rotation - cart. axis [-1,0,0]  

 cryst.   s(39) = (     0          1         -1      )
                  (     0          0         -1      )
                  (     1          0         -1      )

 cart.    s(39) = ( -1.0000000  0.0000000  0.0000000 )
                  (  0.0000000  0.0000000 -1.0000000 )
                  (  0.0000000  1.0000000 -0.0000000 )


      isym = 40     inv.  90 deg rotation - cart. axis [1,0,0]   

 cryst.   s(40) = (     0         -1          1      )
                  (     1         -1          0      )
                  (     0         -1          0      )

 cart.    s(40) = ( -1.0000000 -0.0000000 -0.0000000 )
                  (  0.0000000 -0.0000000  1.0000000 )
                  (  0.0000000 -1.0000000  0.0000000 )


      isym = 41     inv. 120 deg rotation - cart. axis [-1,-1,-1]

 cryst.   s(41) = (     0          0         -1      )
                  (    -1          0          0      )
                  (     0         -1          0      )

 cart.    s(41) = ( -0.0000000 -1.0000000  0.0000000 )
                  ( -0.0000000  0.0000000 -1.0000000 )
                  ( -1.0000000  0.0000000 -0.0000000 )


      isym = 42     inv. 120 deg rotation - cart. axis [-1,1,1]  

 cryst.   s(42) = (    -1          1          0      )
                  (     0          1         -1      )
                  (     0          1          0      )

 cart.    s(42) = (  0.0000000  1.0000000  0.0000000 )
                  (  0.0000000 -0.0000000 -1.0000000 )
                  (  1.0000000 -0.0000000 -0.0000000 )


      isym = 43     inv. 120 deg rotation - cart. axis [1,1,-1]  

 cryst.   s(43) = (     1         -1          0      )
                  (     1          0          0      )
                  (     1          0         -1      )

 cart.    s(43) = (  0.0000000 -1.0000000 -0.0000000 )
                  (  0.0000000  0.0000000  1.0000000 )
                  (  1.0000000  0.0000000  0.0000000 )


      isym = 44     inv. 120 deg rotation - cart. axis [1,-1,1]  

 cryst.   s(44) = (     0          0          1      )
                  (     0         -1          1      )
                  (    -1          0          1      )

 cart.    s(44) = ( -0.0000000  1.0000000 -0.0000000 )
                  ( -0.0000000 -0.0000000  1.0000000 )
                  ( -1.0000000 -0.0000000  0.0000000 )


      isym = 45     inv. 120 deg rotation - cart. axis [1,1,1]   

 cryst.   s(45) = (     0         -1          0      )
                  (     0          0         -1      )
                  (    -1          0          0      )

 cart.    s(45) = (  0.0000000 -0.0000000 -1.0000000 )
                  ( -1.0000000 -0.0000000  0.0000000 )
                  ( -0.0000000 -1.0000000  0.0000000 )


      isym = 46     inv. 120 deg rotation - cart. axis [-1,1,-1] 

 cryst.   s(46) = (     1          0         -1      )
                  (     1         -1          0      )
                  (     1          0          0      )

 cart.    s(46) = ( -0.0000000  0.0000000 -1.0000000 )
                  (  1.0000000  0.0000000  0.0000000 )
                  (  0.0000000  1.0000000  0.0000000 )


      isym = 47     inv. 120 deg rotation - cart. axis [1,-1,-1] 

 cryst.   s(47) = (    -1          0          1      )
                  (     0          0          1      )
                  (     0         -1          1      )

 cart.    s(47) = ( -0.0000000 -0.0000000  1.0000000 )
                  (  1.0000000 -0.0000000 -0.0000000 )
                  (  0.0000000 -1.0000000 -0.0000000 )


      isym = 48     inv. 120 deg rotation - cart. axis [-1,-1,1] 

 cryst.   s(48) = (     0          1          0      )
                  (    -1          1          0      )
                  (     0          1         -1      )

 cart.    s(48) = (  0.0000000  0.0000000  1.0000000 )
                  ( -1.0000000  0.0000000 -0.0000000 )
                  ( -0.0000000  1.0000000 -0.0000000 )


   Cartesian axes

     site n.     atom                  positions (alat units)
         1           Fe  tau(   1) = (   0.0000000   0.0000000   0.0000000  )
         2           N   tau(   2) = (   1.0787621   0.0000000   0.0000000  )
         3           N   tau(   3) = (   0.7071068   0.3716553  -0.0000000  )
         4           N   tau(   4) = (  -0.0000000  -0.0000000   1.0787621  )
         5           N   tau(   5) = (   0.7071068   0.0000000   1.0425582  )
         6           N   tau(   6) = (   0.7071068   1.0425582   0.0000000  )
         7           N   tau(   7) = (   0.3354515  -0.0000000  -0.0000000  )
         8           Cl  tau(   8) = (   0.3535534   0.3535534   1.0606602  )
         9           Cl  tau(   9) = (   0.3535534   1.0606602   1.0606602  )

   Crystallographic axes

     site n.     atom                  positions (cryst. coord.)
         1           Fe  tau(   1) = (  0.0000000  0.0000000  0.0000000  )
         2           N   tau(   2) = ( -0.7628000  0.7628000  0.7628000  )
         3           N   tau(   3) = ( -0.2372000  0.2372000  0.7628000  )
         4           N   tau(   4) = (  0.7628000  0.7628000 -0.7628000  )
         5           N   tau(   5) = (  0.2372000  1.2372000 -0.2372000  )
         6           N   tau(   6) = (  0.2372000 -0.2372000  1.2372000  )
         7           N   tau(   7) = ( -0.2372000  0.2372000  0.2372000  )
         8           Cl  tau(   8) = (  0.7500000  0.7500000 -0.2500000  )
         9           Cl  tau(   9) = (  1.2500000  0.2500000  0.2500000  )

     number of k points=    29  Marzari-Vanderbilt smearing, width (Ry)=  0.0100
                       cart. coord. in units 2pi/alat
        k(    1) = (   0.0000000   0.0000000   0.0000000), wk =   0.0019531
        k(    2) = (   0.0883883   0.0883883  -0.0883883), wk =   0.0156250
        k(    3) = (   0.1767767   0.1767767  -0.1767767), wk =   0.0156250
        k(    4) = (   0.2651650   0.2651650  -0.2651650), wk =   0.0156250
        k(    5) = (  -0.3535534  -0.3535534   0.3535534), wk =   0.0078125
        k(    6) = (   0.1767767   0.0000000   0.0000000), wk =   0.0117188
        k(    7) = (   0.2651650   0.0883883  -0.0883883), wk =   0.0468750
        k(    8) = (   0.3535534   0.1767767  -0.1767767), wk =   0.0468750
        k(    9) = (  -0.2651650  -0.4419417   0.4419417), wk =   0.0468750
        k(   10) = (  -0.1767767  -0.3535534   0.3535534), wk =   0.0468750
        k(   11) = (  -0.0883883  -0.2651650   0.2651650), wk =   0.0468750
        k(   12) = (   0.0000000  -0.1767767   0.1767767), wk =   0.0234375
        k(   13) = (   0.3535534   0.0000000   0.0000000), wk =   0.0117188
        k(   14) = (   0.4419417   0.0883883  -0.0883883), wk =   0.0468750
        k(   15) = (  -0.1767767  -0.5303301   0.5303301), wk =   0.0468750
        k(   16) = (  -0.0883883  -0.4419417   0.4419417), wk =   0.0468750
        k(   17) = (   0.0000000  -0.3535534   0.3535534), wk =   0.0234375
        k(   18) = (   0.5303301  -0.0000000   0.0000000), wk =   0.0117188
        k(   19) = (  -0.0883883  -0.6187184   0.6187184), wk =   0.0468750
        k(   20) = (   0.0000000  -0.5303301   0.5303301), wk =   0.0234375
        k(   21) = (  -0.7071068   0.0000000   0.0000000), wk =   0.0058594
        k(   22) = (   0.3535534   0.1767767   0.0000000), wk =   0.0468750
        k(   23) = (  -0.2651650  -0.4419417   0.6187184), wk =   0.0937500
        k(   24) = (  -0.1767767  -0.3535534   0.5303301), wk =   0.0468750
        k(   25) = (  -0.1767767  -0.5303301   0.7071068), wk =   0.0468750
        k(   26) = (  -0.0883883  -0.4419417   0.6187184), wk =   0.0937500
        k(   27) = (   0.0000000  -0.3535534   0.5303301), wk =   0.0468750
        k(   28) = (  -0.7071068   0.1767767  -0.0000000), wk =   0.0234375
        k(   29) = (  -0.7071068   0.3535534   0.0000000), wk =   0.0117188

                       cryst. coord.
        k(    1) = (   0.0000000   0.0000000   0.0000000), wk =   0.0019531
        k(    2) = (   0.0000000   0.0000000   0.1250000), wk =   0.0156250
        k(    3) = (   0.0000000   0.0000000   0.2500000), wk =   0.0156250
        k(    4) = (  -0.0000000  -0.0000000   0.3750000), wk =   0.0156250
        k(    5) = (  -0.0000000  -0.0000000  -0.5000000), wk =   0.0078125
        k(    6) = (   0.0000000   0.1250000   0.1250000), wk =   0.0117188
        k(    7) = (   0.0000000   0.1250000   0.2500000), wk =   0.0468750
        k(    8) = (   0.0000000   0.1250000   0.3750000), wk =   0.0468750
        k(    9) = (  -0.0000000   0.1250000  -0.5000000), wk =   0.0468750
        k(   10) = (  -0.0000000   0.1250000  -0.3750000), wk =   0.0468750
        k(   11) = (   0.0000000   0.1250000  -0.2500000), wk =   0.0468750
        k(   12) = (  -0.0000000   0.1250000  -0.1250000), wk =   0.0234375
        k(   13) = (   0.0000000   0.2500000   0.2500000), wk =   0.0117188
        k(   14) = (   0.0000000   0.2500000   0.3750000), wk =   0.0468750
        k(   15) = (   0.0000000   0.2500000  -0.5000000), wk =   0.0468750
        k(   16) = (  -0.0000000   0.2500000  -0.3750000), wk =   0.0468750
        k(   17) = (  -0.0000000   0.2500000  -0.2500000), wk =   0.0234375
        k(   18) = (   0.0000000   0.3750000   0.3750000), wk =   0.0117188
        k(   19) = (  -0.0000000   0.3750000  -0.5000000), wk =   0.0468750
        k(   20) = (   0.0000000   0.3750000  -0.3750000), wk =   0.0234375
        k(   21) = (   0.0000000  -0.5000000  -0.5000000), wk =   0.0058594
        k(   22) = (   0.1250000   0.2500000   0.3750000), wk =   0.0468750
        k(   23) = (   0.1250000   0.2500000  -0.5000000), wk =   0.0937500
        k(   24) = (   0.1250000   0.2500000  -0.3750000), wk =   0.0468750
        k(   25) = (   0.1250000   0.3750000  -0.5000000), wk =   0.0468750
        k(   26) = (   0.1250000   0.3750000  -0.3750000), wk =   0.0937500
        k(   27) = (   0.1250000   0.3750000  -0.2500000), wk =   0.0468750
        k(   28) = (   0.1250000  -0.5000000  -0.3750000), wk =   0.0234375
        k(   29) = (   0.2500000  -0.5000000  -0.2500000), wk =   0.0117188

     Dense  grid:  1077177 G-vectors     FFT dimensions: ( 144, 144, 144)

     Smooth grid:   207247 G-vectors     FFT dimensions: (  90,  90,  90)

     Dynamical RAM for                 wfc:      14.23 MB

     Dynamical RAM for     wfc (w. buffer):     839.57 MB

     Dynamical RAM for           str. fact:      49.31 MB

     Dynamical RAM for           local pot:       0.00 MB

     Dynamical RAM for          nlocal pot:      40.32 MB

     Dynamical RAM for                qrad:       7.91 MB

     Dynamical RAM for          rho,v,vnew:     235.31 MB

     Dynamical RAM for               rhoin:      78.44 MB

     Dynamical RAM for            rho*nmix:     525.97 MB

     Dynamical RAM for           G-vectors:      63.22 MB

     Dynamical RAM for          h,s,v(r/c):       0.24 MB

     Dynamical RAM for          <psi|beta>:       0.06 MB

     Dynamical RAM for                 psi:      28.46 MB

     Dynamical RAM for                hpsi:      28.46 MB

     Dynamical RAM for                spsi:      28.46 MB

     Dynamical RAM for      wfcinit/wfcrot:      35.62 MB

     Dynamical RAM for           addusdens:    3172.23 MB

     Dynamical RAM for          addusforce:    3336.64 MB

     Dynamical RAM for         addusstress:    3328.37 MB

     Estimated static dynamical RAM per process >       1.48 GB

     Estimated max dynamical RAM per process >       5.25 GB

     Check: negative core charge=   -0.000002
     Generating pointlists ...
     new r_m :   0.2064 (alat units)  2.8163 (a.u.) for type    1
     new r_m :   0.1384 (alat units)  1.8882 (a.u.) for type    2
     new r_m :   0.1384 (alat units)  1.8882 (a.u.) for type    3

     Initial potential from superposition of free atoms

     starting charge      59.9995, renormalised to      60.0000

     negative rho (up, down):  1.715E-02 1.403E-02
     Starting wfcs are   45 randomized atomic wfcs
     Checking if some PAW data can be deallocated... 

     total cpu time spent up to now is       10.4 secs

     Self-consistent Calculation
[tb_dev] Currently allocated     1.09E+01 Mbytes, locked:    0 /  10
[tb_pin] Currently allocated     0.00E+00 Mbytes, locked:    0 /   0

     iteration #  1     ecut=    90.00 Ry     beta= 0.40
     Davidson diagonalization with overlap

---- Real-time Memory Report at c_bands before calling an iterative solver
          2374 MiB given to the printing process from OS
         -1908 MiB allocation reported by mallinfo(arena+hblkhd)
         56257 MiB available memory on the node where the printing process lives
     GPU memory used/free/total (MiB): 2668 / 13612 / 16280
------------------
     ethr =  1.00E-02,  avg # of iterations =  1.2

     negative rho (up, down):  1.685E-02 1.473E-02

     total cpu time spent up to now is       16.1 secs

     total energy              =    -510.69432171 Ry
     estimated scf accuracy    <       0.98499584 Ry

     total magnetization       =     9.29 Bohr mag/cell
     absolute magnetization    =     9.48 Bohr mag/cell
[tb_dev] Currently allocated     1.09E+01 Mbytes, locked:    0 /   8
[tb_pin] Currently allocated     0.00E+00 Mbytes, locked:    0 /   0

     iteration #  2     ecut=    90.00 Ry     beta= 0.40
     Davidson diagonalization with overlap

---- Real-time Memory Report at c_bands before calling an iterative solver
          2616 MiB given to the printing process from OS
         -1733 MiB allocation reported by mallinfo(arena+hblkhd)
         56126 MiB available memory on the node where the printing process lives
     GPU memory used/free/total (MiB): 6370 / 9910 / 16280
------------------
     ethr =  1.64E-03,  avg # of iterations =  7.7

     negative rho (up, down):  1.656E-02 1.455E-02

     total cpu time spent up to now is       25.3 secs

     total energy              =    -510.24137123 Ry
     estimated scf accuracy    <      23.30677516 Ry

     total magnetization       =     5.84 Bohr mag/cell
     absolute magnetization    =     5.95 Bohr mag/cell
[tb_dev] Currently allocated     1.09E+01 Mbytes, locked:    0 /   8
[tb_pin] Currently allocated     0.00E+00 Mbytes, locked:    0 /   0

     iteration #  3     ecut=    90.00 Ry     beta= 0.40
     Davidson diagonalization with overlap

---- Real-time Memory Report at c_bands before calling an iterative solver
          2694 MiB given to the printing process from OS
         -1718 MiB allocation reported by mallinfo(arena+hblkhd)
         56112 MiB available memory on the node where the printing process lives
     GPU memory used/free/total (MiB): 7532 / 8748 / 16280
------------------
     ethr =  1.64E-03,  avg # of iterations =  6.6

     negative rho (up, down):  1.657E-02 1.462E-02

     total cpu time spent up to now is       34.0 secs

     total energy              =    -511.10466692 Ry
     estimated scf accuracy    <       2.37029506 Ry

     total magnetization       =     7.81 Bohr mag/cell
     absolute magnetization    =     7.86 Bohr mag/cell
[tb_dev] Currently allocated     1.09E+01 Mbytes, locked:    0 /   8
[tb_pin] Currently allocated     0.00E+00 Mbytes, locked:    0 /   0

     iteration #  4     ecut=    90.00 Ry     beta= 0.40
     Davidson diagonalization with overlap

---- Real-time Memory Report at c_bands before calling an iterative solver
          2779 MiB given to the printing process from OS
         -1697 MiB allocation reported by mallinfo(arena+hblkhd)
         56091 MiB available memory on the node where the printing process lives
     GPU memory used/free/total (MiB): 7532 / 8748 / 16280
------------------
     ethr =  1.64E-03,  avg # of iterations =  1.5

     negative rho (up, down):  1.631E-02 1.479E-02

     total cpu time spent up to now is       39.9 secs

     total energy              =    -511.24109678 Ry
     estimated scf accuracy    <       0.07740060 Ry

     total magnetization       =    10.71 Bohr mag/cell
     absolute magnetization    =    10.83 Bohr mag/cell
[tb_dev] Currently allocated     1.09E+01 Mbytes, locked:    0 /   8
[tb_pin] Currently allocated     0.00E+00 Mbytes, locked:    0 /   0

     iteration #  5     ecut=    90.00 Ry     beta= 0.40
     Davidson diagonalization with overlap

---- Real-time Memory Report at c_bands before calling an iterative solver
          2858 MiB given to the printing process from OS
         -1683 MiB allocation reported by mallinfo(arena+hblkhd)
         56078 MiB available memory on the node where the printing process lives
     GPU memory used/free/total (MiB): 7532 / 8748 / 16280
------------------
     c_bands:  2 eigenvalues not converged
     ethr =  1.29E-04,  avg # of iterations =  9.2

     negative rho (up, down):  1.609E-02 1.497E-02

     total cpu time spent up to now is       49.6 secs

     total energy              =    -511.33119991 Ry
     estimated scf accuracy    <       0.09407008 Ry

     total magnetization       =    12.23 Bohr mag/cell
     absolute magnetization    =    12.32 Bohr mag/cell
[tb_dev] Currently allocated     1.09E+01 Mbytes, locked:    0 /   8
[tb_pin] Currently allocated     0.00E+00 Mbytes, locked:    0 /   0

     iteration #  6     ecut=    90.00 Ry     beta= 0.40
     Davidson diagonalization with overlap

---- Real-time Memory Report at c_bands before calling an iterative solver
          2943 MiB given to the printing process from OS
         -1662 MiB allocation reported by mallinfo(arena+hblkhd)
         56057 MiB available memory on the node where the printing process lives
     GPU memory used/free/total (MiB): 7532 / 8748 / 16280
------------------
     ethr =  1.29E-04,  avg # of iterations =  6.6

     negative rho (up, down):  1.581E-02 1.519E-02

     total cpu time spent up to now is       57.3 secs

     total energy              =    -511.37946787 Ry
     estimated scf accuracy    <       0.02094374 Ry

     total magnetization       =    12.09 Bohr mag/cell
     absolute magnetization    =    12.23 Bohr mag/cell
[tb_dev] Currently allocated     1.09E+01 Mbytes, locked:    0 /   8
[tb_pin] Currently allocated     0.00E+00 Mbytes, locked:    0 /   0

     iteration #  7     ecut=    90.00 Ry     beta= 0.40
     Davidson diagonalization with overlap

---- Real-time Memory Report at c_bands before calling an iterative solver
          3028 MiB given to the printing process from OS
         -1641 MiB allocation reported by mallinfo(arena+hblkhd)
         56035 MiB available memory on the node where the printing process lives
     GPU memory used/free/total (MiB): 7532 / 8748 / 16280
------------------
     c_bands:  2 eigenvalues not converged
     c_bands:  2 eigenvalues not converged
     c_bands:  1 eigenvalues not converged
     c_bands:  2 eigenvalues not converged
     c_bands:  1 eigenvalues not converged
     c_bands:  2 eigenvalues not converged
     c_bands:  5 eigenvalues not converged
     c_bands:  2 eigenvalues not converged
     c_bands:  2 eigenvalues not converged
     ethr =  3.49E-05,  avg # of iterations = 12.4

     negative rho (up, down):  1.575E-02 1.524E-02

     total cpu time spent up to now is       68.6 secs

     total energy              =    -511.42829347 Ry
     estimated scf accuracy    <       0.07435152 Ry

     total magnetization       =    12.00 Bohr mag/cell
     absolute magnetization    =    13.49 Bohr mag/cell
[tb_dev] Currently allocated     1.09E+01 Mbytes, locked:    0 /   8
[tb_pin] Currently allocated     0.00E+00 Mbytes, locked:    0 /   0

     iteration #  8     ecut=    90.00 Ry     beta= 0.40
     Davidson diagonalization with overlap

---- Real-time Memory Report at c_bands before calling an iterative solver
          3108 MiB given to the printing process from OS
         -1626 MiB allocation reported by mallinfo(arena+hblkhd)
         56021 MiB available memory on the node where the printing process lives
     GPU memory used/free/total (MiB): 7532 / 8748 / 16280
------------------
     ethr =  3.49E-05,  avg # of iterations =  1.4

     negative rho (up, down):  1.542E-02 1.559E-02

     total cpu time spent up to now is       74.5 secs

     total energy              =    -511.43692855 Ry
     estimated scf accuracy    <       0.06864317 Ry

     total magnetization       =    12.00 Bohr mag/cell
     absolute magnetization    =    13.62 Bohr mag/cell
[tb_dev] Currently allocated     1.09E+01 Mbytes, locked:    0 /   8
[tb_pin] Currently allocated     0.00E+00 Mbytes, locked:    0 /   0

     iteration #  9     ecut=    90.00 Ry     beta= 0.40
     Davidson diagonalization with overlap

---- Real-time Memory Report at c_bands before calling an iterative solver
          3186 MiB given to the printing process from OS
         -1611 MiB allocation reported by mallinfo(arena+hblkhd)
         56007 MiB available memory on the node where the printing process lives
     GPU memory used/free/total (MiB): 7532 / 8748 / 16280
------------------
     ethr =  3.49E-05,  avg # of iterations =  5.3

     negative rho (up, down):  1.511E-02 1.591E-02

     total cpu time spent up to now is       82.1 secs

     total energy              =    -511.44843222 Ry
     estimated scf accuracy    <       0.02277404 Ry

     total magnetization       =    12.01 Bohr mag/cell
     absolute magnetization    =    13.88 Bohr mag/cell
[tb_dev] Currently allocated     1.09E+01 Mbytes, locked:    0 /   8
[tb_pin] Currently allocated     0.00E+00 Mbytes, locked:    0 /   0

     iteration # 10     ecut=    90.00 Ry     beta= 0.40
     Davidson diagonalization with overlap

---- Real-time Memory Report at c_bands before calling an iterative solver
          3223 MiB given to the printing process from OS
         -1596 MiB allocation reported by mallinfo(arena+hblkhd)
         55992 MiB available memory on the node where the printing process lives
     GPU memory used/free/total (MiB): 7532 / 8748 / 16280
------------------
     ethr =  3.49E-05,  avg # of iterations =  3.5

     negative rho (up, down):  1.516E-02 1.585E-02

     total cpu time spent up to now is       88.7 secs

     total energy              =    -511.44921664 Ry
     estimated scf accuracy    <       0.03569981 Ry

     total magnetization       =    12.01 Bohr mag/cell
     absolute magnetization    =    14.31 Bohr mag/cell
[tb_dev] Currently allocated     1.09E+01 Mbytes, locked:    0 /   8
[tb_pin] Currently allocated     0.00E+00 Mbytes, locked:    0 /   0

     iteration # 11     ecut=    90.00 Ry     beta= 0.40
     Davidson diagonalization with overlap

---- Real-time Memory Report at c_bands before calling an iterative solver
          3245 MiB given to the printing process from OS
         -1640 MiB allocation reported by mallinfo(arena+hblkhd)
         55992 MiB available memory on the node where the printing process lives
     GPU memory used/free/total (MiB): 7532 / 8748 / 16280
------------------
     ethr =  3.49E-05,  avg # of iterations =  1.7

     negative rho (up, down):  1.498E-02 1.604E-02

     total cpu time spent up to now is       94.7 secs

     total energy              =    -511.45194144 Ry
     estimated scf accuracy    <       0.00978568 Ry

     total magnetization       =    12.00 Bohr mag/cell
     absolute magnetization    =    14.40 Bohr mag/cell
[tb_dev] Currently allocated     1.09E+01 Mbytes, locked:    0 /   8
[tb_pin] Currently allocated     0.00E+00 Mbytes, locked:    0 /   0

     iteration # 12     ecut=    90.00 Ry     beta= 0.40
     Davidson diagonalization with overlap

---- Real-time Memory Report at c_bands before calling an iterative solver
          3266 MiB given to the printing process from OS
         -1592 MiB allocation reported by mallinfo(arena+hblkhd)
         55988 MiB available memory on the node where the printing process lives
     GPU memory used/free/total (MiB): 7532 / 8748 / 16280
------------------
     c_bands:  1 eigenvalues not converged
     c_bands:  1 eigenvalues not converged
     ethr =  1.63E-05,  avg # of iterations =  6.2

     negative rho (up, down):  1.502E-02 1.600E-02

     total cpu time spent up to now is      102.4 secs

     total energy              =    -511.45645482 Ry
     estimated scf accuracy    <       0.01354029 Ry

     total magnetization       =    12.00 Bohr mag/cell
     absolute magnetization    =    14.82 Bohr mag/cell
[tb_dev] Currently allocated     1.09E+01 Mbytes, locked:    0 /   8
[tb_pin] Currently allocated     0.00E+00 Mbytes, locked:    0 /   0

     iteration # 13     ecut=    90.00 Ry     beta= 0.40
     Davidson diagonalization with overlap

---- Real-time Memory Report at c_bands before calling an iterative solver
          3288 MiB given to the printing process from OS
         -1636 MiB allocation reported by mallinfo(arena+hblkhd)
         55987 MiB available memory on the node where the printing process lives
     GPU memory used/free/total (MiB): 7532 / 8748 / 16280
------------------
     c_bands:  1 eigenvalues not converged
     ethr =  1.63E-05,  avg # of iterations =  3.6

     negative rho (up, down):  1.501E-02 1.601E-02

     total cpu time spent up to now is      109.1 secs

     total energy              =    -511.45857395 Ry
     estimated scf accuracy    <       0.05154677 Ry

     total magnetization       =    12.00 Bohr mag/cell
     absolute magnetization    =    15.15 Bohr mag/cell
[tb_dev] Currently allocated     1.09E+01 Mbytes, locked:    0 /   8
[tb_pin] Currently allocated     0.00E+00 Mbytes, locked:    0 /   0

     iteration # 14     ecut=    90.00 Ry     beta= 0.40
     Davidson diagonalization with overlap

---- Real-time Memory Report at c_bands before calling an iterative solver
          3311 MiB given to the printing process from OS
         -1588 MiB allocation reported by mallinfo(arena+hblkhd)
         55986 MiB available memory on the node where the printing process lives
     GPU memory used/free/total (MiB): 7532 / 8748 / 16280
------------------
     ethr =  1.63E-05,  avg # of iterations =  1.1

     negative rho (up, down):  1.490E-02 1.612E-02

     total cpu time spent up to now is      114.9 secs

     total energy              =    -511.45820738 Ry
     estimated scf accuracy    <       0.04080254 Ry

     total magnetization       =    12.00 Bohr mag/cell
     absolute magnetization    =    15.16 Bohr mag/cell
[tb_dev] Currently allocated     1.09E+01 Mbytes, locked:    0 /   8
[tb_pin] Currently allocated     0.00E+00 Mbytes, locked:    0 /   0

     iteration # 15     ecut=    90.00 Ry     beta= 0.40
     Davidson diagonalization with overlap

---- Real-time Memory Report at c_bands before calling an iterative solver
          3333 MiB given to the printing process from OS
         -1632 MiB allocation reported by mallinfo(arena+hblkhd)
         55984 MiB available memory on the node where the printing process lives
     GPU memory used/free/total (MiB): 7532 / 8748 / 16280
------------------
     ethr =  1.63E-05,  avg # of iterations =  1.7

     negative rho (up, down):  1.494E-02 1.608E-02

     total cpu time spent up to now is      120.9 secs

     total energy              =    -511.45985616 Ry
     estimated scf accuracy    <       0.03075349 Ry

     total magnetization       =    12.00 Bohr mag/cell
     absolute magnetization    =    15.21 Bohr mag/cell
[tb_dev] Currently allocated     1.09E+01 Mbytes, locked:    0 /   8
[tb_pin] Currently allocated     0.00E+00 Mbytes, locked:    0 /   0

     iteration # 16     ecut=    90.00 Ry     beta= 0.40
     Davidson diagonalization with overlap

---- Real-time Memory Report at c_bands before calling an iterative solver
          3354 MiB given to the printing process from OS
         -1584 MiB allocation reported by mallinfo(arena+hblkhd)
         55982 MiB available memory on the node where the printing process lives
     GPU memory used/free/total (MiB): 7532 / 8748 / 16280
------------------
     ethr =  1.63E-05,  avg # of iterations =  1.0

     negative rho (up, down):  1.494E-02 1.608E-02

     total cpu time spent up to now is      126.7 secs

     total energy              =    -511.45764351 Ry
     estimated scf accuracy    <       0.03836757 Ry

     total magnetization       =    12.00 Bohr mag/cell
     absolute magnetization    =    15.18 Bohr mag/cell
[tb_dev] Currently allocated     1.09E+01 Mbytes, locked:    0 /   8
[tb_pin] Currently allocated     0.00E+00 Mbytes, locked:    0 /   0

     iteration # 17     ecut=    90.00 Ry     beta= 0.40
     Davidson diagonalization with overlap

---- Real-time Memory Report at c_bands before calling an iterative solver
          3383 MiB given to the printing process from OS
         -1628 MiB allocation reported by mallinfo(arena+hblkhd)
         55980 MiB available memory on the node where the printing process lives
     GPU memory used/free/total (MiB): 7532 / 8748 / 16280
------------------
     ethr =  1.63E-05,  avg # of iterations =  2.2

     negative rho (up, down):  1.493E-02 1.609E-02

     total cpu time spent up to now is      132.9 secs

     total energy              =    -511.45962213 Ry
     estimated scf accuracy    <       0.02436822 Ry

     total magnetization       =    12.00 Bohr mag/cell
     absolute magnetization    =    15.12 Bohr mag/cell
[tb_dev] Currently allocated     1.09E+01 Mbytes, locked:    0 /   8
[tb_pin] Currently allocated     0.00E+00 Mbytes, locked:    0 /   0

     iteration # 18     ecut=    90.00 Ry     beta= 0.40
     Davidson diagonalization with overlap

---- Real-time Memory Report at c_bands before calling an iterative solver
          3399 MiB given to the printing process from OS
         -1580 MiB allocation reported by mallinfo(arena+hblkhd)
         55981 MiB available memory on the node where the printing process lives
     GPU memory used/free/total (MiB): 7532 / 8748 / 16280
------------------
     ethr =  1.63E-05,  avg # of iterations =  1.0

     negative rho (up, down):  1.486E-02 1.616E-02

     total cpu time spent up to now is      138.8 secs

     total energy              =    -511.45569404 Ry
     estimated scf accuracy    <       0.02911567 Ry

     total magnetization       =    12.00 Bohr mag/cell
     absolute magnetization    =    15.11 Bohr mag/cell
[tb_dev] Currently allocated     1.09E+01 Mbytes, locked:    0 /   8
[tb_pin] Currently allocated     0.00E+00 Mbytes, locked:    0 /   0

     iteration # 19     ecut=    90.00 Ry     beta= 0.40
     Davidson diagonalization with overlap

---- Real-time Memory Report at c_bands before calling an iterative solver
          3413 MiB given to the printing process from OS
         -1624 MiB allocation reported by mallinfo(arena+hblkhd)
         55978 MiB available memory on the node where the printing process lives
     GPU memory used/free/total (MiB): 7532 / 8748 / 16280
------------------
     ethr =  1.63E-05,  avg # of iterations =  4.8

     negative rho (up, down):  1.487E-02 1.617E-02

     total cpu time spent up to now is      145.9 secs

     total energy              =    -511.45742406 Ry
     estimated scf accuracy    <       0.00198334 Ry

     total magnetization       =    12.00 Bohr mag/cell
     absolute magnetization    =    14.88 Bohr mag/cell
[tb_dev] Currently allocated     1.09E+01 Mbytes, locked:    0 /   8
[tb_pin] Currently allocated     0.00E+00 Mbytes, locked:    0 /   0

     iteration # 20     ecut=    90.00 Ry     beta= 0.40
     Davidson diagonalization with overlap

---- Real-time Memory Report at c_bands before calling an iterative solver
          3415 MiB given to the printing process from OS
         -1576 MiB allocation reported by mallinfo(arena+hblkhd)
         55978 MiB available memory on the node where the printing process lives
     GPU memory used/free/total (MiB): 7532 / 8748 / 16280
------------------
     c_bands:  1 eigenvalues not converged
     c_bands:  2 eigenvalues not converged
     c_bands:  3 eigenvalues not converged
     c_bands:  3 eigenvalues not converged
     ethr =  3.31E-06,  avg # of iterations =  9.7

     negative rho (up, down):  1.481E-02 1.622E-02

     total cpu time spent up to now is      155.3 secs

     total energy              =    -511.46065539 Ry
     estimated scf accuracy    <       0.00693696 Ry

     total magnetization       =    12.00 Bohr mag/cell
     absolute magnetization    =    14.50 Bohr mag/cell
[tb_dev] Currently allocated     1.09E+01 Mbytes, locked:    0 /   8
[tb_pin] Currently allocated     0.00E+00 Mbytes, locked:    0 /   0

     iteration # 21     ecut=    90.00 Ry     beta= 0.40
     Davidson diagonalization with overlap

---- Real-time Memory Report at c_bands before calling an iterative solver
          3416 MiB given to the printing process from OS
         -1620 MiB allocation reported by mallinfo(arena+hblkhd)
         55971 MiB available memory on the node where the printing process lives
     GPU memory used/free/total (MiB): 7532 / 8748 / 16280
------------------
     c_bands:  1 eigenvalues not converged
     c_bands:  3 eigenvalues not converged
     ethr =  3.31E-06,  avg # of iterations =  8.0

     negative rho (up, down):  1.480E-02 1.624E-02

     total cpu time spent up to now is      164.1 secs

     total energy              =    -511.46224242 Ry
     estimated scf accuracy    <       0.03340789 Ry

     total magnetization       =    12.00 Bohr mag/cell
     absolute magnetization    =    14.22 Bohr mag/cell
[tb_dev] Currently allocated     1.09E+01 Mbytes, locked:    0 /   8
[tb_pin] Currently allocated     0.00E+00 Mbytes, locked:    0 /   0

     iteration # 22     ecut=    90.00 Ry     beta= 0.40
     Davidson diagonalization with overlap

---- Real-time Memory Report at c_bands before calling an iterative solver
          3419 MiB given to the printing process from OS
         -1572 MiB allocation reported by mallinfo(arena+hblkhd)
         55974 MiB available memory on the node where the printing process lives
     GPU memory used/free/total (MiB): 7532 / 8748 / 16280
------------------
     ethr =  3.31E-06,  avg # of iterations =  1.1

     negative rho (up, down):  1.479E-02 1.625E-02

     total cpu time spent up to now is      169.9 secs

     total energy              =    -511.46210560 Ry
     estimated scf accuracy    <       0.03528992 Ry

     total magnetization       =    12.00 Bohr mag/cell
     absolute magnetization    =    14.22 Bohr mag/cell
[tb_dev] Currently allocated     1.09E+01 Mbytes, locked:    0 /   8
[tb_pin] Currently allocated     0.00E+00 Mbytes, locked:    0 /   0

     iteration # 23     ecut=    90.00 Ry     beta= 0.40
     Davidson diagonalization with overlap

---- Real-time Memory Report at c_bands before calling an iterative solver
          3422 MiB given to the printing process from OS
         -1616 MiB allocation reported by mallinfo(arena+hblkhd)
         55972 MiB available memory on the node where the printing process lives
     GPU memory used/free/total (MiB): 7532 / 8748 / 16280
------------------
     ethr =  3.31E-06,  avg # of iterations =  1.0

     negative rho (up, down):  1.481E-02 1.627E-02

     total cpu time spent up to now is      175.7 secs

     total energy              =    -511.46285100 Ry
     estimated scf accuracy    <       0.03561611 Ry

     total magnetization       =    12.00 Bohr mag/cell
     absolute magnetization    =    14.22 Bohr mag/cell
[tb_dev] Currently allocated     1.09E+01 Mbytes, locked:    0 /   8
[tb_pin] Currently allocated     0.00E+00 Mbytes, locked:    0 /   0

     iteration # 24     ecut=    90.00 Ry     beta= 0.40
     Davidson diagonalization with overlap

---- Real-time Memory Report at c_bands before calling an iterative solver
          3428 MiB given to the printing process from OS
         -1568 MiB allocation reported by mallinfo(arena+hblkhd)
         55963 MiB available memory on the node where the printing process lives
     GPU memory used/free/total (MiB): 7532 / 8748 / 16280
------------------
     ethr =  3.31E-06,  avg # of iterations =  2.3

     negative rho (up, down):  1.480E-02 1.632E-02

     total cpu time spent up to now is      182.1 secs

     total energy              =    -511.46397845 Ry
     estimated scf accuracy    <       0.03909680 Ry

     total magnetization       =    12.00 Bohr mag/cell
     absolute magnetization    =    14.20 Bohr mag/cell
[tb_dev] Currently allocated     1.09E+01 Mbytes, locked:    0 /   8
[tb_pin] Currently allocated     0.00E+00 Mbytes, locked:    0 /   0

     iteration # 25     ecut=    90.00 Ry     beta= 0.40
     Davidson diagonalization with overlap

---- Real-time Memory Report at c_bands before calling an iterative solver
          3431 MiB given to the printing process from OS
         -1612 MiB allocation reported by mallinfo(arena+hblkhd)
         55969 MiB available memory on the node where the printing process lives
     GPU memory used/free/total (MiB): 7532 / 8748 / 16280
------------------
     c_bands:  1 eigenvalues not converged
     ethr =  3.31E-06,  avg # of iterations =  5.1

     negative rho (up, down):  1.478E-02 1.633E-02

     total cpu time spent up to now is      189.5 secs

     total energy              =    -511.46557013 Ry
     estimated scf accuracy    <       0.06767893 Ry

     total magnetization       =    12.00 Bohr mag/cell
     absolute magnetization    =    14.01 Bohr mag/cell
[tb_dev] Currently allocated     1.09E+01 Mbytes, locked:    0 /   8
[tb_pin] Currently allocated     0.00E+00 Mbytes, locked:    0 /   0

     iteration # 26     ecut=    90.00 Ry     beta= 0.40
     Davidson diagonalization with overlap

---- Real-time Memory Report at c_bands before calling an iterative solver
          3431 MiB given to the printing process from OS
         -1564 MiB allocation reported by mallinfo(arena+hblkhd)
         55964 MiB available memory on the node where the printing process lives
     GPU memory used/free/total (MiB): 7532 / 8748 / 16280
------------------
     ethr =  3.31E-06,  avg # of iterations =  3.8

     negative rho (up, down):  1.484E-02 1.629E-02

     total cpu time spent up to now is      196.3 secs

     total energy              =    -511.46326802 Ry
     estimated scf accuracy    <       0.08274816 Ry

     total magnetization       =    12.00 Bohr mag/cell
     absolute magnetization    =    13.93 Bohr mag/cell
[tb_dev] Currently allocated     1.09E+01 Mbytes, locked:    0 /   8
[tb_pin] Currently allocated     0.00E+00 Mbytes, locked:    0 /   0

     iteration # 27     ecut=    90.00 Ry     beta= 0.40
     Davidson diagonalization with overlap

---- Real-time Memory Report at c_bands before calling an iterative solver
          3434 MiB given to the printing process from OS
         -1608 MiB allocation reported by mallinfo(arena+hblkhd)
         55962 MiB available memory on the node where the printing process lives
     GPU memory used/free/total (MiB): 7532 / 8748 / 16280
------------------
     ethr =  3.31E-06,  avg # of iterations =  1.3

     negative rho (up, down):  1.480E-02 1.632E-02

     total cpu time spent up to now is      202.2 secs

     total energy              =    -511.46527210 Ry
     estimated scf accuracy    <       0.07146563 Ry

     total magnetization       =    12.00 Bohr mag/cell
     absolute magnetization    =    13.92 Bohr mag/cell
[tb_dev] Currently allocated     1.09E+01 Mbytes, locked:    0 /   8
[tb_pin] Currently allocated     0.00E+00 Mbytes, locked:    0 /   0

     iteration # 28     ecut=    90.00 Ry     beta= 0.40
     Davidson diagonalization with overlap

---- Real-time Memory Report at c_bands before calling an iterative solver
          3437 MiB given to the printing process from OS
         -1560 MiB allocation reported by mallinfo(arena+hblkhd)
         55954 MiB available memory on the node where the printing process lives
     GPU memory used/free/total (MiB): 7532 / 8748 / 16280
------------------
     ethr =  3.31E-06,  avg # of iterations =  1.1

     negative rho (up, down):  1.484E-02 1.627E-02

     total cpu time spent up to now is      208.0 secs

     total energy              =    -511.46227480 Ry
     estimated scf accuracy    <       0.07880755 Ry

     total magnetization       =    12.00 Bohr mag/cell
     absolute magnetization    =    13.93 Bohr mag/cell
[tb_dev] Currently allocated     1.09E+01 Mbytes, locked:    0 /   8
[tb_pin] Currently allocated     0.00E+00 Mbytes, locked:    0 /   0

     iteration # 29     ecut=    90.00 Ry     beta= 0.40
     Davidson diagonalization with overlap

---- Real-time Memory Report at c_bands before calling an iterative solver
          3439 MiB given to the printing process from OS
         -1604 MiB allocation reported by mallinfo(arena+hblkhd)
         55960 MiB available memory on the node where the printing process lives
     GPU memory used/free/total (MiB): 7532 / 8748 / 16280
------------------
     ethr =  3.31E-06,  avg # of iterations =  3.6

     negative rho (up, down):  1.482E-02 1.622E-02

     total cpu time spent up to now is      214.8 secs

     total energy              =    -511.46125549 Ry
     estimated scf accuracy    <       0.06058739 Ry

     total magnetization       =    12.00 Bohr mag/cell
     absolute magnetization    =    14.01 Bohr mag/cell
[tb_dev] Currently allocated     1.09E+01 Mbytes, locked:    0 /   8
[tb_pin] Currently allocated     0.00E+00 Mbytes, locked:    0 /   0

     iteration # 30     ecut=    90.00 Ry     beta= 0.40
     Davidson diagonalization with overlap

---- Real-time Memory Report at c_bands before calling an iterative solver
          3439 MiB given to the printing process from OS
         -1556 MiB allocation reported by mallinfo(arena+hblkhd)
         55956 MiB available memory on the node where the printing process lives
     GPU memory used/free/total (MiB): 7532 / 8748 / 16280
------------------
     ethr =  3.31E-06,  avg # of iterations =  3.7

     negative rho (up, down):  1.480E-02 1.625E-02

     total cpu time spent up to now is      221.5 secs

     total energy              =    -511.46213089 Ry
     estimated scf accuracy    <       0.05222314 Ry

     total magnetization       =    12.00 Bohr mag/cell
     absolute magnetization    =    14.09 Bohr mag/cell
[tb_dev] Currently allocated     1.09E+01 Mbytes, locked:    0 /   8
[tb_pin] Currently allocated     0.00E+00 Mbytes, locked:    0 /   0

     iteration # 31     ecut=    90.00 Ry     beta= 0.40
     Davidson diagonalization with overlap

---- Real-time Memory Report at c_bands before calling an iterative solver
          3439 MiB given to the printing process from OS
         -1600 MiB allocation reported by mallinfo(arena+hblkhd)
         55954 MiB available memory on the node where the printing process lives
     GPU memory used/free/total (MiB): 7532 / 8748 / 16280
------------------
     ethr =  3.31E-06,  avg # of iterations =  1.0

     negative rho (up, down):  1.482E-02 1.620E-02

     total cpu time spent up to now is      227.4 secs

     total energy              =    -511.46233867 Ry
     estimated scf accuracy    <       0.05564360 Ry

     total magnetization       =    12.00 Bohr mag/cell
     absolute magnetization    =    14.10 Bohr mag/cell
[tb_dev] Currently allocated     1.09E+01 Mbytes, locked:    0 /   8
[tb_pin] Currently allocated     0.00E+00 Mbytes, locked:    0 /   0

     iteration # 32     ecut=    90.00 Ry     beta= 0.40
     Davidson diagonalization with overlap

---- Real-time Memory Report at c_bands before calling an iterative solver
          3445 MiB given to the printing process from OS
         -1552 MiB allocation reported by mallinfo(arena+hblkhd)
         55943 MiB available memory on the node where the printing process lives
     GPU memory used/free/total (MiB): 7532 / 8748 / 16280
------------------
     ethr =  3.31E-06,  avg # of iterations =  1.0

     negative rho (up, down):  1.483E-02 1.619E-02

     total cpu time spent up to now is      233.1 secs

     total energy              =    -511.45862105 Ry
     estimated scf accuracy    <       0.05620103 Ry

     total magnetization       =    12.00 Bohr mag/cell
     absolute magnetization    =    14.11 Bohr mag/cell
[tb_dev] Currently allocated     1.09E+01 Mbytes, locked:    0 /   8
[tb_pin] Currently allocated     0.00E+00 Mbytes, locked:    0 /   0

     iteration # 33     ecut=    90.00 Ry     beta= 0.40
     Davidson diagonalization with overlap

---- Real-time Memory Report at c_bands before calling an iterative solver
          3448 MiB given to the printing process from OS
         -1596 MiB allocation reported by mallinfo(arena+hblkhd)
         55952 MiB available memory on the node where the printing process lives
     GPU memory used/free/total (MiB): 7532 / 8748 / 16280
------------------
     ethr =  3.31E-06,  avg # of iterations =  5.2

     negative rho (up, down):  1.485E-02 1.624E-02

     total cpu time spent up to now is      240.9 secs

     total energy              =    -511.45919269 Ry
     estimated scf accuracy    <       0.02612386 Ry

     total magnetization       =    12.00 Bohr mag/cell
     absolute magnetization    =    14.31 Bohr mag/cell
[tb_dev] Currently allocated     1.09E+01 Mbytes, locked:    0 /   8
[tb_pin] Currently allocated     0.00E+00 Mbytes, locked:    0 /   0

     iteration # 34     ecut=    90.00 Ry     beta= 0.40
     Davidson diagonalization with overlap

---- Real-time Memory Report at c_bands before calling an iterative solver
          3448 MiB given to the printing process from OS
         -1548 MiB allocation reported by mallinfo(arena+hblkhd)
         55948 MiB available memory on the node where the printing process lives
     GPU memory used/free/total (MiB): 7532 / 8748 / 16280
------------------
     ethr =  3.31E-06,  avg # of iterations =  4.8

     negative rho (up, down):  1.493E-02 1.620E-02

     total cpu time spent up to now is      247.9 secs

     total energy              =    -511.45548609 Ry
     estimated scf accuracy    <       0.02283169 Ry

     total magnetization       =    12.00 Bohr mag/cell
     absolute magnetization    =    14.30 Bohr mag/cell
[tb_dev] Currently allocated     1.09E+01 Mbytes, locked:    0 /   8
[tb_pin] Currently allocated     0.00E+00 Mbytes, locked:    0 /   0

     iteration # 35     ecut=    90.00 Ry     beta= 0.40
     Davidson diagonalization with overlap

---- Real-time Memory Report at c_bands before calling an iterative solver
          3448 MiB given to the printing process from OS
         -1592 MiB allocation reported by mallinfo(arena+hblkhd)
         55947 MiB available memory on the node where the printing process lives
     GPU memory used/free/total (MiB): 7532 / 8748 / 16280
------------------
     c_bands:  1 eigenvalues not converged
     c_bands:  2 eigenvalues not converged
     c_bands:  4 eigenvalues not converged
     c_bands:  2 eigenvalues not converged
     c_bands:  2 eigenvalues not converged
     c_bands:  2 eigenvalues not converged
     c_bands:  1 eigenvalues not converged
     c_bands:  3 eigenvalues not converged
     c_bands:  2 eigenvalues not converged
     c_bands:  1 eigenvalues not converged
     c_bands:  2 eigenvalues not converged
     c_bands:  1 eigenvalues not converged
     c_bands:  2 eigenvalues not converged
     c_bands:  3 eigenvalues not converged
     c_bands:  2 eigenvalues not converged
     c_bands:  2 eigenvalues not converged
     c_bands:  2 eigenvalues not converged
     c_bands:  4 eigenvalues not converged
     c_bands:  1 eigenvalues not converged
     c_bands:  1 eigenvalues not converged
     ethr =  3.31E-06,  avg # of iterations = 12.9

     negative rho (up, down):  1.477E-02 1.635E-02

     total cpu time spent up to now is      259.4 secs

     total energy              =    -511.45367300 Ry
     estimated scf accuracy    <       0.00319081 Ry

     total magnetization       =    12.00 Bohr mag/cell
     absolute magnetization    =    14.86 Bohr mag/cell
[tb_dev] Currently allocated     1.09E+01 Mbytes, locked:    0 /   8
[tb_pin] Currently allocated     0.00E+00 Mbytes, locked:    0 /   0

     iteration # 36     ecut=    90.00 Ry     beta= 0.40
     Davidson diagonalization with overlap

---- Real-time Memory Report at c_bands before calling an iterative solver
          3448 MiB given to the printing process from OS
         -1544 MiB allocation reported by mallinfo(arena+hblkhd)
         55944 MiB available memory on the node where the printing process lives
     GPU memory used/free/total (MiB): 7532 / 8748 / 16280
------------------
     c_bands:  3 eigenvalues not converged
     c_bands:  2 eigenvalues not converged
     c_bands:  2 eigenvalues not converged
     c_bands:  5 eigenvalues not converged
     c_bands:  3 eigenvalues not converged
     c_bands:  5 eigenvalues not converged
     c_bands:  2 eigenvalues not converged
     c_bands:  4 eigenvalues not converged
     c_bands:  4 eigenvalues not converged
     c_bands:  2 eigenvalues not converged
     c_bands:  3 eigenvalues not converged
     c_bands:  5 eigenvalues not converged
     c_bands:  2 eigenvalues not converged
     c_bands:  2 eigenvalues not converged
     c_bands:  3 eigenvalues not converged
     c_bands:  2 eigenvalues not converged
     c_bands:  2 eigenvalues not converged
     c_bands:  2 eigenvalues not converged
     c_bands:  1 eigenvalues not converged
     c_bands:  2 eigenvalues not converged
     c_bands:  4 eigenvalues not converged
     c_bands:  4 eigenvalues not converged
     c_bands:  3 eigenvalues not converged
     c_bands:  5 eigenvalues not converged
     c_bands:  1 eigenvalues not converged
     ethr =  3.31E-06,  avg # of iterations = 15.5

     negative rho (up, down):  1.493E-02 1.621E-02

     total cpu time spent up to now is      273.6 secs

     total energy              =    -511.44770397 Ry
     estimated scf accuracy    <       0.09980742 Ry

     total magnetization       =    12.00 Bohr mag/cell
     absolute magnetization    =    13.85 Bohr mag/cell
[tb_dev] Currently allocated     1.09E+01 Mbytes, locked:    0 /   8
[tb_pin] Currently allocated     0.00E+00 Mbytes, locked:    0 /   0

     iteration # 37     ecut=    90.00 Ry     beta= 0.40
     Davidson diagonalization with overlap

---- Real-time Memory Report at c_bands before calling an iterative solver
          3449 MiB given to the printing process from OS
         -1588 MiB allocation reported by mallinfo(arena+hblkhd)
         55942 MiB available memory on the node where the printing process lives
     GPU memory used/free/total (MiB): 7532 / 8748 / 16280
------------------
     c_bands:  3 eigenvalues not converged
     c_bands:  3 eigenvalues not converged
     c_bands:  2 eigenvalues not converged
     c_bands:  5 eigenvalues not converged
     c_bands:  4 eigenvalues not converged
     c_bands:  5 eigenvalues not converged
     c_bands:  5 eigenvalues not converged
     c_bands:  5 eigenvalues not converged
     c_bands:  4 eigenvalues not converged
     c_bands:  3 eigenvalues not converged
     c_bands:  2 eigenvalues not converged
     c_bands:  3 eigenvalues not converged
     c_bands:  2 eigenvalues not converged
     c_bands:  2 eigenvalues not converged
     c_bands:  3 eigenvalues not converged
     c_bands:  2 eigenvalues not converged
     c_bands:  4 eigenvalues not converged
     c_bands:  3 eigenvalues not converged
     c_bands:  5 eigenvalues not converged
     c_bands:  1 eigenvalues not converged
     c_bands:  4 eigenvalues not converged
     c_bands:  4 eigenvalues not converged
     c_bands:  3 eigenvalues not converged
     c_bands:  1 eigenvalues not converged
     ethr =  3.31E-06,  avg # of iterations = 14.1

     negative rho (up, down):  1.494E-02 1.621E-02

     total cpu time spent up to now is      286.8 secs

     total energy              =    -511.46157691 Ry
     estimated scf accuracy    <       0.02267098 Ry

     total magnetization       =    12.00 Bohr mag/cell
     absolute magnetization    =    15.10 Bohr mag/cell
[tb_dev] Currently allocated     1.09E+01 Mbytes, locked:    0 /   8
[tb_pin] Currently allocated     0.00E+00 Mbytes, locked:    0 /   0

     iteration # 38     ecut=    90.00 Ry     beta= 0.40
     Davidson diagonalization with overlap

---- Real-time Memory Report at c_bands before calling an iterative solver
          3456 MiB given to the printing process from OS
         -1540 MiB allocation reported by mallinfo(arena+hblkhd)
         55934 MiB available memory on the node where the printing process lives
     GPU memory used/free/total (MiB): 7532 / 8748 / 16280
------------------
     c_bands:  1 eigenvalues not converged
     c_bands:  1 eigenvalues not converged
     ethr =  3.31E-06,  avg # of iterations =  4.8

     negative rho (up, down):  1.492E-02 1.623E-02

     total cpu time spent up to now is      293.8 secs

     total energy              =    -511.46237440 Ry
     estimated scf accuracy    <       0.03134696 Ry

     total magnetization       =    12.00 Bohr mag/cell
     absolute magnetization    =    15.21 Bohr mag/cell
[tb_dev] Currently allocated     1.09E+01 Mbytes, locked:    0 /   8
[tb_pin] Currently allocated     0.00E+00 Mbytes, locked:    0 /   0

     iteration # 39     ecut=    90.00 Ry     beta= 0.40
     Davidson diagonalization with overlap

---- Real-time Memory Report at c_bands before calling an iterative solver
          3459 MiB given to the printing process from OS
         -1584 MiB allocation reported by mallinfo(arena+hblkhd)
         55938 MiB available memory on the node where the printing process lives
     GPU memory used/free/total (MiB): 7532 / 8748 / 16280
------------------
     ethr =  3.31E-06,  avg # of iterations =  1.5

     negative rho (up, down):  1.486E-02 1.624E-02

     total cpu time spent up to now is      299.7 secs

     total energy              =    -511.45847665 Ry
     estimated scf accuracy    <       0.03206286 Ry

     total magnetization       =    12.00 Bohr mag/cell
     absolute magnetization    =    15.21 Bohr mag/cell
[tb_dev] Currently allocated     1.09E+01 Mbytes, locked:    0 /   8
[tb_pin] Currently allocated     0.00E+00 Mbytes, locked:    0 /   0

     iteration # 40     ecut=    90.00 Ry     beta= 0.40
     Davidson diagonalization with overlap

---- Real-time Memory Report at c_bands before calling an iterative solver
          3459 MiB given to the printing process from OS
         -1536 MiB allocation reported by mallinfo(arena+hblkhd)
         55936 MiB available memory on the node where the printing process lives
     GPU memory used/free/total (MiB): 7532 / 8748 / 16280
------------------
     ethr =  3.31E-06,  avg # of iterations =  5.6

     negative rho (up, down):  1.496E-02 1.620E-02

     total cpu time spent up to now is      307.6 secs

     total energy              =    -511.46057985 Ry
     estimated scf accuracy    <       0.00339491 Ry

     total magnetization       =    12.00 Bohr mag/cell
     absolute magnetization    =    14.88 Bohr mag/cell
[tb_dev] Currently allocated     1.09E+01 Mbytes, locked:    0 /   8
[tb_pin] Currently allocated     0.00E+00 Mbytes, locked:    0 /   0

     iteration # 41     ecut=    90.00 Ry     beta= 0.40
     Davidson diagonalization with overlap

---- Real-time Memory Report at c_bands before calling an iterative solver
          3462 MiB given to the printing process from OS
         -1580 MiB allocation reported by mallinfo(arena+hblkhd)
         55935 MiB available memory on the node where the printing process lives
     GPU memory used/free/total (MiB): 7532 / 8748 / 16280
------------------
     ethr =  3.31E-06,  avg # of iterations =  5.2

     negative rho (up, down):  1.493E-02 1.621E-02

     total cpu time spent up to now is      314.9 secs

     total energy              =    -511.46081400 Ry
     estimated scf accuracy    <       0.01323451 Ry

     total magnetization       =    12.00 Bohr mag/cell
     absolute magnetization    =    14.99 Bohr mag/cell
[tb_dev] Currently allocated     1.09E+01 Mbytes, locked:    0 /   8
[tb_pin] Currently allocated     0.00E+00 Mbytes, locked:    0 /   0

     iteration # 42     ecut=    90.00 Ry     beta= 0.40
     Davidson diagonalization with overlap

---- Real-time Memory Report at c_bands before calling an iterative solver
          3462 MiB given to the printing process from OS
         -1532 MiB allocation reported by mallinfo(arena+hblkhd)
         55932 MiB available memory on the node where the printing process lives
     GPU memory used/free/total (MiB): 7532 / 8748 / 16280
------------------
     ethr =  3.31E-06,  avg # of iterations =  3.2

     negative rho (up, down):  1.495E-02 1.620E-02

     total cpu time spent up to now is      321.3 secs

     total energy              =    -511.46083136 Ry
     estimated scf accuracy    <       0.01112033 Ry

     total magnetization       =    12.00 Bohr mag/cell
     absolute magnetization    =    15.00 Bohr mag/cell
[tb_dev] Currently allocated     1.09E+01 Mbytes, locked:    0 /   8
[tb_pin] Currently allocated     0.00E+00 Mbytes, locked:    0 /   0

     iteration # 43     ecut=    90.00 Ry     beta= 0.40
     Davidson diagonalization with overlap

---- Real-time Memory Report at c_bands before calling an iterative solver
          3462 MiB given to the printing process from OS
         -1576 MiB allocation reported by mallinfo(arena+hblkhd)
         55928 MiB available memory on the node where the printing process lives
     GPU memory used/free/total (MiB): 7532 / 8748 / 16280
------------------
     ethr =  3.31E-06,  avg # of iterations =  3.1

     negative rho (up, down):  1.492E-02 1.623E-02

     total cpu time spent up to now is      327.7 secs

     total energy              =    -511.46016250 Ry
     estimated scf accuracy    <       0.01382912 Ry

     total magnetization       =    12.00 Bohr mag/cell
     absolute magnetization    =    15.01 Bohr mag/cell
[tb_dev] Currently allocated     1.09E+01 Mbytes, locked:    0 /   8
[tb_pin] Currently allocated     0.00E+00 Mbytes, locked:    0 /   0

     iteration # 44     ecut=    90.00 Ry     beta= 0.40
     Davidson diagonalization with overlap

---- Real-time Memory Report at c_bands before calling an iterative solver
          3463 MiB given to the printing process from OS
         -1528 MiB allocation reported by mallinfo(arena+hblkhd)
         55928 MiB available memory on the node where the printing process lives
     GPU memory used/free/total (MiB): 7532 / 8748 / 16280
------------------
     ethr =  3.31E-06,  avg # of iterations =  3.8

     negative rho (up, down):  1.495E-02 1.621E-02

     total cpu time spent up to now is      334.8 secs

     total energy              =    -511.45976200 Ry
     estimated scf accuracy    <       0.00778885 Ry

     total magnetization       =    12.00 Bohr mag/cell
     absolute magnetization    =    14.98 Bohr mag/cell
[tb_dev] Currently allocated     1.09E+01 Mbytes, locked:    0 /   8
[tb_pin] Currently allocated     0.00E+00 Mbytes, locked:    0 /   0

     iteration # 45     ecut=    90.00 Ry     beta= 0.40
     Davidson diagonalization with overlap

---- Real-time Memory Report at c_bands before calling an iterative solver
[...]
[tb_pin] Currently allocated     0.00E+00 Mbytes, locked:    0 /   0

     iteration # 70     ecut=    90.00 Ry     beta= 0.40
     Davidson diagonalization with overlap

---- Real-time Memory Report at c_bands before calling an iterative solver
          3522 MiB given to the printing process from OS
         -1476 MiB allocation reported by mallinfo(arena+hblkhd)
         55863 MiB available memory on the node where the printing process lives
     GPU memory used/free/total (MiB): 7532 / 8748 / 16280
------------------
     ethr =  1.62E-06,  avg # of iterations =  1.4

     negative rho (up, down):  1.488E-02 1.621E-02

     total cpu time spent up to now is      607.2 secs

     total energy              =    -511.45893780 Ry
     estimated scf accuracy    <       0.00559340 Ry

     total magnetization       =    12.00 Bohr mag/cell
     absolute magnetization    =    14.94 Bohr mag/cell
[tb_dev] Currently allocated     1.09E+01 Mbytes, locked:    0 /   8
[tb_pin] Currently allocated     0.00E+00 Mbytes, locked:    0 /   0

     iteration # 71     ecut=    90.00 Ry     beta= 0.40
     Davidson diagonalization with overlap

---- Real-time Memory Report at c_bands before calling an iterative solver
          3523 MiB given to the printing process from OS
         -1520 MiB allocation reported by mallinfo(arena+hblkhd)
         55867 MiB available memory on the node where the printing process lives
     GPU memory used/free/total (MiB): 7532 / 8748 / 16280
------------------
     ethr =  1.62E-06,  avg # of iterations =  4.9

     negative rho (up, down):  1.486E-02 1.624E-02

     total cpu time spent up to now is      614.6 secs

     total energy              =    -511.45945708 Ry
     estimated scf accuracy    <       0.00441715 Ry

     total magnetization       =    12.00 Bohr mag/cell
     absolute magnetization    =    14.88 Bohr mag/cell
[tb_dev] Currently allocated     1.09E+01 Mbytes, locked:    0 /   8
[tb_pin] Currently allocated     0.00E+00 Mbytes, locked:    0 /   0

     iteration # 72     ecut=    90.00 Ry     beta= 0.40
     Davidson diagonalization with overlap

---- Real-time Memory Report at c_bands before calling an iterative solver
          3523 MiB given to the printing process from OS
         -1472 MiB allocation reported by mallinfo(arena+hblkhd)
         55866 MiB available memory on the node where the printing process lives
     GPU memory used/free/total (MiB): 7532 / 8748 / 16280
------------------
     ethr =  1.62E-06,  avg # of iterations =  5.3

     negative rho (up, down):  1.486E-02 1.623E-02

     total cpu time spent up to now is      622.1 secs

     total energy              =    -511.45833788 Ry
     estimated scf accuracy    <       0.00104664 Ry

     total magnetization       =    12.00 Bohr mag/cell
     absolute magnetization    =    14.75 Bohr mag/cell
[tb_dev] Currently allocated     1.09E+01 Mbytes, locked:    0 /   8
[tb_pin] Currently allocated     0.00E+00 Mbytes, locked:    0 /   0

     iteration # 73     ecut=    90.00 Ry     beta= 0.40
     Davidson diagonalization with overlap

---- Real-time Memory Report at c_bands before calling an iterative solver
          3523 MiB given to the printing process from OS
         -1516 MiB allocation reported by mallinfo(arena+hblkhd)
         55866 MiB available memory on the node where the printing process lives
     GPU memory used/free/total (MiB): 7532 / 8748 / 16280
------------------
     c_bands:  1 eigenvalues not converged
     c_bands:  2 eigenvalues not converged
     c_bands:  1 eigenvalues not converged
     c_bands:  1 eigenvalues not converged
     c_bands:  1 eigenvalues not converged
     c_bands:  1 eigenvalues not converged
     ethr =  1.62E-06,  avg # of iterations =  7.3

     negative rho (up, down):  1.487E-02 1.622E-02

     total cpu time spent up to now is      630.6 secs

     total energy              =    -511.45871109 Ry
     estimated scf accuracy    <       0.00282295 Ry

     total magnetization       =    12.00 Bohr mag/cell
     absolute magnetization    =    14.62 Bohr mag/cell
[tb_dev] Currently allocated     1.09E+01 Mbytes, locked:    0 /   8
[tb_pin] Currently allocated     0.00E+00 Mbytes, locked:    0 /   0

     iteration # 74     ecut=    90.00 Ry     beta= 0.40
     Davidson diagonalization with overlap

---- Real-time Memory Report at c_bands before calling an iterative solver
          3524 MiB given to the printing process from OS
         -1468 MiB allocation reported by mallinfo(arena+hblkhd)
         55863 MiB available memory on the node where the printing process lives
     GPU memory used/free/total (MiB): 7532 / 8748 / 16280
------------------
     ethr =  1.62E-06,  avg # of iterations =  3.1

     negative rho (up, down):  1.485E-02 1.626E-02

     total cpu time spent up to now is      637.0 secs

     total energy              =    -511.45716327 Ry
     estimated scf accuracy    <       0.00240960 Ry

     total magnetization       =    12.00 Bohr mag/cell
     absolute magnetization    =    14.63 Bohr mag/cell
[tb_dev] Currently allocated     1.09E+01 Mbytes, locked:    0 /   8
[tb_pin] Currently allocated     0.00E+00 Mbytes, locked:    0 /   0

     iteration # 75     ecut=    90.00 Ry     beta= 0.40
     Davidson diagonalization with overlap

---- Real-time Memory Report at c_bands before calling an iterative solver
          3524 MiB given to the printing process from OS
         -1512 MiB allocation reported by mallinfo(arena+hblkhd)
         55860 MiB available memory on the node where the printing process lives
     GPU memory used/free/total (MiB): 7532 / 8748 / 16280
------------------
     ethr =  1.62E-06,  avg # of iterations =  8.4

     negative rho (up, down):  1.482E-02 1.629E-02

     total cpu time spent up to now is      646.7 secs

     total energy              =    -511.46106297 Ry
     estimated scf accuracy    <       0.00165041 Ry

     total magnetization       =    12.00 Bohr mag/cell
     absolute magnetization    =    14.62 Bohr mag/cell
[tb_dev] Currently allocated     1.09E+01 Mbytes, locked:    0 /   8
[tb_pin] Currently allocated     0.00E+00 Mbytes, locked:    0 /   0

     iteration # 76     ecut=    90.00 Ry     beta= 0.40
     Davidson diagonalization with overlap

---- Real-time Memory Report at c_bands before calling an iterative solver
          3533 MiB given to the printing process from OS
         -1464 MiB allocation reported by mallinfo(arena+hblkhd)
         55854 MiB available memory on the node where the printing process lives
     GPU memory used/free/total (MiB): 7532 / 8748 / 16280
------------------
     ethr =  1.62E-06,  avg # of iterations =  5.8

     negative rho (up, down):  1.485E-02 1.625E-02

     total cpu time spent up to now is      654.9 secs

     total energy              =    -511.46007815 Ry
     estimated scf accuracy    <       0.00663198 Ry

     total magnetization       =    12.00 Bohr mag/cell
     absolute magnetization    =    14.52 Bohr mag/cell
[tb_dev] Currently allocated     1.09E+01 Mbytes, locked:    0 /   8
[tb_pin] Currently allocated     0.00E+00 Mbytes, locked:    0 /   0

     iteration # 77     ecut=    90.00 Ry     beta= 0.40
     Davidson diagonalization with overlap

---- Real-time Memory Report at c_bands before calling an iterative solver
          3536 MiB given to the printing process from OS
         -1508 MiB allocation reported by mallinfo(arena+hblkhd)
         55858 MiB available memory on the node where the printing process lives
     GPU memory used/free/total (MiB): 7532 / 8748 / 16280
------------------
     ethr =  1.62E-06,  avg # of iterations =  5.2

     negative rho (up, down):  1.477E-02 1.634E-02

     total cpu time spent up to now is      662.8 secs

     total energy              =    -511.44542536 Ry
     estimated scf accuracy    <       0.00103987 Ry

     total magnetization       =    12.00 Bohr mag/cell
     absolute magnetization    =    14.63 Bohr mag/cell
[tb_dev] Currently allocated     1.09E+01 Mbytes, locked:    0 /   8
[tb_pin] Currently allocated     0.00E+00 Mbytes, locked:    0 /   0

     iteration # 78     ecut=    90.00 Ry     beta= 0.40
     Davidson diagonalization with overlap

---- Real-time Memory Report at c_bands before calling an iterative solver
          3536 MiB given to the printing process from OS
         -1460 MiB allocation reported by mallinfo(arena+hblkhd)
         55856 MiB available memory on the node where the printing process lives
     GPU memory used/free/total (MiB): 7532 / 8748 / 16280
------------------
     c_bands:  1 eigenvalues not converged
     c_bands:  2 eigenvalues not converged
     c_bands:  1 eigenvalues not converged
     c_bands:  1 eigenvalues not converged
     c_bands:  1 eigenvalues not converged
     c_bands:  3 eigenvalues not converged
     c_bands:  4 eigenvalues not converged
     c_bands:  5 eigenvalues not converged
     c_bands:  3 eigenvalues not converged
     c_bands:  1 eigenvalues not converged
     c_bands:  2 eigenvalues not converged
     c_bands:  5 eigenvalues not converged
     c_bands:  3 eigenvalues not converged
     c_bands:  1 eigenvalues not converged
     c_bands:  5 eigenvalues not converged
     c_bands:  2 eigenvalues not converged
     c_bands:  3 eigenvalues not converged
     c_bands:  3 eigenvalues not converged
     c_bands:  5 eigenvalues not converged
     c_bands:  1 eigenvalues not converged
     c_bands:  1 eigenvalues not converged
     c_bands:  4 eigenvalues not converged
     c_bands:  4 eigenvalues not converged
     c_bands:  2 eigenvalues not converged
     c_bands:  2 eigenvalues not converged
     c_bands:  1 eigenvalues not converged
     c_bands:  2 eigenvalues not converged
     c_bands:  1 eigenvalues not converged
     c_bands:  1 eigenvalues not converged
     c_bands:  1 eigenvalues not converged
     c_bands:  1 eigenvalues not converged
     c_bands:  1 eigenvalues not converged
     c_bands:  1 eigenvalues not converged
     c_bands:  1 eigenvalues not converged
     c_bands:  1 eigenvalues not converged
     c_bands:  1 eigenvalues not converged
     ethr =  1.62E-06,  avg # of iterations = 19.8

     negative rho (up, down):  1.473E-02 1.638E-02

     total cpu time spent up to now is      680.2 secs

     total energy              =    -511.47340172 Ry
     estimated scf accuracy    <       0.03309417 Ry

     total magnetization       =    12.00 Bohr mag/cell
     absolute magnetization    =    14.54 Bohr mag/cell
[tb_dev] Currently allocated     1.09E+01 Mbytes, locked:    0 /   8
[tb_pin] Currently allocated     0.00E+00 Mbytes, locked:    0 /   0

     iteration # 79     ecut=    90.00 Ry     beta= 0.40
     Davidson diagonalization with overlap

---- Real-time Memory Report at c_bands before calling an iterative solver
          3536 MiB given to the printing process from OS
         -1504 MiB allocation reported by mallinfo(arena+hblkhd)
         55856 MiB available memory on the node where the printing process lives
     GPU memory used/free/total (MiB): 7532 / 8748 / 16280
------------------
     c_bands:  2 eigenvalues not converged
     c_bands:  1 eigenvalues not converged
     c_bands:  1 eigenvalues not converged
     c_bands:  2 eigenvalues not converged
     c_bands:  1 eigenvalues not converged
     c_bands:  1 eigenvalues not converged
     c_bands:  2 eigenvalues not converged
     c_bands:  2 eigenvalues not converged
     c_bands:  3 eigenvalues not converged
     c_bands:  4 eigenvalues not converged
     c_bands:  4 eigenvalues not converged
     c_bands:  1 eigenvalues not converged
     c_bands:  2 eigenvalues not converged
     c_bands:  2 eigenvalues not converged
     c_bands:  3 eigenvalues not converged
     c_bands:  1 eigenvalues not converged
     c_bands:  3 eigenvalues not converged
     c_bands:  1 eigenvalues not converged
     c_bands:  2 eigenvalues not converged
     c_bands:  5 eigenvalues not converged
     c_bands:  3 eigenvalues not converged
     c_bands:  1 eigenvalues not converged
     c_bands:  2 eigenvalues not converged
     c_bands:  3 eigenvalues not converged
     ethr =  1.62E-06,  avg # of iterations = 11.9

     negative rho (up, down):  1.483E-02 1.626E-02

     total cpu time spent up to now is      691.8 secs

     total energy              =    -511.40267196 Ry
     estimated scf accuracy    <       0.12272594 Ry

     total magnetization       =    12.00 Bohr mag/cell
     absolute magnetization    =    14.23 Bohr mag/cell
[tb_dev] Currently allocated     1.09E+01 Mbytes, locked:    0 /   8
[tb_pin] Currently allocated     0.00E+00 Mbytes, locked:    0 /   0

     iteration # 80     ecut=    90.00 Ry     beta= 0.40
     Davidson diagonalization with overlap

---- Real-time Memory Report at c_bands before calling an iterative solver
          3536 MiB given to the printing process from OS
         -1456 MiB allocation reported by mallinfo(arena+hblkhd)
         55854 MiB available memory on the node where the printing process lives
     GPU memory used/free/total (MiB): 7532 / 8748 / 16280
------------------
     c_bands:  4 eigenvalues not converged
     c_bands:  2 eigenvalues not converged
     c_bands:  1 eigenvalues not converged
     c_bands:  2 eigenvalues not converged
     c_bands:  1 eigenvalues not converged
     c_bands:  1 eigenvalues not converged
     c_bands:  1 eigenvalues not converged
     c_bands:  1 eigenvalues not converged
     c_bands:  2 eigenvalues not converged
     c_bands:  1 eigenvalues not converged
     c_bands:  1 eigenvalues not converged
     c_bands:  1 eigenvalues not converged
     c_bands:  1 eigenvalues not converged
     c_bands:  5 eigenvalues not converged
     c_bands:  2 eigenvalues not converged
     c_bands:  1 eigenvalues not converged
     c_bands:  4 eigenvalues not converged
     c_bands:  4 eigenvalues not converged
     c_bands:  1 eigenvalues not converged
     c_bands:  1 eigenvalues not converged
     c_bands:  4 eigenvalues not converged
     c_bands:  5 eigenvalues not converged
     c_bands:  1 eigenvalues not converged
     c_bands:  1 eigenvalues not converged
     c_bands:  3 eigenvalues not converged
     c_bands:  3 eigenvalues not converged
     c_bands:  2 eigenvalues not converged
     c_bands:  4 eigenvalues not converged
     c_bands:  1 eigenvalues not converged
     c_bands:  3 eigenvalues not converged
     c_bands:  2 eigenvalues not converged
     ethr =  1.62E-06,  avg # of iterations = 22.7

     negative rho (up, down):  1.489E-02 1.620E-02

     total cpu time spent up to now is      712.5 secs

     total energy              =    -511.45117135 Ry
     estimated scf accuracy    <       0.01101709 Ry

     total magnetization       =    12.00 Bohr mag/cell
     absolute magnetization    =    14.46 Bohr mag/cell

     End of self-consistent calculation

     convergence NOT achieved after  80 iterations: stopping

     Writing config to output data dir ./out/aiida.save/
 
     init_run     :     30.53s CPU      9.53s WALL (       1 calls)
     electrons    :   1340.93s CPU    702.33s WALL (       1 calls)

     Called by init_run:
     wfcinit      :      3.23s CPU      4.09s WALL (       1 calls)
                                        4.09s GPU  (       1 calls)
     wfcinit:atom :      0.02s CPU      0.09s WALL (      58 calls)
                                        0.09s GPU  (      58 calls)
     wfcinit:wfcr :      1.87s CPU      2.37s WALL (      58 calls)
                                        2.37s GPU  (      58 calls)
     potinit      :     11.11s CPU      1.11s WALL (       1 calls)
     hinit0       :      8.44s CPU      2.24s WALL (       1 calls)

     Called by electrons:
     c_bands      :    474.00s CPU    504.02s WALL (      80 calls)
     sum_band     :    102.74s CPU    105.92s WALL (      80 calls)
     v_of_rho     :     96.09s CPU     16.33s WALL (      81 calls)
     v_h          :     24.41s CPU      2.30s WALL (      81 calls)
     v_xc         :     71.68s CPU     14.03s WALL (      81 calls)
     newd         :    184.18s CPU     29.37s WALL (      81 calls)
                                       29.37s GPU  (      81 calls)
     PAW_pot      :    304.00s CPU     27.54s WALL (      81 calls)
     mix_rho      :    127.84s CPU     12.28s WALL (      80 calls)

     Called by c_bands:
     init_us_2    :     10.93s CPU     14.91s WALL (    9338 calls)
     init_us_2:gp :     10.76s CPU     14.75s WALL (    9338 calls)
     cegterg      :    423.83s CPU    447.05s WALL (    4699 calls)

     Called by sum_band:
     sum_band:wei :      0.18s CPU      0.19s WALL (      80 calls)
                                        0.19s GPU  (      80 calls)
     sum_band:loo :     65.54s CPU     68.56s WALL (      80 calls)
                                       68.56s GPU  (      80 calls)
     sum_band:buf :     19.53s CPU     20.04s WALL (    4640 calls)
                                       20.00s GPU  (    4640 calls)
     sum_band:ini :      5.18s CPU      5.92s WALL (    4640 calls)
                                        5.90s GPU  (    4640 calls)
     sum_band:cal :      0.17s CPU      2.95s WALL (    4640 calls)
                                        2.19s GPU  (    4640 calls)
     sum_band:bec :      1.25s CPU      1.34s WALL (    4640 calls)
                                        1.29s GPU  (    4640 calls)
     addusdens    :     25.40s CPU     25.52s WALL (      80 calls)
                                       25.52s GPU  (      80 calls)
     addusd:skk   :      0.07s CPU      0.08s WALL (     240 calls)
                                        0.07s GPU  (     240 calls)

     Called by *egterg:
     cdiaghg      :     87.86s CPU    102.14s WALL (   36272 calls)
                                      101.90s GPU  (   36272 calls)
     cegterg:over :     14.60s CPU     15.20s WALL (   31573 calls)
     cegterg:upda :     12.36s CPU     13.50s WALL (   31573 calls)
     cegterg:last :      8.51s CPU      8.94s WALL (   12893 calls)
     h_psi        :    271.31s CPU    277.46s WALL (   36330 calls)
                                      276.92s GPU  (   36330 calls)
     s_psi        :      4.48s CPU     13.46s WALL (   36330 calls)
                                       12.44s GPU  (   36330 calls)
     g_psi        :      0.22s CPU      1.58s WALL (   31573 calls)
                                        1.37s GPU  (   31573 calls)

     Called by h_psi:
     h_psi:calbec :      1.29s CPU     13.18s WALL (   36330 calls)
                                       12.95s GPU  (   36330 calls)
     vloc_psi     :    239.16s CPU    244.40s WALL (   36330 calls)
                                      244.17s GPU  (   36330 calls)
     add_vuspsi   :      7.75s CPU     15.84s WALL (   36330 calls)
                                       15.62s GPU  (   36330 calls)

     General routines
     calbec       :      1.08s CPU      1.13s WALL (   40970 calls)
     fft          :      9.60s CPU      2.03s WALL (    2023 calls)
                                        1.36s GPU  (    1861 calls)
     ffts         :      0.49s CPU      0.17s WALL (     322 calls)
                                        0.03s GPU  (     160 calls)
     fftw         :      2.61s CPU    201.29s WALL (  131748 calls)
                                      200.13s GPU  (  131748 calls)
     interpolate  :     27.88s CPU      2.42s WALL (     162 calls)
     davcio       :      0.04s CPU      0.60s WALL (      76 calls)
 
     Parallel routines

     PAW routines
     PAW_pot      :    304.00s CPU     27.54s WALL (      81 calls)
     PAW_symme    :      0.77s CPU      0.12s WALL (     161 calls)
 
     PWSCF        :  22m54.36s CPU  11m53.51s WALL

 
   This run was terminated on:  18:35: 3  22Oct2023            

=------------------------------------------------------------------------------=
   JOB DONE.
=------------------------------------------------------------------------------=
