
     Program PWSCF v.7.2 starts on 23Oct2023 at 17:43:26 

     This program is part of the open-source Quantum ESPRESSO suite
     for quantum simulation of materials; please cite
         "P. Giannozzi et al., J. Phys.:Condens. Matter 21 395502 (2009);
         "P. Giannozzi et al., J. Phys.:Condens. Matter 29 465901 (2017);
         "P. Giannozzi et al., J. Chem. Phys. 152 154105 (2020);
          URL http://www.quantum-espresso.org", 
     in publications or presentations arising from this work. More details at
     http://www.quantum-espresso.org/quote

     Parallel version (MPI & OpenMP), running on      12 processor cores
     Number of MPI processes:                 1
     Threads/MPI process:                    12

     MPI processes distributed on     1 nodes
     27290 MiB available memory on the printing compute node when the environment starts
 
     Reading input from aiida.in

     Current dimensions of program PWSCF are:
     Max number of different atomic species (ntypx) = 10
     Max number of k-points (npk) =  40000
     Max angular momentum in pseudopotentials (lmaxx) =  4
     file K.pbesol-spn-kjpaw_psl.1.0.0.UPF: wavefunction(s)  3S renormalized
     Message from routine setup:
     using ibrav=0 with symmetry is DISCOURAGED, use correct ibrav instead
 
     Subspace diagonalization in iterative solution of the eigenvalue problem:
     a serial algorithm will be used

 
     G-vector sticks info
     --------------------
     sticks:   dense  smooth     PW     G-vecs:    dense   smooth      PW
     Sum       10147    5079   1377               714511   252665   35549
 
     Using Slab Decomposition
 


     bravais-lattice index     =            0
     lattice parameter (alat)  =      13.5115  a.u.
     unit-cell volume          =    4023.8238 (a.u.)^3
     number of atoms/cell      =            8
     number of atomic types    =            2
     number of electrons       =        88.00
     number of Kohn-Sham states=           53
     kinetic-energy cutoff     =      60.0000  Ry
     charge density cutoff     =     480.0000  Ry
     scf convergence threshold =      1.6E-09
     mixing beta               =       0.4000
     number of iterations used =            8  plain     mixing
     Exchange-correlation= SLA  PW   PSX  PSC
                           (   1   4  10   8   0   0   0)

     GPU acceleration is ACTIVE.


     GPU used by master process:

        Device Number: 0
        Device name: Tesla P100-PCIE-16GB
        Compute capability : 60
        Ratio of single to double precision performance  : 2
        Memory Clock Rate (KHz): 715000
        Memory Bus Width (bits): 4096
        Peak Memory Bandwidth (GB/s): 732.16

     celldm(1)=  13.511542  celldm(2)=   0.000000  celldm(3)=   0.000000
     celldm(4)=   0.000000  celldm(5)=   0.000000  celldm(6)=   0.000000

     crystal axes: (cart. coord. in units of alat)
               a(1) = (   1.000000   0.000000   0.000000 )  
               a(2) = (   0.000000   1.454545   0.000000 )  
               a(3) = (  -0.349951   0.000000   1.121494 )  

     reciprocal axes: (cart. coord. in units 2 pi/alat)
               b(1) = (  1.000000 -0.000000  0.312040 )  
               b(2) = (  0.000000  0.687500 -0.000000 )  
               b(3) = (  0.000000  0.000000  0.891668 )  


     PseudoPot. # 1 for Co read from file:
     ./pseudo/co_pbesol_v1.2.uspp.F.UPF
     MD5 check sum: 3b4cd4e7cc7df4da9fdede0fd33e2193
     Pseudo is Ultrasoft + core correction, Zval = 17.0
     Generated by new atomic code, or converted to UPF format
     Using radial grid of  863 points,  6 beta functions with: 
                l(1) =   0
                l(2) =   0
                l(3) =   1
                l(4) =   1
                l(5) =   2
                l(6) =   2
     Q(r) pseudized with  8 coefficients,  rinner =    1.200   1.200   1.200
                                                       1.200   1.200

     PseudoPot. # 2 for K  read from file:
     ./pseudo/K.pbesol-spn-kjpaw_psl.1.0.0.UPF
     MD5 check sum: b302bede38c4f5fe00638ceae66f121b
     Pseudo is Projector augmented-wave + core cor, Zval =  9.0
     Generated using "atomic" code by A. Dal Corso  v.6.0 svn rev. 13079
     Shape of augmentation charge: PSQ
     Using radial grid of 1165 points,  6 beta functions with: 
                l(1) =   0
                l(2) =   0
                l(3) =   1
                l(4) =   1
                l(5) =   2
                l(6) =   2
     Q(r) pseudized with 0 coefficients 


     atomic species   valence    mass     pseudopotential
        Co            17.00    58.93319     Co( 1.00)
        K              9.00    39.09830     K ( 1.00)

     Starting magnetic structure 
     atomic species   magnetization
        Co           0.294
        K            0.100

      4 Sym. Ops., with inversion, found ( 2 have fractional translation)


                                    s                        frac. trans.

      isym =  1     identity                                     

 cryst.   s( 1) = (     1          0          0      )
                  (     0          1          0      )
                  (     0          0          1      )

 cart.    s( 1) = (  1.0000000  0.0000000  0.0000000 )
                  (  0.0000000  1.0000000  0.0000000 )
                  (  0.0000000  0.0000000  1.0000000 )


      isym =  2     180 deg rotation - cart. axis [0,1,0]        

 cryst.   s( 2) = (    -1          0          0      )    f =( -0.0000000 )
                  (     0          1          0      )       ( -0.5000000 )
                  (     0          0         -1      )       (  0.5000000 )

 cart.    s( 2) = ( -1.0000000  0.0000000 -0.0000000 )    f =( -0.1749754 )
                  (  0.0000000  1.0000000  0.0000000 )       ( -0.7272727 )
                  (  0.0000000  0.0000000 -1.0000000 )       (  0.5607470 )


      isym =  3     inversion                                    

 cryst.   s( 3) = (    -1          0          0      )
                  (     0         -1          0      )
                  (     0          0         -1      )

 cart.    s( 3) = ( -1.0000000  0.0000000 -0.0000000 )
                  (  0.0000000 -1.0000000  0.0000000 )
                  (  0.0000000  0.0000000 -1.0000000 )


      isym =  4     inv. 180 deg rotation - cart. axis [0,1,0]   

 cryst.   s( 4) = (     1          0          0      )    f =( -0.0000000 )
                  (     0         -1          0      )       (  0.5000000 )
                  (     0          0          1      )       (  0.5000000 )

 cart.    s( 4) = (  1.0000000  0.0000000  0.0000000 )    f =( -0.1749754 )
                  (  0.0000000 -1.0000000  0.0000000 )       (  0.7272727 )
                  (  0.0000000  0.0000000  1.0000000 )       (  0.5607470 )


   Cartesian axes

     site n.     atom                  positions (alat units)
         1           K   tau(   1) = (  -0.1749754   0.0000000   0.5607470  )
         2           K   tau(   2) = (   0.0000000   0.7272727   0.0000000  )
         3           K   tau(   3) = (   0.4562562   1.0909091   0.1401867  )
         4           K   tau(   4) = (   0.3687685   0.3636364   0.4205602  )
         5           K   tau(   5) = (   0.1937931   0.3636364   0.9813072  )
         6           K   tau(   6) = (   0.2812808   1.0909091   0.7009337  )
         7           Co  tau(   7) = (   0.0000000   0.0000000   0.0000000  )
         8           Co  tau(   8) = (  -0.1749754   0.7272727   0.5607470  )

   Crystallographic axes

     site n.     atom                  positions (cryst. coord.)
         1           K   tau(   1) = (  0.0000000  0.0000000  0.5000000  )
         2           K   tau(   2) = (  0.0000000  0.5000000  0.0000000  )
         3           K   tau(   3) = (  0.5000000  0.7500000  0.1250000  )
         4           K   tau(   4) = (  0.5000000  0.2500000  0.3750000  )
         5           K   tau(   5) = (  0.5000000  0.2500000  0.8750000  )
         6           K   tau(   6) = (  0.5000000  0.7500000  0.6250000  )
         7           Co  tau(   7) = (  0.0000000  0.0000000  0.0000000  )
         8           Co  tau(   8) = (  0.0000000  0.5000000  0.5000000  )

     number of k points=    66  Marzari-Vanderbilt smearing, width (Ry)=  0.0100
                       cart. coord. in units 2pi/alat
        k(    1) = (   0.0000000   0.0000000   0.0000000), wk =   0.0047619
        k(    2) = (   0.0000000   0.0000000   0.1486113), wk =   0.0095238
        k(    3) = (   0.0000000   0.0000000   0.2972226), wk =   0.0095238
        k(    4) = (   0.0000000   0.0000000  -0.4458339), wk =   0.0047619
        k(    5) = (   0.0000000   0.1375000   0.0000000), wk =   0.0095238
        k(    6) = (   0.0000000   0.1375000   0.1486113), wk =   0.0190476
        k(    7) = (   0.0000000   0.1375000   0.2972226), wk =   0.0190476
        k(    8) = (   0.0000000   0.1375000  -0.4458339), wk =   0.0095238
        k(    9) = (   0.0000000   0.2750000   0.0000000), wk =   0.0095238
        k(   10) = (   0.0000000   0.2750000   0.1486113), wk =   0.0190476
        k(   11) = (   0.0000000   0.2750000   0.2972226), wk =   0.0190476
        k(   12) = (   0.0000000   0.2750000  -0.4458339), wk =   0.0095238
        k(   13) = (   0.1428571   0.0000000   0.0445771), wk =   0.0095238
        k(   14) = (   0.1428571   0.0000000   0.1931884), wk =   0.0095238
        k(   15) = (   0.1428571   0.0000000   0.3417997), wk =   0.0095238
        k(   16) = (   0.1428571   0.0000000  -0.4012568), wk =   0.0095238
        k(   17) = (   0.1428571   0.0000000  -0.2526455), wk =   0.0095238
        k(   18) = (   0.1428571   0.0000000  -0.1040342), wk =   0.0095238
        k(   19) = (   0.1428571   0.1375000   0.0445771), wk =   0.0190476
        k(   20) = (   0.1428571   0.1375000   0.1931884), wk =   0.0190476
        k(   21) = (   0.1428571   0.1375000   0.3417997), wk =   0.0190476
        k(   22) = (   0.1428571   0.1375000  -0.4012568), wk =   0.0190476
        k(   23) = (   0.1428571   0.1375000  -0.2526455), wk =   0.0190476
        k(   24) = (   0.1428571   0.1375000  -0.1040342), wk =   0.0190476
        k(   25) = (   0.1428571   0.2750000   0.0445771), wk =   0.0190476
        k(   26) = (   0.1428571   0.2750000   0.1931884), wk =   0.0190476
        k(   27) = (   0.1428571   0.2750000   0.3417997), wk =   0.0190476
        k(   28) = (   0.1428571   0.2750000  -0.4012568), wk =   0.0190476
        k(   29) = (   0.1428571   0.2750000  -0.2526455), wk =   0.0190476
        k(   30) = (   0.1428571   0.2750000  -0.1040342), wk =   0.0190476
        k(   31) = (   0.2857143   0.0000000   0.0891542), wk =   0.0095238
        k(   32) = (   0.2857143   0.0000000   0.2377655), wk =   0.0095238
        k(   33) = (   0.2857143   0.0000000   0.3863768), wk =   0.0095238
        k(   34) = (   0.2857143   0.0000000  -0.3566797), wk =   0.0095238
        k(   35) = (   0.2857143   0.0000000  -0.2080684), wk =   0.0095238
        k(   36) = (   0.2857143   0.0000000  -0.0594571), wk =   0.0095238
        k(   37) = (   0.2857143   0.1375000   0.0891542), wk =   0.0190476
        k(   38) = (   0.2857143   0.1375000   0.2377655), wk =   0.0190476
        k(   39) = (   0.2857143   0.1375000   0.3863768), wk =   0.0190476
        k(   40) = (   0.2857143   0.1375000  -0.3566797), wk =   0.0190476
        k(   41) = (   0.2857143   0.1375000  -0.2080684), wk =   0.0190476
        k(   42) = (   0.2857143   0.1375000  -0.0594571), wk =   0.0190476
        k(   43) = (   0.2857143   0.2750000   0.0891542), wk =   0.0190476
        k(   44) = (   0.2857143   0.2750000   0.2377655), wk =   0.0190476
        k(   45) = (   0.2857143   0.2750000   0.3863768), wk =   0.0190476
        k(   46) = (   0.2857143   0.2750000  -0.3566797), wk =   0.0190476
        k(   47) = (   0.2857143   0.2750000  -0.2080684), wk =   0.0190476
        k(   48) = (   0.2857143   0.2750000  -0.0594571), wk =   0.0190476
        k(   49) = (   0.4285714   0.0000000   0.1337313), wk =   0.0095238
        k(   50) = (   0.4285714   0.0000000   0.2823426), wk =   0.0095238
        k(   51) = (   0.4285714   0.0000000   0.4309539), wk =   0.0095238
        k(   52) = (   0.4285714   0.0000000  -0.3121025), wk =   0.0095238
        k(   53) = (   0.4285714   0.0000000  -0.1634912), wk =   0.0095238
        k(   54) = (   0.4285714   0.0000000  -0.0148800), wk =   0.0095238
        k(   55) = (   0.4285714   0.1375000   0.1337313), wk =   0.0190476
        k(   56) = (   0.4285714   0.1375000   0.2823426), wk =   0.0190476
        k(   57) = (   0.4285714   0.1375000   0.4309539), wk =   0.0190476
        k(   58) = (   0.4285714   0.1375000  -0.3121025), wk =   0.0190476
        k(   59) = (   0.4285714   0.1375000  -0.1634912), wk =   0.0190476
        k(   60) = (   0.4285714   0.1375000  -0.0148800), wk =   0.0190476
        k(   61) = (   0.4285714   0.2750000   0.1337313), wk =   0.0190476
        k(   62) = (   0.4285714   0.2750000   0.2823426), wk =   0.0190476
        k(   63) = (   0.4285714   0.2750000   0.4309539), wk =   0.0190476
        k(   64) = (   0.4285714   0.2750000  -0.3121025), wk =   0.0190476
        k(   65) = (   0.4285714   0.2750000  -0.1634912), wk =   0.0190476
        k(   66) = (   0.4285714   0.2750000  -0.0148800), wk =   0.0190476

                       cryst. coord.
        k(    1) = (   0.0000000   0.0000000   0.0000000), wk =   0.0047619
        k(    2) = (   0.0000000   0.0000000   0.1666667), wk =   0.0095238
        k(    3) = (   0.0000000   0.0000000   0.3333333), wk =   0.0095238
        k(    4) = (   0.0000000   0.0000000  -0.5000000), wk =   0.0047619
        k(    5) = (   0.0000000   0.2000000   0.0000000), wk =   0.0095238
        k(    6) = (   0.0000000   0.2000000   0.1666667), wk =   0.0190476
        k(    7) = (   0.0000000   0.2000000   0.3333333), wk =   0.0190476
        k(    8) = (   0.0000000   0.2000000  -0.5000000), wk =   0.0095238
        k(    9) = (   0.0000000   0.4000000   0.0000000), wk =   0.0095238
        k(   10) = (   0.0000000   0.4000000   0.1666667), wk =   0.0190476
        k(   11) = (   0.0000000   0.4000000   0.3333333), wk =   0.0190476
        k(   12) = (   0.0000000   0.4000000  -0.5000000), wk =   0.0095238
        k(   13) = (   0.1428571   0.0000000  -0.0000000), wk =   0.0095238
        k(   14) = (   0.1428571   0.0000000   0.1666667), wk =   0.0095238
        k(   15) = (   0.1428571   0.0000000   0.3333333), wk =   0.0095238
        k(   16) = (   0.1428571   0.0000000  -0.5000000), wk =   0.0095238
        k(   17) = (   0.1428571   0.0000000  -0.3333333), wk =   0.0095238
        k(   18) = (   0.1428571   0.0000000  -0.1666667), wk =   0.0095238
        k(   19) = (   0.1428571   0.2000000  -0.0000000), wk =   0.0190476
        k(   20) = (   0.1428571   0.2000000   0.1666667), wk =   0.0190476
        k(   21) = (   0.1428571   0.2000000   0.3333333), wk =   0.0190476
        k(   22) = (   0.1428571   0.2000000  -0.5000000), wk =   0.0190476
        k(   23) = (   0.1428571   0.2000000  -0.3333333), wk =   0.0190476
        k(   24) = (   0.1428571   0.2000000  -0.1666667), wk =   0.0190476
        k(   25) = (   0.1428571   0.4000000  -0.0000000), wk =   0.0190476
        k(   26) = (   0.1428571   0.4000000   0.1666667), wk =   0.0190476
        k(   27) = (   0.1428571   0.4000000   0.3333333), wk =   0.0190476
        k(   28) = (   0.1428571   0.4000000  -0.5000000), wk =   0.0190476
        k(   29) = (   0.1428571   0.4000000  -0.3333333), wk =   0.0190476
        k(   30) = (   0.1428571   0.4000000  -0.1666667), wk =   0.0190476
        k(   31) = (   0.2857143   0.0000000  -0.0000000), wk =   0.0095238
        k(   32) = (   0.2857143   0.0000000   0.1666667), wk =   0.0095238
        k(   33) = (   0.2857143   0.0000000   0.3333333), wk =   0.0095238
        k(   34) = (   0.2857143   0.0000000  -0.5000000), wk =   0.0095238
        k(   35) = (   0.2857143   0.0000000  -0.3333333), wk =   0.0095238
        k(   36) = (   0.2857143   0.0000000  -0.1666667), wk =   0.0095238
        k(   37) = (   0.2857143   0.2000000  -0.0000000), wk =   0.0190476
        k(   38) = (   0.2857143   0.2000000   0.1666667), wk =   0.0190476
        k(   39) = (   0.2857143   0.2000000   0.3333333), wk =   0.0190476
        k(   40) = (   0.2857143   0.2000000  -0.5000000), wk =   0.0190476
        k(   41) = (   0.2857143   0.2000000  -0.3333333), wk =   0.0190476
        k(   42) = (   0.2857143   0.2000000  -0.1666667), wk =   0.0190476
        k(   43) = (   0.2857143   0.4000000  -0.0000000), wk =   0.0190476
        k(   44) = (   0.2857143   0.4000000   0.1666667), wk =   0.0190476
        k(   45) = (   0.2857143   0.4000000   0.3333333), wk =   0.0190476
        k(   46) = (   0.2857143   0.4000000  -0.5000000), wk =   0.0190476
        k(   47) = (   0.2857143   0.4000000  -0.3333333), wk =   0.0190476
        k(   48) = (   0.2857143   0.4000000  -0.1666667), wk =   0.0190476
        k(   49) = (   0.4285714   0.0000000   0.0000000), wk =   0.0095238
        k(   50) = (   0.4285714   0.0000000   0.1666667), wk =   0.0095238
        k(   51) = (   0.4285714   0.0000000   0.3333333), wk =   0.0095238
        k(   52) = (   0.4285714   0.0000000  -0.5000000), wk =   0.0095238
        k(   53) = (   0.4285714   0.0000000  -0.3333333), wk =   0.0095238
        k(   54) = (   0.4285714   0.0000000  -0.1666667), wk =   0.0095238
        k(   55) = (   0.4285714   0.2000000   0.0000000), wk =   0.0190476
        k(   56) = (   0.4285714   0.2000000   0.1666667), wk =   0.0190476
        k(   57) = (   0.4285714   0.2000000   0.3333333), wk =   0.0190476
        k(   58) = (   0.4285714   0.2000000  -0.5000000), wk =   0.0190476
        k(   59) = (   0.4285714   0.2000000  -0.3333333), wk =   0.0190476
        k(   60) = (   0.4285714   0.2000000  -0.1666667), wk =   0.0190476
        k(   61) = (   0.4285714   0.4000000   0.0000000), wk =   0.0190476
        k(   62) = (   0.4285714   0.4000000   0.1666667), wk =   0.0190476
        k(   63) = (   0.4285714   0.4000000   0.3333333), wk =   0.0190476
        k(   64) = (   0.4285714   0.4000000  -0.5000000), wk =   0.0190476
        k(   65) = (   0.4285714   0.4000000  -0.3333333), wk =   0.0190476
        k(   66) = (   0.4285714   0.4000000  -0.1666667), wk =   0.0190476

     Dense  grid:   714511 G-vectors     FFT dimensions: (  96, 144, 120)

     Smooth grid:   252665 G-vectors     FFT dimensions: (  72, 100,  80)

     Dynamical RAM for                 wfc:      25.54 MB

     Dynamical RAM for     wfc (w. buffer):    3396.72 MB

     Dynamical RAM for           str. fact:      21.81 MB

     Dynamical RAM for           local pot:       0.00 MB

     Dynamical RAM for          nlocal pot:      69.39 MB

     Dynamical RAM for                qrad:       3.52 MB

     Dynamical RAM for          rho,v,vnew:     141.35 MB

     Dynamical RAM for               rhoin:      47.12 MB

     Dynamical RAM for            rho*nmix:     348.88 MB

     Dynamical RAM for           G-vectors:      42.81 MB

     Dynamical RAM for          h,s,v(r/c):       0.51 MB

     Dynamical RAM for          <psi|beta>:       0.12 MB

     Dynamical RAM for                 psi:      51.08 MB

     Dynamical RAM for                hpsi:      51.08 MB

     Dynamical RAM for                spsi:      51.08 MB

     Dynamical RAM for      wfcinit/wfcrot:      71.44 MB

     Dynamical RAM for           addusdens:    2104.20 MB

     Dynamical RAM for          addusforce:    2213.27 MB

     Dynamical RAM for         addusstress:    2207.77 MB

     Estimated static dynamical RAM per process >       3.74 GB

     Estimated max dynamical RAM per process >       6.24 GB

     Check: negative core charge=   -0.000003
     Generating pointlists ...
     new r_m :   0.2423 (alat units)  3.2740 (a.u.) for type    1
     new r_m :   0.2423 (alat units)  3.2740 (a.u.) for type    2

     Initial potential from superposition of free atoms

     starting charge      85.8885, renormalised to      88.0000
     Starting wfcs are   74 randomized atomic wfcs
     Checking if some PAW data can be deallocated... 

     total cpu time spent up to now is       23.6 secs

     per-process dynamical memory:   341.1 Mb

     Self-consistent Calculation
[tb_dev] Currently allocated     1.76E+01 Mbytes, locked:    0 /  11
[tb_pin] Currently allocated     0.00E+00 Mbytes, locked:    0 /   0

     iteration #  1     ecut=    60.00 Ry     beta= 0.40
     Davidson diagonalization with overlap

---- Real-time Memory Report at c_bands before calling an iterative solver
          5039 MiB given to the printing process from OS
           386 MiB allocation reported by mallinfo(arena+hblkhd)
         21376 MiB available memory on the node where the printing process lives
     GPU memory used/free/total (MiB): 2890 / 13390 / 16280
------------------
     ethr =  1.00E-02,  avg # of iterations =  2.4

     total cpu time spent up to now is       41.7 secs

     total energy              =   -1260.47435421 Ry
     estimated scf accuracy    <       7.11730202 Ry

     total magnetization       =    10.36 Bohr mag/cell
     absolute magnetization    =    10.76 Bohr mag/cell
[tb_dev] Currently allocated     1.76E+01 Mbytes, locked:    0 /   9
[tb_pin] Currently allocated     0.00E+00 Mbytes, locked:    0 /   0

     iteration #  2     ecut=    60.00 Ry     beta= 0.40
     Davidson diagonalization with overlap

---- Real-time Memory Report at c_bands before calling an iterative solver
          5417 MiB given to the printing process from OS
           551 MiB allocation reported by mallinfo(arena+hblkhd)
         21204 MiB available memory on the node where the printing process lives
     GPU memory used/free/total (MiB): 4968 / 11312 / 16280
------------------
     ethr =  8.09E-03,  avg # of iterations =  3.0

     total cpu time spent up to now is       61.2 secs

     total energy              =   -1264.20892888 Ry
     estimated scf accuracy    <      30.47037467 Ry

     total magnetization       =    -0.00 Bohr mag/cell
     absolute magnetization    =     0.89 Bohr mag/cell
[tb_dev] Currently allocated     1.76E+01 Mbytes, locked:    0 /   9
[tb_pin] Currently allocated     0.00E+00 Mbytes, locked:    0 /   0

     iteration #  3     ecut=    60.00 Ry     beta= 0.40
     Davidson diagonalization with overlap

---- Real-time Memory Report at c_bands before calling an iterative solver
          5575 MiB given to the printing process from OS
           593 MiB allocation reported by mallinfo(arena+hblkhd)
         21162 MiB available memory on the node where the printing process lives
     GPU memory used/free/total (MiB): 5280 / 11000 / 16280
------------------
     ethr =  8.09E-03,  avg # of iterations =  2.0

     total cpu time spent up to now is       78.7 secs

     total energy              =   -1265.61087288 Ry
     estimated scf accuracy    <      13.55135091 Ry

     total magnetization       =    -0.00 Bohr mag/cell
     absolute magnetization    =     1.15 Bohr mag/cell
[tb_dev] Currently allocated     1.76E+01 Mbytes, locked:    0 /   9
[tb_pin] Currently allocated     0.00E+00 Mbytes, locked:    0 /   0

     iteration #  4     ecut=    60.00 Ry     beta= 0.40
     Davidson diagonalization with overlap

---- Real-time Memory Report at c_bands before calling an iterative solver
          5661 MiB given to the printing process from OS
           627 MiB allocation reported by mallinfo(arena+hblkhd)
         21131 MiB available memory on the node where the printing process lives
     GPU memory used/free/total (MiB): 5386 / 10894 / 16280
------------------
     ethr =  8.09E-03,  avg # of iterations =  1.0

     total cpu time spent up to now is       94.5 secs

     total energy              =   -1256.96118974 Ry
     estimated scf accuracy    <      15.04979465 Ry

     total magnetization       =    -0.00 Bohr mag/cell
     absolute magnetization    =     1.22 Bohr mag/cell
[tb_dev] Currently allocated     1.76E+01 Mbytes, locked:    0 /   9
[tb_pin] Currently allocated     0.00E+00 Mbytes, locked:    0 /   0

     iteration #  5     ecut=    60.00 Ry     beta= 0.40
     Davidson diagonalization with overlap

---- Real-time Memory Report at c_bands before calling an iterative solver
          5696 MiB given to the printing process from OS
           660 MiB allocation reported by mallinfo(arena+hblkhd)
         21099 MiB available memory on the node where the printing process lives
     GPU memory used/free/total (MiB): 5386 / 10894 / 16280
------------------
     ethr =  8.09E-03,  avg # of iterations =  7.0

     negative rho (up, down):  3.519E-02 2.183E-03

     total cpu time spent up to now is      119.7 secs

     total energy              =   -1305.54520088 Ry
     estimated scf accuracy    <     124.39291453 Ry

     total magnetization       =    -0.07 Bohr mag/cell
     absolute magnetization    =     0.35 Bohr mag/cell
[tb_dev] Currently allocated     1.76E+01 Mbytes, locked:    0 /   9
[tb_pin] Currently allocated     0.00E+00 Mbytes, locked:    0 /   0

     iteration #  6     ecut=    60.00 Ry     beta= 0.40
     Davidson diagonalization with overlap

---- Real-time Memory Report at c_bands before calling an iterative solver
          5731 MiB given to the printing process from OS
           694 MiB allocation reported by mallinfo(arena+hblkhd)
         21064 MiB available memory on the node where the printing process lives
     GPU memory used/free/total (MiB): 5818 / 10462 / 16280
------------------
     ethr =  8.09E-03,  avg # of iterations =  2.3

     negative rho (up, down):  4.792E-02 2.002E-02

     total cpu time spent up to now is      137.3 secs

     total energy              =   -1304.31934825 Ry
     estimated scf accuracy    <     153.48213072 Ry

     total magnetization       =    -0.10 Bohr mag/cell
     absolute magnetization    =     0.37 Bohr mag/cell
[tb_dev] Currently allocated     1.76E+01 Mbytes, locked:    0 /   9
[tb_pin] Currently allocated     0.00E+00 Mbytes, locked:    0 /   0

     iteration #  7     ecut=    60.00 Ry     beta= 0.40
     Davidson diagonalization with overlap

---- Real-time Memory Report at c_bands before calling an iterative solver
          5764 MiB given to the printing process from OS
           728 MiB allocation reported by mallinfo(arena+hblkhd)
         21031 MiB available memory on the node where the printing process lives
     GPU memory used/free/total (MiB): 5818 / 10462 / 16280
------------------
     ethr =  8.09E-03,  avg # of iterations =  1.0

     total cpu time spent up to now is      153.1 secs

     total energy              =   -1286.25253999 Ry
     estimated scf accuracy    <     151.78328648 Ry

     total magnetization       =    -0.08 Bohr mag/cell
     absolute magnetization    =     0.33 Bohr mag/cell
[tb_dev] Currently allocated     1.76E+01 Mbytes, locked:    0 /   9
[tb_pin] Currently allocated     0.00E+00 Mbytes, locked:    0 /   0

     iteration #  8     ecut=    60.00 Ry     beta= 0.40
     Davidson diagonalization with overlap

---- Real-time Memory Report at c_bands before calling an iterative solver
          5790 MiB given to the printing process from OS
           754 MiB allocation reported by mallinfo(arena+hblkhd)
         21002 MiB available memory on the node where the printing process lives
     GPU memory used/free/total (MiB): 5818 / 10462 / 16280
------------------
     ethr =  8.09E-03,  avg # of iterations =  2.0

     negative rho (up, down):  1.136E-02 8.003E-05

     total cpu time spent up to now is      170.2 secs

     total energy              =   -1300.58188175 Ry
     estimated scf accuracy    <     125.73075418 Ry

     total magnetization       =    -0.09 Bohr mag/cell
     absolute magnetization    =     0.29 Bohr mag/cell
[tb_dev] Currently allocated     1.76E+01 Mbytes, locked:    0 /   9
[tb_pin] Currently allocated     0.00E+00 Mbytes, locked:    0 /   0

     iteration #  9     ecut=    60.00 Ry     beta= 0.40
     Davidson diagonalization with overlap

---- Real-time Memory Report at c_bands before calling an iterative solver
          5824 MiB given to the printing process from OS
           788 MiB allocation reported by mallinfo(arena+hblkhd)
         20970 MiB available memory on the node where the printing process lives
     GPU memory used/free/total (MiB): 5818 / 10462 / 16280
------------------
     ethr =  8.09E-03,  avg # of iterations =  1.1

     negative rho (up, down):  8.214E-03 4.005E-03

     total cpu time spent up to now is      186.4 secs

     total energy              =   -1295.17555646 Ry
     estimated scf accuracy    <     146.37004384 Ry

     total magnetization       =    -0.03 Bohr mag/cell
     absolute magnetization    =     0.28 Bohr mag/cell
[tb_dev] Currently allocated     1.76E+01 Mbytes, locked:    0 /   9
[tb_pin] Currently allocated     0.00E+00 Mbytes, locked:    0 /   0

     iteration # 10     ecut=    60.00 Ry     beta= 0.40
     Davidson diagonalization with overlap

---- Real-time Memory Report at c_bands before calling an iterative solver
          5850 MiB given to the printing process from OS
           815 MiB allocation reported by mallinfo(arena+hblkhd)
         20944 MiB available memory on the node where the printing process lives
     GPU memory used/free/total (MiB): 5818 / 10462 / 16280
------------------
     ethr =  8.09E-03,  avg # of iterations =  1.0

     negative rho (up, down):  9.396E-02 6.156E-02

     total cpu time spent up to now is      202.2 secs

     total energy              =   -1292.22502062 Ry
     estimated scf accuracy    <     138.47663842 Ry

     total magnetization       =    -0.12 Bohr mag/cell
     absolute magnetization    =     0.29 Bohr mag/cell
[tb_dev] Currently allocated     1.76E+01 Mbytes, locked:    0 /   9
[tb_pin] Currently allocated     0.00E+00 Mbytes, locked:    0 /   0

     iteration # 11     ecut=    60.00 Ry     beta= 0.40
     Davidson diagonalization with overlap

---- Real-time Memory Report at c_bands before calling an iterative solver
          5860 MiB given to the printing process from OS
           826 MiB allocation reported by mallinfo(arena+hblkhd)
         20930 MiB available memory on the node where the printing process lives
     GPU memory used/free/total (MiB): 5818 / 10462 / 16280
------------------
     ethr =  8.09E-03,  avg # of iterations =  1.0

     negative rho (up, down):  6.180E-02 6.584E-02

     total cpu time spent up to now is      218.1 secs

     total energy              =   -1235.56202324 Ry
     estimated scf accuracy    <     134.34095158 Ry

     total magnetization       =    -0.33 Bohr mag/cell
     absolute magnetization    =     0.41 Bohr mag/cell
[tb_dev] Currently allocated     1.76E+01 Mbytes, locked:    0 /   9
[tb_pin] Currently allocated     0.00E+00 Mbytes, locked:    0 /   0

     iteration # 12     ecut=    60.00 Ry     beta= 0.40
     Davidson diagonalization with overlap

---- Real-time Memory Report at c_bands before calling an iterative solver
          5873 MiB given to the printing process from OS
           838 MiB allocation reported by mallinfo(arena+hblkhd)
         20921 MiB available memory on the node where the printing process lives
     GPU memory used/free/total (MiB): 5818 / 10462 / 16280
------------------
     ethr =  8.09E-03,  avg # of iterations =  6.1

     negative rho (up, down):  5.897E-02 6.815E-02

     total cpu time spent up to now is      245.4 secs

     total energy              =   -1282.61013422 Ry
     estimated scf accuracy    <      37.95175303 Ry

     total magnetization       =    -0.00 Bohr mag/cell
     absolute magnetization    =     0.07 Bohr mag/cell
[tb_dev] Currently allocated     1.76E+01 Mbytes, locked:    0 /   9
[tb_pin] Currently allocated     0.00E+00 Mbytes, locked:    0 /   0

     iteration # 13     ecut=    60.00 Ry     beta= 0.40
     Davidson diagonalization with overlap

---- Real-time Memory Report at c_bands before calling an iterative solver
          5885 MiB given to the printing process from OS
           850 MiB allocation reported by mallinfo(arena+hblkhd)
         20908 MiB available memory on the node where the printing process lives
     GPU memory used/free/total (MiB): 5818 / 10462 / 16280
------------------
     ethr =  8.09E-03,  avg # of iterations =  2.0

     negative rho (up, down):  1.180E-01 1.347E-01

     total cpu time spent up to now is      262.3 secs

     total energy              =   -1277.77934278 Ry
     estimated scf accuracy    <      50.78886387 Ry

     total magnetization       =    -0.00 Bohr mag/cell
     absolute magnetization    =     0.06 Bohr mag/cell
[tb_dev] Currently allocated     1.76E+01 Mbytes, locked:    0 /   9
[tb_pin] Currently allocated     0.00E+00 Mbytes, locked:    0 /   0

     iteration # 14     ecut=    60.00 Ry     beta= 0.40
     Davidson diagonalization with overlap

---- Real-time Memory Report at c_bands before calling an iterative solver
          5897 MiB given to the printing process from OS
           862 MiB allocation reported by mallinfo(arena+hblkhd)
         20898 MiB available memory on the node where the printing process lives
     GPU memory used/free/total (MiB): 5818 / 10462 / 16280
------------------
     ethr =  8.09E-03,  avg # of iterations =  1.0

     negative rho (up, down):  2.918E-01 3.734E-01

     total cpu time spent up to now is      278.2 secs

     total energy              =   -1281.95323117 Ry
     estimated scf accuracy    <      41.97766039 Ry

     total magnetization       =    -0.00 Bohr mag/cell
     absolute magnetization    =     0.04 Bohr mag/cell
[tb_dev] Currently allocated     1.76E+01 Mbytes, locked:    0 /   9
[tb_pin] Currently allocated     0.00E+00 Mbytes, locked:    0 /   0

     iteration # 15     ecut=    60.00 Ry     beta= 0.40
     Davidson diagonalization with overlap

---- Real-time Memory Report at c_bands before calling an iterative solver
          5908 MiB given to the printing process from OS
           873 MiB allocation reported by mallinfo(arena+hblkhd)
         20882 MiB available memory on the node where the printing process lives
     GPU memory used/free/total (MiB): 5818 / 10462 / 16280
------------------
     ethr =  8.09E-03,  avg # of iterations =  1.0

     negative rho (up, down):  3.049E-01 3.913E-01

     total cpu time spent up to now is      294.0 secs

     total energy              =   -1284.09031082 Ry
     estimated scf accuracy    <      50.93495677 Ry

     total magnetization       =    -0.00 Bohr mag/cell
     absolute magnetization    =     0.02 Bohr mag/cell
[tb_dev] Currently allocated     1.76E+01 Mbytes, locked:    0 /   9
[tb_pin] Currently allocated     0.00E+00 Mbytes, locked:    0 /   0

     iteration # 16     ecut=    60.00 Ry     beta= 0.40
     Davidson diagonalization with overlap

---- Real-time Memory Report at c_bands before calling an iterative solver
          5927 MiB given to the printing process from OS
           885 MiB allocation reported by mallinfo(arena+hblkhd)
         20874 MiB available memory on the node where the printing process lives
     GPU memory used/free/total (MiB): 5818 / 10462 / 16280
------------------
     ethr =  8.09E-03,  avg # of iterations =  1.0

     negative rho (up, down):  1.117E-01 1.625E-01

     total cpu time spent up to now is      309.8 secs

     total energy              =   -1294.44057566 Ry
     estimated scf accuracy    <      55.26278010 Ry

     total magnetization       =     0.00 Bohr mag/cell
     absolute magnetization    =     0.02 Bohr mag/cell
[tb_dev] Currently allocated     1.76E+01 Mbytes, locked:    0 /   9
[tb_pin] Currently allocated     0.00E+00 Mbytes, locked:    0 /   0

     iteration # 17     ecut=    60.00 Ry     beta= 0.40
     Davidson diagonalization with overlap

---- Real-time Memory Report at c_bands before calling an iterative solver
          5939 MiB given to the printing process from OS
           897 MiB allocation reported by mallinfo(arena+hblkhd)
         20860 MiB available memory on the node where the printing process lives
     GPU memory used/free/total (MiB): 5818 / 10462 / 16280
------------------
     ethr =  8.09E-03,  avg # of iterations =  2.0

     negative rho (up, down):  1.273E+00 1.377E+00

     total cpu time spent up to now is      327.0 secs

     total energy              =   -1242.32733518 Ry
     estimated scf accuracy    <      71.05107022 Ry

     total magnetization       =     0.00 Bohr mag/cell
     absolute magnetization    =     0.02 Bohr mag/cell
[tb_dev] Currently allocated     1.76E+01 Mbytes, locked:    0 /   9
[tb_pin] Currently allocated     0.00E+00 Mbytes, locked:    0 /   0

     iteration # 18     ecut=    60.00 Ry     beta= 0.40
     Davidson diagonalization with overlap

---- Real-time Memory Report at c_bands before calling an iterative solver
          5951 MiB given to the printing process from OS
           909 MiB allocation reported by mallinfo(arena+hblkhd)
         20850 MiB available memory on the node where the printing process lives
     GPU memory used/free/total (MiB): 5818 / 10462 / 16280
------------------
     ethr =  8.09E-03,  avg # of iterations =  9.9

     negative rho (up, down):  1.474E-01 1.724E-01

     total cpu time spent up to now is      358.3 secs

     total energy              =   -1270.41978865 Ry
     estimated scf accuracy    <     177.12700735 Ry

     total magnetization       =     0.00 Bohr mag/cell
     absolute magnetization    =     0.42 Bohr mag/cell
[tb_dev] Currently allocated     1.76E+01 Mbytes, locked:    0 /   9
[tb_pin] Currently allocated     0.00E+00 Mbytes, locked:    0 /   0

     iteration # 19     ecut=    60.00 Ry     beta= 0.40
     Davidson diagonalization with overlap

---- Real-time Memory Report at c_bands before calling an iterative solver
          5956 MiB given to the printing process from OS
           920 MiB allocation reported by mallinfo(arena+hblkhd)
         20838 MiB available memory on the node where the printing process lives
     GPU memory used/free/total (MiB): 5818 / 10462 / 16280
------------------
     ethr =  8.09E-03,  avg # of iterations =  4.3

     negative rho (up, down):  2.123E-02 3.156E-02

     total cpu time spent up to now is      379.6 secs

     total energy              =   -1246.98802666 Ry
     estimated scf accuracy    <     101.65076364 Ry

     total magnetization       =     0.02 Bohr mag/cell
     absolute magnetization    =     0.26 Bohr mag/cell
[tb_dev] Currently allocated     1.76E+01 Mbytes, locked:    0 /   9
[tb_pin] Currently allocated     0.00E+00 Mbytes, locked:    0 /   0

     iteration # 20     ecut=    60.00 Ry     beta= 0.40
     Davidson diagonalization with overlap

---- Real-time Memory Report at c_bands before calling an iterative solver
          5975 MiB given to the printing process from OS
           932 MiB allocation reported by mallinfo(arena+hblkhd)
         20829 MiB available memory on the node where the printing process lives
     GPU memory used/free/total (MiB): 5818 / 10462 / 16280
------------------
     ethr =  8.09E-03,  avg # of iterations =  6.9

     negative rho (up, down):  1.460E-02 1.343E-02

     total cpu time spent up to now is      406.4 secs

     total energy              =   -1267.59380723 Ry
     estimated scf accuracy    <      22.52848790 Ry

     total magnetization       =     0.01 Bohr mag/cell
     absolute magnetization    =     0.02 Bohr mag/cell
[tb_dev] Currently allocated     1.76E+01 Mbytes, locked:    0 /   9
[tb_pin] Currently allocated     0.00E+00 Mbytes, locked:    0 /   0

     iteration # 21     ecut=    60.00 Ry     beta= 0.40
     Davidson diagonalization with overlap

---- Real-time Memory Report at c_bands before calling an iterative solver
          5987 MiB given to the printing process from OS
           944 MiB allocation reported by mallinfo(arena+hblkhd)
         20816 MiB available memory on the node where the printing process lives
     GPU memory used/free/total (MiB): 5818 / 10462 / 16280
------------------
     ethr =  8.09E-03,  avg # of iterations =  1.0

     negative rho (up, down):  5.088E-03 3.142E-03

     total cpu time spent up to now is      422.3 secs

     total energy              =   -1270.23973756 Ry
     estimated scf accuracy    <      17.59527699 Ry

     total magnetization       =     0.01 Bohr mag/cell
     absolute magnetization    =     0.02 Bohr mag/cell
[tb_dev] Currently allocated     1.76E+01 Mbytes, locked:    0 /   9
[tb_pin] Currently allocated     0.00E+00 Mbytes, locked:    0 /   0

     iteration # 22     ecut=    60.00 Ry     beta= 0.40
     Davidson diagonalization with overlap

---- Real-time Memory Report at c_bands before calling an iterative solver
          5990 MiB given to the printing process from OS
           956 MiB allocation reported by mallinfo(arena+hblkhd)
         23822 MiB available memory on the node where the printing process lives
     GPU memory used/free/total (MiB): 5818 / 10462 / 16280
------------------
     ethr =  8.09E-03,  avg # of iterations =  1.0

     negative rho (up, down):  1.613E-04 0.000E+00

     total cpu time spent up to now is      438.1 secs

     total energy              =   -1273.91817814 Ry
     estimated scf accuracy    <      23.89153081 Ry

     total magnetization       =    -0.00 Bohr mag/cell
     absolute magnetization    =     0.01 Bohr mag/cell
[tb_dev] Currently allocated     1.76E+01 Mbytes, locked:    0 /   9
[tb_pin] Currently allocated     0.00E+00 Mbytes, locked:    0 /   0

     iteration # 23     ecut=    60.00 Ry     beta= 0.40
     Davidson diagonalization with overlap

---- Real-time Memory Report at c_bands before calling an iterative solver
          6010 MiB given to the printing process from OS
           968 MiB allocation reported by mallinfo(arena+hblkhd)
         23813 MiB available memory on the node where the printing process lives
     GPU memory used/free/total (MiB): 5818 / 10462 / 16280
------------------
     ethr =  8.09E-03,  avg # of iterations =  1.7

     negative rho (up, down):  1.587E-04 9.183E-07

     total cpu time spent up to now is      454.7 secs

     total energy              =   -1274.75346212 Ry
     estimated scf accuracy    <      32.01988100 Ry

     total magnetization       =     0.00 Bohr mag/cell
     absolute magnetization    =     0.01 Bohr mag/cell
[tb_dev] Currently allocated     1.76E+01 Mbytes, locked:    0 /   9
[tb_pin] Currently allocated     0.00E+00 Mbytes, locked:    0 /   0

     iteration # 24     ecut=    60.00 Ry     beta= 0.40
     Davidson diagonalization with overlap

---- Real-time Memory Report at c_bands before calling an iterative solver
          6021 MiB given to the printing process from OS
           979 MiB allocation reported by mallinfo(arena+hblkhd)
         23807 MiB available memory on the node where the printing process lives
     GPU memory used/free/total (MiB): 5818 / 10462 / 16280
------------------
     ethr =  8.09E-03,  avg # of iterations =  1.0

     negative rho (up, down):  4.948E-04 5.224E-05

     total cpu time spent up to now is      470.5 secs

     total energy              =   -1272.10570996 Ry
     estimated scf accuracy    <      32.96327991 Ry

     total magnetization       =     0.00 Bohr mag/cell
     absolute magnetization    =     0.01 Bohr mag/cell
[tb_dev] Currently allocated     1.76E+01 Mbytes, locked:    0 /   9
[tb_pin] Currently allocated     0.00E+00 Mbytes, locked:    0 /   0

     iteration # 25     ecut=    60.00 Ry     beta= 0.40
     Davidson diagonalization with overlap

---- Real-time Memory Report at c_bands before calling an iterative solver
          6033 MiB given to the printing process from OS
           991 MiB allocation reported by mallinfo(arena+hblkhd)
         23793 MiB available memory on the node where the printing process lives
     GPU memory used/free/total (MiB): 5818 / 10462 / 16280
------------------
     ethr =  8.09E-03,  avg # of iterations =  1.0

     negative rho (up, down):  3.904E-03 2.034E-03

     total cpu time spent up to now is      486.4 secs

     total energy              =   -1268.14898519 Ry
     estimated scf accuracy    <      27.87795575 Ry

     total magnetization       =     0.00 Bohr mag/cell
     absolute magnetization    =     0.01 Bohr mag/cell
[tb_dev] Currently allocated     1.76E+01 Mbytes, locked:    0 /   9
[tb_pin] Currently allocated     0.00E+00 Mbytes, locked:    0 /   0

     iteration # 26     ecut=    60.00 Ry     beta= 0.40
     Davidson diagonalization with overlap

---- Real-time Memory Report at c_bands before calling an iterative solver
          6038 MiB given to the printing process from OS
          1003 MiB allocation reported by mallinfo(arena+hblkhd)
         23781 MiB available memory on the node where the printing process lives
     GPU memory used/free/total (MiB): 5818 / 10462 / 16280
------------------
     ethr =  8.09E-03,  avg # of iterations =  1.7

     negative rho (up, down):  1.481E-02 1.025E-02

     total cpu time spent up to now is      502.9 secs

     total energy              =   -1263.38311238 Ry
     estimated scf accuracy    <      19.29839539 Ry

     total magnetization       =    -0.00 Bohr mag/cell
     absolute magnetization    =     0.01 Bohr mag/cell
[tb_dev] Currently allocated     1.76E+01 Mbytes, locked:    0 /   9
[tb_pin] Currently allocated     0.00E+00 Mbytes, locked:    0 /   0

     iteration # 27     ecut=    60.00 Ry     beta= 0.40
     Davidson diagonalization with overlap

---- Real-time Memory Report at c_bands before calling an iterative solver
          6057 MiB given to the printing process from OS
          1015 MiB allocation reported by mallinfo(arena+hblkhd)
         23770 MiB available memory on the node where the printing process lives
     GPU memory used/free/total (MiB): 5818 / 10462 / 16280
------------------
     ethr =  8.09E-03,  avg # of iterations =  2.0

     negative rho (up, down):  1.516E+00 1.305E+00

     total cpu time spent up to now is      520.7 secs

     total energy              =   -1264.65161507 Ry
     estimated scf accuracy    <       4.36453447 Ry

     total magnetization       =     0.92 Bohr mag/cell
     absolute magnetization    =     0.99 Bohr mag/cell
[tb_dev] Currently allocated     1.76E+01 Mbytes, locked:    0 /   9
[tb_pin] Currently allocated     0.00E+00 Mbytes, locked:    0 /   0

     iteration # 28     ecut=    60.00 Ry     beta= 0.40
     Davidson diagonalization with overlap

---- Real-time Memory Report at c_bands before calling an iterative solver
          6069 MiB given to the printing process from OS
          1026 MiB allocation reported by mallinfo(arena+hblkhd)
         23756 MiB available memory on the node where the printing process lives
     GPU memory used/free/total (MiB): 5818 / 10462 / 16280
------------------
     ethr =  4.96E-03,  avg # of iterations = 11.5

     negative rho (up, down):  5.375E-01 4.905E-01

     total cpu time spent up to now is      555.5 secs

     total energy              =   -1292.67507538 Ry
     estimated scf accuracy    <     381.18568586 Ry

     total magnetization       =     3.75 Bohr mag/cell
     absolute magnetization    =     4.89 Bohr mag/cell
[tb_dev] Currently allocated     1.76E+01 Mbytes, locked:    0 /   9
[tb_pin] Currently allocated     0.00E+00 Mbytes, locked:    0 /   0

     iteration # 29     ecut=    60.00 Ry     beta= 0.40
     Davidson diagonalization with overlap

---- Real-time Memory Report at c_bands before calling an iterative solver
          6080 MiB given to the printing process from OS
          1038 MiB allocation reported by mallinfo(arena+hblkhd)
         23748 MiB available memory on the node where the printing process lives
     GPU memory used/free/total (MiB): 5818 / 10462 / 16280
------------------
     ethr =  4.96E-03,  avg # of iterations =  2.1

     negative rho (up, down):  5.728E-01 4.910E-01

     total cpu time spent up to now is      573.3 secs

     total energy              =   -1308.88298281 Ry
     estimated scf accuracy    <     161.70235923 Ry

     total magnetization       =    -0.03 Bohr mag/cell
     absolute magnetization    =     0.15 Bohr mag/cell
[tb_dev] Currently allocated     1.76E+01 Mbytes, locked:    0 /   9
[tb_pin] Currently allocated     0.00E+00 Mbytes, locked:    0 /   0

     iteration # 30     ecut=    60.00 Ry     beta= 0.40
     Davidson diagonalization with overlap

---- Real-time Memory Report at c_bands before calling an iterative solver
          6092 MiB given to the printing process from OS
          1050 MiB allocation reported by mallinfo(arena+hblkhd)
         23733 MiB available memory on the node where the printing process lives
     GPU memory used/free/total (MiB): 5818 / 10462 / 16280
------------------
     ethr =  4.96E-03,  avg # of iterations =  1.0

     negative rho (up, down):  5.790E-01 5.140E-01

     total cpu time spent up to now is      589.2 secs

     total energy              =   -1309.84094591 Ry
     estimated scf accuracy    <     164.25961630 Ry

     total magnetization       =    -0.12 Bohr mag/cell
     absolute magnetization    =     0.20 Bohr mag/cell
[tb_dev] Currently allocated     1.76E+01 Mbytes, locked:    0 /   9
[tb_pin] Currently allocated     0.00E+00 Mbytes, locked:    0 /   0

     iteration # 31     ecut=    60.00 Ry     beta= 0.40
     Davidson diagonalization with overlap

---- Real-time Memory Report at c_bands before calling an iterative solver
          6103 MiB given to the printing process from OS
          1062 MiB allocation reported by mallinfo(arena+hblkhd)
         23723 MiB available memory on the node where the printing process lives
     GPU memory used/free/total (MiB): 5818 / 10462 / 16280
------------------
     ethr =  4.96E-03,  avg # of iterations =  1.0

     negative rho (up, down):  5.963E-01 5.809E-01

     total cpu time spent up to now is      605.1 secs

     total energy              =   -1311.27135381 Ry
     estimated scf accuracy    <     165.22952552 Ry

     total magnetization       =    -0.11 Bohr mag/cell
     absolute magnetization    =     0.20 Bohr mag/cell
[tb_dev] Currently allocated     1.76E+01 Mbytes, locked:    0 /   9
[tb_pin] Currently allocated     0.00E+00 Mbytes, locked:    0 /   0

     iteration # 32     ecut=    60.00 Ry     beta= 0.40
     Davidson diagonalization with overlap

---- Real-time Memory Report at c_bands before calling an iterative solver
          6116 MiB given to the printing process from OS
          1073 MiB allocation reported by mallinfo(arena+hblkhd)
         23709 MiB available memory on the node where the printing process lives
     GPU memory used/free/total (MiB): 5818 / 10462 / 16280
------------------
     ethr =  4.96E-03,  avg # of iterations =  1.0

     negative rho (up, down):  7.419E-01 1.156E+00

     total cpu time spent up to now is      620.9 secs

     total energy              =   -1319.19139753 Ry
     estimated scf accuracy    <     166.74443148 Ry

     total magnetization       =    -0.03 Bohr mag/cell
     absolute magnetization    =     0.16 Bohr mag/cell
[tb_dev] Currently allocated     1.76E+01 Mbytes, locked:    0 /   9
[tb_pin] Currently allocated     0.00E+00 Mbytes, locked:    0 /   0

     iteration # 33     ecut=    60.00 Ry     beta= 0.40
     Davidson diagonalization with overlap

---- Real-time Memory Report at c_bands before calling an iterative solver
          6121 MiB given to the printing process from OS
          1085 MiB allocation reported by mallinfo(arena+hblkhd)
         23699 MiB available memory on the node where the printing process lives
     GPU memory used/free/total (MiB): 5818 / 10462 / 16280
------------------
     ethr =  4.96E-03,  avg # of iterations =  1.0

     negative rho (up, down):  7.981E-01 1.178E+00

     total cpu time spent up to now is      636.9 secs

     total energy              =   -1319.28119970 Ry
     estimated scf accuracy    <     174.91876645 Ry

     total magnetization       =     0.35 Bohr mag/cell
     absolute magnetization    =     0.45 Bohr mag/cell
[tb_dev] Currently allocated     1.76E+01 Mbytes, locked:    0 /   9
[tb_pin] Currently allocated     0.00E+00 Mbytes, locked:    0 /   0

     iteration # 34     ecut=    60.00 Ry     beta= 0.40
     Davidson diagonalization with overlap

---- Real-time Memory Report at c_bands before calling an iterative solver
          6132 MiB given to the printing process from OS
          1097 MiB allocation reported by mallinfo(arena+hblkhd)
         23686 MiB available memory on the node where the printing process lives
     GPU memory used/free/total (MiB): 5818 / 10462 / 16280
------------------
     ethr =  4.96E-03,  avg # of iterations =  1.0

     negative rho (up, down):  0.000E+00 7.238E-04

     total cpu time spent up to now is      652.7 secs

     total energy              =   -1262.81372148 Ry
     estimated scf accuracy    <     175.07534093 Ry

     total magnetization       =     0.31 Bohr mag/cell
     absolute magnetization    =     0.41 Bohr mag/cell
[tb_dev] Currently allocated     1.76E+01 Mbytes, locked:    0 /   9
[tb_pin] Currently allocated     0.00E+00 Mbytes, locked:    0 /   0

     iteration # 35     ecut=    60.00 Ry     beta= 0.40
     Davidson diagonalization with overlap

---- Real-time Memory Report at c_bands before calling an iterative solver
          6151 MiB given to the printing process from OS
          1109 MiB allocation reported by mallinfo(arena+hblkhd)
         23678 MiB available memory on the node where the printing process lives
     GPU memory used/free/total (MiB): 5818 / 10462 / 16280
------------------
     ethr =  4.96E-03,  avg # of iterations =  5.6

     total cpu time spent up to now is      676.6 secs

     total energy              =   -1259.93323319 Ry
     estimated scf accuracy    <      83.26340258 Ry

     total magnetization       =     0.16 Bohr mag/cell
     absolute magnetization    =     0.38 Bohr mag/cell
[tb_dev] Currently allocated     1.76E+01 Mbytes, locked:    0 /   9
[tb_pin] Currently allocated     0.00E+00 Mbytes, locked:    0 /   0

     iteration # 36     ecut=    60.00 Ry     beta= 0.40
     Davidson diagonalization with overlap

---- Real-time Memory Report at c_bands before calling an iterative solver
          6163 MiB given to the printing process from OS
          1120 MiB allocation reported by mallinfo(arena+hblkhd)
         23664 MiB available memory on the node where the printing process lives
     GPU memory used/free/total (MiB): 5818 / 10462 / 16280
------------------
     ethr =  4.96E-03,  avg # of iterations =  9.6

     negative rho (up, down):  0.000E+00 2.141E-03

     total cpu time spent up to now is      705.5 secs

     total energy              =   -1264.09987798 Ry
     estimated scf accuracy    <       2.67073644 Ry

     total magnetization       =    -0.34 Bohr mag/cell
     absolute magnetization    =     0.61 Bohr mag/cell
[tb_dev] Currently allocated     1.76E+01 Mbytes, locked:    0 /   9
[tb_pin] Currently allocated     0.00E+00 Mbytes, locked:    0 /   0

     iteration # 37     ecut=    60.00 Ry     beta= 0.40
     Davidson diagonalization with overlap

---- Real-time Memory Report at c_bands before calling an iterative solver
          6166 MiB given to the printing process from OS
          1132 MiB allocation reported by mallinfo(arena+hblkhd)
         23655 MiB available memory on the node where the printing process lives
     GPU memory used/free/total (MiB): 5818 / 10462 / 16280
------------------
     ethr =  3.03E-03,  avg # of iterations =  1.8

     negative rho (up, down):  3.278E-04 1.987E-04

     total cpu time spent up to now is      722.2 secs

     total energy              =   -1264.37013387 Ry
     estimated scf accuracy    <       1.89301261 Ry

     total magnetization       =    -0.37 Bohr mag/cell
     absolute magnetization    =     1.39 Bohr mag/cell
[tb_dev] Currently allocated     1.76E+01 Mbytes, locked:    0 /   9
[tb_pin] Currently allocated     0.00E+00 Mbytes, locked:    0 /   0

     iteration # 38     ecut=    60.00 Ry     beta= 0.40
     Davidson diagonalization with overlap

---- Real-time Memory Report at c_bands before calling an iterative solver
          6186 MiB given to the printing process from OS
          1144 MiB allocation reported by mallinfo(arena+hblkhd)
         23639 MiB available memory on the node where the printing process lives
     GPU memory used/free/total (MiB): 5818 / 10462 / 16280
------------------
     ethr =  2.15E-03,  avg # of iterations =  2.8

     negative rho (up, down):  1.987E-03 1.405E-03

     total cpu time spent up to now is      740.3 secs

     total energy              =   -1264.25470543 Ry
     estimated scf accuracy    <       5.41771656 Ry

     total magnetization       =    -0.36 Bohr mag/cell
     absolute magnetization    =     0.39 Bohr mag/cell
[tb_dev] Currently allocated     1.76E+01 Mbytes, locked:    0 /   9
[tb_pin] Currently allocated     0.00E+00 Mbytes, locked:    0 /   0

     iteration # 39     ecut=    60.00 Ry     beta= 0.40
     Davidson diagonalization with overlap

---- Real-time Memory Report at c_bands before calling an iterative solver
          6199 MiB given to the printing process from OS
          1156 MiB allocation reported by mallinfo(arena+hblkhd)
         23626 MiB available memory on the node where the printing process lives
     GPU memory used/free/total (MiB): 5818 / 10462 / 16280
------------------
     ethr =  2.15E-03,  avg # of iterations =  1.2

     negative rho (up, down):  1.019E-02 7.833E-03

     total cpu time spent up to now is      756.3 secs

     total energy              =   -1263.74524006 Ry
     estimated scf accuracy    <       4.18085697 Ry

     total magnetization       =    -0.27 Bohr mag/cell
     absolute magnetization    =     0.30 Bohr mag/cell
[tb_dev] Currently allocated     1.76E+01 Mbytes, locked:    0 /   9
[tb_pin] Currently allocated     0.00E+00 Mbytes, locked:    0 /   0

     iteration # 40     ecut=    60.00 Ry     beta= 0.40
     Davidson diagonalization with overlap

---- Real-time Memory Report at c_bands before calling an iterative solver
          6211 MiB given to the printing process from OS
          1168 MiB allocation reported by mallinfo(arena+hblkhd)
         23619 MiB available memory on the node where the printing process lives
     GPU memory used/free/total (MiB): 5818 / 10462 / 16280
------------------
     ethr =  2.15E-03,  avg # of iterations =  1.8

     negative rho (up, down):  9.339E-03 6.667E-03

     total cpu time spent up to now is      773.2 secs

     total energy              =   -1263.92163069 Ry
     estimated scf accuracy    <       1.58132935 Ry

     total magnetization       =     4.24 Bohr mag/cell
     absolute magnetization    =     4.41 Bohr mag/cell
[tb_dev] Currently allocated     1.76E+01 Mbytes, locked:    0 /   9
[tb_pin] Currently allocated     0.00E+00 Mbytes, locked:    0 /   0

     iteration # 41     ecut=    60.00 Ry     beta= 0.40
     Davidson diagonalization with overlap

---- Real-time Memory Report at c_bands before calling an iterative solver
          6222 MiB given to the printing process from OS
          1179 MiB allocation reported by mallinfo(arena+hblkhd)
         23604 MiB available memory on the node where the printing process lives
     GPU memory used/free/total (MiB): 5818 / 10462 / 16280
------------------
     ethr =  1.80E-03,  avg # of iterations =  1.1

     negative rho (up, down):  9.071E-06 0.000E+00

     total cpu time spent up to now is      789.2 secs

     total energy              =   -1264.40722748 Ry
     estimated scf accuracy    <       0.37235829 Ry

     total magnetization       =     1.54 Bohr mag/cell
     absolute magnetization    =     1.90 Bohr mag/cell
[tb_dev] Currently allocated     1.76E+01 Mbytes, locked:    0 /   9
[tb_pin] Currently allocated     0.00E+00 Mbytes, locked:    0 /   0

     iteration # 42     ecut=    60.00 Ry     beta= 0.40
     Davidson diagonalization with overlap

---- Real-time Memory Report at c_bands before calling an iterative solver
          6234 MiB given to the printing process from OS
          1191 MiB allocation reported by mallinfo(arena+hblkhd)
         23594 MiB available memory on the node where the printing process lives
     GPU memory used/free/total (MiB): 5818 / 10462 / 16280
------------------
     ethr =  4.23E-04,  avg # of iterations =  4.7

     total cpu time spent up to now is      811.2 secs

     total energy              =   -1267.64584735 Ry
     estimated scf accuracy    <      11.53017496 Ry

     total magnetization       =     0.01 Bohr mag/cell
     absolute magnetization    =     0.13 Bohr mag/cell
[tb_dev] Currently allocated     1.76E+01 Mbytes, locked:    0 /   9
[tb_pin] Currently allocated     0.00E+00 Mbytes, locked:    0 /   0

     iteration # 43     ecut=    60.00 Ry     beta= 0.40
     Davidson diagonalization with overlap

---- Real-time Memory Report at c_bands before calling an iterative solver
          6245 MiB given to the printing process from OS
          1203 MiB allocation reported by mallinfo(arena+hblkhd)
         23580 MiB available memory on the node where the printing process lives
     GPU memory used/free/total (MiB): 5818 / 10462 / 16280
------------------
     ethr =  4.23E-04,  avg # of iterations =  3.9

     total cpu time spent up to now is      831.2 secs

     total energy              =   -1265.96295034 Ry
     estimated scf accuracy    <      17.51832518 Ry

     total magnetization       =     0.00 Bohr mag/cell
     absolute magnetization    =     0.10 Bohr mag/cell
[tb_dev] Currently allocated     1.76E+01 Mbytes, locked:    0 /   9
[tb_pin] Currently allocated     0.00E+00 Mbytes, locked:    0 /   0

     iteration # 44     ecut=    60.00 Ry     beta= 0.40
     Davidson diagonalization with overlap

---- Real-time Memory Report at c_bands before calling an iterative solver
          6256 MiB given to the printing process from OS
          1215 MiB allocation reported by mallinfo(arena+hblkhd)
         23571 MiB available memory on the node where the printing process lives
     GPU memory used/free/total (MiB): 5818 / 10462 / 16280
------------------
     ethr =  4.23E-04,  avg # of iterations =  2.0

     negative rho (up, down):  3.787E-03 2.079E-03

     total cpu time spent up to now is      849.1 secs

     total energy              =   -1260.06626247 Ry
     estimated scf accuracy    <      12.79919449 Ry

     total magnetization       =     0.00 Bohr mag/cell
     absolute magnetization    =     0.07 Bohr mag/cell
[tb_dev] Currently allocated     1.76E+01 Mbytes, locked:    0 /   9
[tb_pin] Currently allocated     0.00E+00 Mbytes, locked:    0 /   0

     iteration # 45     ecut=    60.00 Ry     beta= 0.40
     Davidson diagonalization with overlap

---- Real-time Memory Report at c_bands before calling an iterative solver
          6269 MiB given to the printing process from OS
          1226 MiB allocation reported by mallinfo(arena+hblkhd)
         23557 MiB available memory on the node where the printing process lives
     GPU memory used/free/total (MiB): 5818 / 10462 / 16280
------------------
     c_bands:  1 eigenvalues not converged
     ethr =  4.23E-04,  avg # of iterations = 14.6

     total cpu time spent up to now is      888.5 secs

     total energy              =   -1269.01238362 Ry
     estimated scf accuracy    <     104.70797274 Ry

     total magnetization       =    -0.11 Bohr mag/cell
     absolute magnetization    =     0.32 Bohr mag/cell
[tb_dev] Currently allocated     1.76E+01 Mbytes, locked:    0 /   9
[tb_pin] Currently allocated     0.00E+00 Mbytes, locked:    0 /   0

     iteration # 46     ecut=    60.00 Ry     beta= 0.40
     Davidson diagonalization with overlap

---- Real-time Memory Report at c_bands before calling an iterative solver
          6281 MiB given to the printing process from OS
          1238 MiB allocation reported by mallinfo(arena+hblkhd)
         23550 MiB available memory on the node where the printing process lives
     GPU memory used/free/total (MiB): 5818 / 10462 / 16280
------------------
     ethr =  4.23E-04,  avg # of iterations =  4.8

     total cpu time spent up to now is      910.2 secs

     total energy              =   -1265.20002358 Ry
     estimated scf accuracy    <      91.23050589 Ry

     total magnetization       =    -0.04 Bohr mag/cell
     absolute magnetization    =     0.17 Bohr mag/cell
[tb_dev] Currently allocated     1.76E+01 Mbytes, locked:    0 /   9
[tb_pin] Currently allocated     0.00E+00 Mbytes, locked:    0 /   0

     iteration # 47     ecut=    60.00 Ry     beta= 0.40
     Davidson diagonalization with overlap

---- Real-time Memory Report at c_bands before calling an iterative solver
          6293 MiB given to the printing process from OS
          1250 MiB allocation reported by mallinfo(arena+hblkhd)
         23534 MiB available memory on the node where the printing process lives
     GPU memory used/free/total (MiB): 5818 / 10462 / 16280
------------------
     ethr =  4.23E-04,  avg # of iterations =  9.8

     total cpu time spent up to now is      939.7 secs

     total energy              =   -1266.66253401 Ry
     estimated scf accuracy    <      68.05286348 Ry

     total magnetization       =    -0.52 Bohr mag/cell
     absolute magnetization    =     0.60 Bohr mag/cell
[tb_dev] Currently allocated     1.76E+01 Mbytes, locked:    0 /   9
[tb_pin] Currently allocated     0.00E+00 Mbytes, locked:    0 /   0

     iteration # 48     ecut=    60.00 Ry     beta= 0.40
     Davidson diagonalization with overlap

---- Real-time Memory Report at c_bands before calling an iterative solver
          6312 MiB given to the printing process from OS
          1262 MiB allocation reported by mallinfo(arena+hblkhd)
         23526 MiB available memory on the node where the printing process lives
     GPU memory used/free/total (MiB): 5818 / 10462 / 16280
------------------
     ethr =  4.23E-04,  avg # of iterations =  5.4

     total cpu time spent up to now is      960.3 secs

     total energy              =   -1268.08947522 Ry
     estimated scf accuracy    <      80.87334814 Ry

     total magnetization       =    -0.06 Bohr mag/cell
     absolute magnetization    =     0.18 Bohr mag/cell
[tb_dev] Currently allocated     1.76E+01 Mbytes, locked:    0 /   9
[tb_pin] Currently allocated     0.00E+00 Mbytes, locked:    0 /   0

     iteration # 49     ecut=    60.00 Ry     beta= 0.40
     Davidson diagonalization with overlap

---- Real-time Memory Report at c_bands before calling an iterative solver
          6331 MiB given to the printing process from OS
          1273 MiB allocation reported by mallinfo(arena+hblkhd)
         23504 MiB available memory on the node where the printing process lives
     GPU memory used/free/total (MiB): 5818 / 10462 / 16280
------------------
     ethr =  4.23E-04,  avg # of iterations =  8.6

     total cpu time spent up to now is      986.1 secs

     total energy              =   -1263.92860282 Ry
     estimated scf accuracy    <      86.54268320 Ry

     total magnetization       =     0.01 Bohr mag/cell
     absolute magnetization    =     0.23 Bohr mag/cell
[tb_dev] Currently allocated     1.76E+01 Mbytes, locked:    0 /   9
[tb_pin] Currently allocated     0.00E+00 Mbytes, locked:    0 /   0

     iteration # 50     ecut=    60.00 Ry     beta= 0.40
     Davidson diagonalization with overlap

---- Real-time Memory Report at c_bands before calling an iterative solver
          6343 MiB given to the printing process from OS
          1285 MiB allocation reported by mallinfo(arena+hblkhd)
         23499 MiB available memory on the node where the printing process lives
     GPU memory used/free/total (MiB): 5818 / 10462 / 16280
------------------
     ethr =  4.23E-04,  avg # of iterations = 10.5

     total cpu time spent up to now is     1017.5 secs

     total energy              =   -1261.65275897 Ry
     estimated scf accuracy    <      21.41260829 Ry

     total magnetization       =    -3.58 Bohr mag/cell
     absolute magnetization    =     3.80 Bohr mag/cell
[tb_dev] Currently allocated     1.76E+01 Mbytes, locked:    0 /   9
[tb_pin] Currently allocated     0.00E+00 Mbytes, locked:    0 /   0

     iteration # 51     ecut=    60.00 Ry     beta= 0.40
     Davidson diagonalization with overlap

---- Real-time Memory Report at c_bands before calling an iterative solver
          6354 MiB given to the printing process from OS
          1297 MiB allocation reported by mallinfo(arena+hblkhd)
         23488 MiB available memory on the node where the printing process lives
     GPU memory used/free/total (MiB): 5818 / 10462 / 16280
------------------
     ethr =  4.23E-04,  avg # of iterations =  5.7

     total cpu time spent up to now is     1041.5 secs

     total energy              =   -1265.40931422 Ry
     estimated scf accuracy    <       9.08894306 Ry

     total magnetization       =     0.01 Bohr mag/cell
     absolute magnetization    =     0.05 Bohr mag/cell
[tb_dev] Currently allocated     1.76E+01 Mbytes, locked:    0 /   9
[tb_pin] Currently allocated     0.00E+00 Mbytes, locked:    0 /   0

     iteration # 52     ecut=    60.00 Ry     beta= 0.40
     Davidson diagonalization with overlap

---- Real-time Memory Report at c_bands before calling an iterative solver
          6367 MiB given to the printing process from OS
          1309 MiB allocation reported by mallinfo(arena+hblkhd)
         23479 MiB available memory on the node where the printing process lives
     GPU memory used/free/total (MiB): 5818 / 10462 / 16280
------------------
     ethr =  4.23E-04,  avg # of iterations =  2.0

     total cpu time spent up to now is     1058.8 secs

     total energy              =   -1264.91672939 Ry
     estimated scf accuracy    <      10.56397524 Ry

     total magnetization       =     0.01 Bohr mag/cell
     absolute magnetization    =     0.05 Bohr mag/cell
[tb_dev] Currently allocated     1.76E+01 Mbytes, locked:    0 /   9
[tb_pin] Currently allocated     0.00E+00 Mbytes, locked:    0 /   0

     iteration # 53     ecut=    60.00 Ry     beta= 0.40
     Davidson diagonalization with overlap

---- Real-time Memory Report at c_bands before calling an iterative solver
          6379 MiB given to the printing process from OS
          1321 MiB allocation reported by mallinfo(arena+hblkhd)
         23464 MiB available memory on the node where the printing process lives
     GPU memory used/free/total (MiB): 5818 / 10462 / 16280
------------------
     ethr =  4.23E-04,  avg # of iterations =  1.9

     total cpu time spent up to now is     1075.6 secs

     total energy              =   -1264.17031884 Ry
     estimated scf accuracy    <       8.98414426 Ry

     total magnetization       =     0.00 Bohr mag/cell
     absolute magnetization    =     0.05 Bohr mag/cell
[tb_dev] Currently allocated     1.76E+01 Mbytes, locked:    0 /   9
[tb_pin] Currently allocated     0.00E+00 Mbytes, locked:    0 /   0

     iteration # 54     ecut=    60.00 Ry     beta= 0.40
     Davidson diagonalization with overlap

---- Real-time Memory Report at c_bands before calling an iterative solver
          6391 MiB given to the printing process from OS
          1332 MiB allocation reported by mallinfo(arena+hblkhd)
         23452 MiB available memory on the node where the printing process lives
     GPU memory used/free/total (MiB): 5818 / 10462 / 16280
------------------
     ethr =  4.23E-04,  avg # of iterations =  2.0
     Minimization algorithm failed to find Fermi energy: reverting to bisection
     Possible cause: smearing is larger than the electronic band-gap.

     total cpu time spent up to now is     1093.1 secs

     total energy              =   -1264.25396842 Ry
     estimated scf accuracy    <       5.81682004 Ry

     total magnetization       =     0.75 Bohr mag/cell
     absolute magnetization    =     0.96 Bohr mag/cell
[tb_dev] Currently allocated     1.76E+01 Mbytes, locked:    0 /   9
[tb_pin] Currently allocated     0.00E+00 Mbytes, locked:    0 /   0

     iteration # 55     ecut=    60.00 Ry     beta= 0.40
     Davidson diagonalization with overlap

---- Real-time Memory Report at c_bands before calling an iterative solver
          6402 MiB given to the printing process from OS
          1344 MiB allocation reported by mallinfo(arena+hblkhd)
         23440 MiB available memory on the node where the printing process lives
     GPU memory used/free/total (MiB): 5818 / 10462 / 16280
------------------
     ethr =  4.23E-04,  avg # of iterations =  1.0

     total cpu time spent up to now is     1109.2 secs

     WARNING: integrated charge=    88.00004320, expected=    88.00000000

     total energy              =   -1264.23078391 Ry
     estimated scf accuracy    <       5.70607819 Ry

     total magnetization       =     0.00 Bohr mag/cell
     absolute magnetization    =     0.06 Bohr mag/cell
[tb_dev] Currently allocated     1.76E+01 Mbytes, locked:    0 /   9
[tb_pin] Currently allocated     0.00E+00 Mbytes, locked:    0 /   0

     iteration # 56     ecut=    60.00 Ry     beta= 0.40
     Davidson diagonalization with overlap

---- Real-time Memory Report at c_bands before calling an iterative solver
          6414 MiB given to the printing process from OS
          1356 MiB allocation reported by mallinfo(arena+hblkhd)
         45815 MiB available memory on the node where the printing process lives
     GPU memory used/free/total (MiB): 5818 / 10462 / 16280
------------------
     ethr =  4.23E-04,  avg # of iterations =  1.0
     Minimization algorithm failed to find Fermi energy: reverting to bisection
     Possible cause: smearing is larger than the electronic band-gap.

     total cpu time spent up to now is     1125.1 secs

     WARNING: integrated charge=    88.00026375, expected=    88.00000000

     total energy              =   -1264.21291629 Ry
     estimated scf accuracy    <       5.53979327 Ry

     total magnetization       =    -0.07 Bohr mag/cell
     absolute magnetization    =     0.16 Bohr mag/cell
[tb_dev] Currently allocated     1.76E+01 Mbytes, locked:    0 /   9
[tb_pin] Currently allocated     0.00E+00 Mbytes, locked:    0 /   0

     iteration # 57     ecut=    60.00 Ry     beta= 0.40
     Davidson diagonalization with overlap

---- Real-time Memory Report at c_bands before calling an iterative solver
          6425 MiB given to the printing process from OS
          1368 MiB allocation reported by mallinfo(arena+hblkhd)
         45820 MiB available memory on the node where the printing process lives
     GPU memory used/free/total (MiB): 5818 / 10462 / 16280
------------------
     ethr =  4.23E-04,  avg # of iterations =  1.0
     Minimization algorithm failed to find Fermi energy: reverting to bisection
     Possible cause: smearing is larger than the electronic band-gap.

     total cpu time spent up to now is     1141.1 secs

     WARNING: integrated charge=    88.00007500, expected=    88.00000000

     total energy              =   -1264.35599845 Ry
     estimated scf accuracy    <       5.45069441 Ry

     total magnetization       =    -0.43 Bohr mag/cell
     absolute magnetization    =     0.43 Bohr mag/cell
[tb_dev] Currently allocated     1.76E+01 Mbytes, locked:    0 /   9
[tb_pin] Currently allocated     0.00E+00 Mbytes, locked:    0 /   0

     iteration # 58     ecut=    60.00 Ry     beta= 0.40
     Davidson diagonalization with overlap

---- Real-time Memory Report at c_bands before calling an iterative solver
          6437 MiB given to the printing process from OS
          1379 MiB allocation reported by mallinfo(arena+hblkhd)
         45807 MiB available memory on the node where the printing process lives
     GPU memory used/free/total (MiB): 5818 / 10462 / 16280
------------------
     ethr =  4.23E-04,  avg # of iterations =  1.0

     total cpu time spent up to now is     1157.0 secs

     WARNING: integrated charge=    87.99889379, expected=    88.00000000

     total energy              =   -1263.61014262 Ry
     estimated scf accuracy    <       6.21746575 Ry

     total magnetization       =    -0.00 Bohr mag/cell
     absolute magnetization    =     0.03 Bohr mag/cell
[tb_dev] Currently allocated     1.76E+01 Mbytes, locked:    0 /   9
[tb_pin] Currently allocated     0.00E+00 Mbytes, locked:    0 /   0

     iteration # 59     ecut=    60.00 Ry     beta= 0.40
     Davidson diagonalization with overlap

---- Real-time Memory Report at c_bands before calling an iterative solver
          6450 MiB given to the printing process from OS
          1391 MiB allocation reported by mallinfo(arena+hblkhd)
         45798 MiB available memory on the node where the printing process lives
     GPU memory used/free/total (MiB): 5818 / 10462 / 16280
------------------
     ethr =  4.23E-04,  avg # of iterations =  3.8

     total cpu time spent up to now is     1176.8 secs

     WARNING: integrated charge=    87.99960608, expected=    88.00000000

     total energy              =   -1264.27892879 Ry
     estimated scf accuracy    <       4.19966590 Ry

     total magnetization       =     0.55 Bohr mag/cell
     absolute magnetization    =     1.91 Bohr mag/cell
[tb_dev] Currently allocated     1.76E+01 Mbytes, locked:    0 /   9
[tb_pin] Currently allocated     0.00E+00 Mbytes, locked:    0 /   0

     iteration # 60     ecut=    60.00 Ry     beta= 0.40
     Davidson diagonalization with overlap

---- Real-time Memory Report at c_bands before calling an iterative solver
          6461 MiB given to the printing process from OS
          1403 MiB allocation reported by mallinfo(arena+hblkhd)
         45787 MiB available memory on the node where the printing process lives
     GPU memory used/free/total (MiB): 5818 / 10462 / 16280
------------------
     ethr =  4.23E-04,  avg # of iterations =  4.6

     total cpu time spent up to now is     1196.6 secs

     WARNING: integrated charge=    87.99954146, expected=    88.00000000

     total energy              =   -1263.24726441 Ry
     estimated scf accuracy    <      23.32935059 Ry

     total magnetization       =    -0.04 Bohr mag/cell
     absolute magnetization    =     1.22 Bohr mag/cell
[tb_dev] Currently allocated     1.76E+01 Mbytes, locked:    0 /   9
[tb_pin] Currently allocated     0.00E+00 Mbytes, locked:    0 /   0

     iteration # 61     ecut=    60.00 Ry     beta= 0.40
     Davidson diagonalization with overlap

---- Real-time Memory Report at c_bands before calling an iterative solver
          6472 MiB given to the printing process from OS
          1415 MiB allocation reported by mallinfo(arena+hblkhd)
         45778 MiB available memory on the node where the printing process lives
     GPU memory used/free/total (MiB): 5818 / 10462 / 16280
------------------
     ethr =  4.23E-04,  avg # of iterations =  4.2

     total cpu time spent up to now is     1216.9 secs

     WARNING: integrated charge=    88.00018948, expected=    88.00000000

     total energy              =   -1264.00386078 Ry
     estimated scf accuracy    <       1.47191170 Ry

     total magnetization       =     2.00 Bohr mag/cell
     absolute magnetization    =     2.15 Bohr mag/cell
[tb_dev] Currently allocated     1.76E+01 Mbytes, locked:    0 /   9
[tb_pin] Currently allocated     0.00E+00 Mbytes, locked:    0 /   0

     iteration # 62     ecut=    60.00 Ry     beta= 0.40
     Davidson diagonalization with overlap

---- Real-time Memory Report at c_bands before calling an iterative solver
[...]
          6539 MiB given to the printing process from OS
          1474 MiB allocation reported by mallinfo(arena+hblkhd)
         45719 MiB available memory on the node where the printing process lives
     GPU memory used/free/total (MiB): 5818 / 10462 / 16280
------------------
     ethr =  4.23E-04,  avg # of iterations =  1.0

     total cpu time spent up to now is     1296.6 secs

     WARNING: integrated charge=    88.00520408, expected=    88.00000000

     total energy              =   -1264.05848354 Ry
     estimated scf accuracy    <       3.97756067 Ry

     total magnetization       =     0.40 Bohr mag/cell
     absolute magnetization    =     0.63 Bohr mag/cell
[tb_dev] Currently allocated     1.76E+01 Mbytes, locked:    0 /   9
[tb_pin] Currently allocated     0.00E+00 Mbytes, locked:    0 /   0

     iteration # 67     ecut=    60.00 Ry     beta= 0.40
     Davidson diagonalization with overlap

---- Real-time Memory Report at c_bands before calling an iterative solver
          6550 MiB given to the printing process from OS
          1485 MiB allocation reported by mallinfo(arena+hblkhd)
         45708 MiB available memory on the node where the printing process lives
     GPU memory used/free/total (MiB): 5818 / 10462 / 16280
------------------
     ethr =  4.23E-04,  avg # of iterations =  1.0

     total cpu time spent up to now is     1312.4 secs

     WARNING: integrated charge=    88.00445681, expected=    88.00000000

     total energy              =   -1263.98213001 Ry
     estimated scf accuracy    <       2.75300847 Ry

     total magnetization       =     0.97 Bohr mag/cell
     absolute magnetization    =     1.23 Bohr mag/cell
[tb_dev] Currently allocated     1.76E+01 Mbytes, locked:    0 /   9
[tb_pin] Currently allocated     0.00E+00 Mbytes, locked:    0 /   0

     iteration # 68     ecut=    60.00 Ry     beta= 0.40
     Davidson diagonalization with overlap

---- Real-time Memory Report at c_bands before calling an iterative solver
          6562 MiB given to the printing process from OS
          1497 MiB allocation reported by mallinfo(arena+hblkhd)
         45696 MiB available memory on the node where the printing process lives
     GPU memory used/free/total (MiB): 5818 / 10462 / 16280
------------------
     ethr =  4.23E-04,  avg # of iterations =  1.0

     total cpu time spent up to now is     1328.4 secs

     WARNING: integrated charge=    88.00174672, expected=    88.00000000

     total energy              =   -1263.99115362 Ry
     estimated scf accuracy    <       0.55362299 Ry

     total magnetization       =     2.69 Bohr mag/cell
     absolute magnetization    =     2.84 Bohr mag/cell
[tb_dev] Currently allocated     1.76E+01 Mbytes, locked:    0 /   9
[tb_pin] Currently allocated     0.00E+00 Mbytes, locked:    0 /   0

     iteration # 69     ecut=    60.00 Ry     beta= 0.40
     Davidson diagonalization with overlap

---- Real-time Memory Report at c_bands before calling an iterative solver
          6575 MiB given to the printing process from OS
          1509 MiB allocation reported by mallinfo(arena+hblkhd)
         45664 MiB available memory on the node where the printing process lives
     GPU memory used/free/total (MiB): 5818 / 10462 / 16280
------------------
     ethr =  4.23E-04,  avg # of iterations =  1.0

     total cpu time spent up to now is     1344.3 secs

     WARNING: integrated charge=    88.00563712, expected=    88.00000000

     total energy              =   -1263.96726057 Ry
     estimated scf accuracy    <       0.71248582 Ry

     total magnetization       =     2.53 Bohr mag/cell
     absolute magnetization    =     2.64 Bohr mag/cell
[tb_dev] Currently allocated     1.76E+01 Mbytes, locked:    0 /   9
[tb_pin] Currently allocated     0.00E+00 Mbytes, locked:    0 /   0

     iteration # 70     ecut=    60.00 Ry     beta= 0.40
     Davidson diagonalization with overlap

---- Real-time Memory Report at c_bands before calling an iterative solver
          6594 MiB given to the printing process from OS
          1521 MiB allocation reported by mallinfo(arena+hblkhd)
         45653 MiB available memory on the node where the printing process lives
     GPU memory used/free/total (MiB): 5818 / 10462 / 16280
------------------
     ethr =  4.23E-04,  avg # of iterations =  1.6

     total cpu time spent up to now is     1361.0 secs

     WARNING: integrated charge=    88.01180305, expected=    88.00000000

     total energy              =   -1264.13506553 Ry
     estimated scf accuracy    <       2.21785212 Ry

     total magnetization       =     5.84 Bohr mag/cell
     absolute magnetization    =     6.22 Bohr mag/cell
[tb_dev] Currently allocated     1.76E+01 Mbytes, locked:    0 /   9
[tb_pin] Currently allocated     0.00E+00 Mbytes, locked:    0 /   0

     iteration # 71     ecut=    60.00 Ry     beta= 0.40
     Davidson diagonalization with overlap

---- Real-time Memory Report at c_bands before calling an iterative solver
          6606 MiB given to the printing process from OS
          1532 MiB allocation reported by mallinfo(arena+hblkhd)
         45647 MiB available memory on the node where the printing process lives
     GPU memory used/free/total (MiB): 5818 / 10462 / 16280
------------------
     ethr =  4.23E-04,  avg # of iterations =  1.0

     total cpu time spent up to now is     1376.9 secs

     WARNING: integrated charge=    88.00741785, expected=    88.00000000

     total energy              =   -1264.12017687 Ry
     estimated scf accuracy    <       1.48993624 Ry

     total magnetization       =     5.64 Bohr mag/cell
     absolute magnetization    =     6.07 Bohr mag/cell
[tb_dev] Currently allocated     1.76E+01 Mbytes, locked:    0 /   9
[tb_pin] Currently allocated     0.00E+00 Mbytes, locked:    0 /   0

     iteration # 72     ecut=    60.00 Ry     beta= 0.40
     Davidson diagonalization with overlap

---- Real-time Memory Report at c_bands before calling an iterative solver
          6617 MiB given to the printing process from OS
          1544 MiB allocation reported by mallinfo(arena+hblkhd)
         45639 MiB available memory on the node where the printing process lives
     GPU memory used/free/total (MiB): 5818 / 10462 / 16280
------------------
     ethr =  4.23E-04,  avg # of iterations =  1.0

     total cpu time spent up to now is     1393.0 secs

     WARNING: integrated charge=    88.00273809, expected=    88.00000000

     total energy              =   -1264.11129012 Ry
     estimated scf accuracy    <       1.08692848 Ry

     total magnetization       =     5.39 Bohr mag/cell
     absolute magnetization    =     5.88 Bohr mag/cell
[tb_dev] Currently allocated     1.76E+01 Mbytes, locked:    0 /   9
[tb_pin] Currently allocated     0.00E+00 Mbytes, locked:    0 /   0

     iteration # 73     ecut=    60.00 Ry     beta= 0.40
     Davidson diagonalization with overlap

---- Real-time Memory Report at c_bands before calling an iterative solver
          6629 MiB given to the printing process from OS
          1556 MiB allocation reported by mallinfo(arena+hblkhd)
         45628 MiB available memory on the node where the printing process lives
     GPU memory used/free/total (MiB): 5818 / 10462 / 16280
------------------
     ethr =  4.23E-04,  avg # of iterations =  1.0

     total cpu time spent up to now is     1409.0 secs

     WARNING: integrated charge=    88.00250494, expected=    88.00000000

     total energy              =   -1264.11464336 Ry
     estimated scf accuracy    <       0.52700817 Ry

     total magnetization       =     5.02 Bohr mag/cell
     absolute magnetization    =     5.65 Bohr mag/cell
[tb_dev] Currently allocated     1.76E+01 Mbytes, locked:    0 /   9
[tb_pin] Currently allocated     0.00E+00 Mbytes, locked:    0 /   0

     iteration # 74     ecut=    60.00 Ry     beta= 0.40
     Davidson diagonalization with overlap

---- Real-time Memory Report at c_bands before calling an iterative solver
          6640 MiB given to the printing process from OS
          1568 MiB allocation reported by mallinfo(arena+hblkhd)
         45619 MiB available memory on the node where the printing process lives
     GPU memory used/free/total (MiB): 5818 / 10462 / 16280
------------------
     ethr =  4.23E-04,  avg # of iterations =  1.0

     total cpu time spent up to now is     1424.9 secs

     WARNING: integrated charge=    88.00041228, expected=    88.00000000

     total energy              =   -1264.10597687 Ry
     estimated scf accuracy    <       0.42615448 Ry

     total magnetization       =     4.94 Bohr mag/cell
     absolute magnetization    =     5.60 Bohr mag/cell
[tb_dev] Currently allocated     1.76E+01 Mbytes, locked:    0 /   9
[tb_pin] Currently allocated     0.00E+00 Mbytes, locked:    0 /   0

     iteration # 75     ecut=    60.00 Ry     beta= 0.40
     Davidson diagonalization with overlap

---- Real-time Memory Report at c_bands before calling an iterative solver
          6652 MiB given to the printing process from OS
          1579 MiB allocation reported by mallinfo(arena+hblkhd)
         45605 MiB available memory on the node where the printing process lives
     GPU memory used/free/total (MiB): 5818 / 10462 / 16280
------------------
     ethr =  4.23E-04,  avg # of iterations =  1.0

     total cpu time spent up to now is     1440.8 secs

     WARNING: integrated charge=    87.99641174, expected=    88.00000000

     total energy              =   -1264.11042336 Ry
     estimated scf accuracy    <       0.09433781 Ry

     total magnetization       =     4.55 Bohr mag/cell
     absolute magnetization    =     5.17 Bohr mag/cell
[tb_dev] Currently allocated     1.76E+01 Mbytes, locked:    0 /   9
[tb_pin] Currently allocated     0.00E+00 Mbytes, locked:    0 /   0

     iteration # 76     ecut=    60.00 Ry     beta= 0.40
     Davidson diagonalization with overlap

---- Real-time Memory Report at c_bands before calling an iterative solver
          6665 MiB given to the printing process from OS
          1591 MiB allocation reported by mallinfo(arena+hblkhd)
         45597 MiB available memory on the node where the printing process lives
     GPU memory used/free/total (MiB): 5818 / 10462 / 16280
------------------
     ethr =  1.07E-04,  avg # of iterations =  1.5

     total cpu time spent up to now is     1457.4 secs

     WARNING: integrated charge=    87.99864363, expected=    88.00000000

     total energy              =   -1264.11820510 Ry
     estimated scf accuracy    <       0.02815706 Ry

     total magnetization       =     4.13 Bohr mag/cell
     absolute magnetization    =     4.71 Bohr mag/cell
[tb_dev] Currently allocated     1.76E+01 Mbytes, locked:    0 /   9
[tb_pin] Currently allocated     0.00E+00 Mbytes, locked:    0 /   0

     iteration # 77     ecut=    60.00 Ry     beta= 0.40
     Davidson diagonalization with overlap

---- Real-time Memory Report at c_bands before calling an iterative solver
          6676 MiB given to the printing process from OS
          1603 MiB allocation reported by mallinfo(arena+hblkhd)
         45585 MiB available memory on the node where the printing process lives
     GPU memory used/free/total (MiB): 5818 / 10462 / 16280
------------------
     ethr =  3.20E-05,  avg # of iterations =  1.5
     Minimization algorithm failed to find Fermi energy: reverting to bisection
     Possible cause: smearing is larger than the electronic band-gap.

     total cpu time spent up to now is     1473.8 secs

     WARNING: integrated charge=    88.00123103, expected=    88.00000000

     total energy              =   -1264.12200427 Ry
     estimated scf accuracy    <       0.01338716 Ry

     total magnetization       =     4.20 Bohr mag/cell
     absolute magnetization    =     4.76 Bohr mag/cell
[tb_dev] Currently allocated     1.76E+01 Mbytes, locked:    0 /   9
[tb_pin] Currently allocated     0.00E+00 Mbytes, locked:    0 /   0

     iteration # 78     ecut=    60.00 Ry     beta= 0.40
     Davidson diagonalization with overlap

---- Real-time Memory Report at c_bands before calling an iterative solver
          6688 MiB given to the printing process from OS
          1615 MiB allocation reported by mallinfo(arena+hblkhd)
         45575 MiB available memory on the node where the printing process lives
     GPU memory used/free/total (MiB): 5818 / 10462 / 16280
------------------
     ethr =  1.52E-05,  avg # of iterations =  2.0

     total cpu time spent up to now is     1491.5 secs

     WARNING: integrated charge=    88.00112154, expected=    88.00000000

     total energy              =   -1264.12348055 Ry
     estimated scf accuracy    <       0.02828479 Ry

     total magnetization       =     4.47 Bohr mag/cell
     absolute magnetization    =     5.05 Bohr mag/cell
[tb_dev] Currently allocated     1.76E+01 Mbytes, locked:    0 /   9
[tb_pin] Currently allocated     0.00E+00 Mbytes, locked:    0 /   0

     iteration # 79     ecut=    60.00 Ry     beta= 0.40
     Davidson diagonalization with overlap

---- Real-time Memory Report at c_bands before calling an iterative solver
          6700 MiB given to the printing process from OS
          1627 MiB allocation reported by mallinfo(arena+hblkhd)
         45563 MiB available memory on the node where the printing process lives
     GPU memory used/free/total (MiB): 5818 / 10462 / 16280
------------------
     ethr =  1.52E-05,  avg # of iterations =  1.6

     total cpu time spent up to now is     1508.0 secs

     WARNING: integrated charge=    88.00025453, expected=    88.00000000

     total energy              =   -1264.12488985 Ry
     estimated scf accuracy    <       0.00387005 Ry

     total magnetization       =     4.28 Bohr mag/cell
     absolute magnetization    =     4.85 Bohr mag/cell
[tb_dev] Currently allocated     1.76E+01 Mbytes, locked:    0 /   9
[tb_pin] Currently allocated     0.00E+00 Mbytes, locked:    0 /   0

     iteration # 80     ecut=    60.00 Ry     beta= 0.40
     Davidson diagonalization with overlap

---- Real-time Memory Report at c_bands before calling an iterative solver
          6711 MiB given to the printing process from OS
          1638 MiB allocation reported by mallinfo(arena+hblkhd)
         45552 MiB available memory on the node where the printing process lives
     GPU memory used/free/total (MiB): 5818 / 10462 / 16280
------------------
     ethr =  4.40E-06,  avg # of iterations =  2.2

     total cpu time spent up to now is     1525.1 secs

     WARNING: integrated charge=    88.00055511, expected=    88.00000000

     total energy              =   -1264.12525575 Ry
     estimated scf accuracy    <       0.00636445 Ry

     total magnetization       =     4.17 Bohr mag/cell
     absolute magnetization    =     4.74 Bohr mag/cell

     End of self-consistent calculation

     convergence NOT achieved after  80 iterations: stopping

     Writing config to output data dir ./out/aiida.save/
 
     init_run     :     60.31s CPU     22.93s WALL (       1 calls)
     electrons    :   3401.83s CPU   1501.75s WALL (       1 calls)

     Called by init_run:
     wfcinit      :     11.76s CPU     15.58s WALL (       1 calls)
                                       15.58s GPU  (       1 calls)
     wfcinit:atom :      0.06s CPU      0.23s WALL (     132 calls)
                                        0.23s GPU  (     132 calls)
     wfcinit:wfcr :      5.59s CPU      6.56s WALL (     132 calls)
                                        6.56s GPU  (     132 calls)
     potinit      :     32.52s CPU      2.97s WALL (       1 calls)
     hinit0       :      8.84s CPU      2.88s WALL (       1 calls)

     Called by electrons:
     c_bands      :   1000.90s CPU   1054.43s WALL (      80 calls)
     sum_band     :    236.50s CPU    244.10s WALL (      80 calls)
     v_of_rho     :     75.19s CPU      9.73s WALL (      81 calls)
     v_h          :     14.86s CPU      1.40s WALL (      81 calls)
     v_xc         :     60.32s CPU      8.33s WALL (      81 calls)
     newd         :    174.39s CPU     17.48s WALL (      81 calls)
                                       17.48s GPU  (      81 calls)
     PAW_pot      :   1768.23s CPU    160.27s WALL (      81 calls)
     mix_rho      :    138.25s CPU     13.76s WALL (      80 calls)

     Called by c_bands:
     init_us_2    :     30.03s CPU     40.32s WALL (   21252 calls)
     init_us_2:gp :     29.59s CPU     39.90s WALL (   21252 calls)
     cegterg      :    793.97s CPU    830.85s WALL (   10560 calls)

     Called by sum_band:
     sum_band:wei :      0.64s CPU      0.64s WALL (      80 calls)
                                        0.64s GPU  (      80 calls)
     sum_band:loo :    211.50s CPU    218.94s WALL (      80 calls)
                                      218.94s GPU  (      80 calls)
     sum_band:buf :     87.67s CPU     88.64s WALL (   10560 calls)
                                       88.57s GPU  (   10560 calls)
     sum_band:ini :     14.46s CPU     16.73s WALL (   10560 calls)
                                       16.67s GPU  (   10560 calls)
     sum_band:cal :      0.45s CPU      8.87s WALL (   10560 calls)
                                        7.23s GPU  (   10560 calls)
     sum_band:bec :      2.73s CPU      2.91s WALL (   10560 calls)
                                        2.84s GPU  (   10560 calls)
     addusdens    :     15.43s CPU     15.57s WALL (      80 calls)
                                       15.57s GPU  (      80 calls)
     addusd:skk   :      0.05s CPU      0.05s WALL (     160 calls)
                                        0.05s GPU  (     160 calls)

     Called by *egterg:
     cdiaghg      :    158.86s CPU    183.19s WALL (   40438 calls)
                                      182.91s GPU  (   40438 calls)
     cegterg:over :     22.85s CPU     23.53s WALL (   29878 calls)
     cegterg:upda :     21.98s CPU     23.50s WALL (   29878 calls)
     cegterg:last :     16.93s CPU     17.43s WALL (   18278 calls)
     h_psi        :    522.49s CPU    532.03s WALL (   40570 calls)
                                      530.64s GPU  (   40570 calls)
     s_psi        :      7.27s CPU     26.34s WALL (   40570 calls)
                                       23.47s GPU  (   40570 calls)
     g_psi        :      0.22s CPU      3.09s WALL (   29878 calls)
                                        2.90s GPU  (   29878 calls)

     Called by h_psi:
     h_psi:calbec :      1.47s CPU     22.93s WALL (   40570 calls)
                                       22.67s GPU  (   40570 calls)
     vloc_psi     :    468.07s CPU    476.47s WALL (   40570 calls)
                                      476.21s GPU  (   40570 calls)
     add_vuspsi   :      8.38s CPU     25.96s WALL (   40570 calls)
                                       25.69s GPU  (   40570 calls)

     General routines
     calbec       :      1.44s CPU      1.49s WALL (   51130 calls)
     fft          :      5.07s CPU      1.17s WALL (    2023 calls)
                                        0.87s GPU  (    1861 calls)
     ffts         :      0.28s CPU      0.12s WALL (     322 calls)
                                        0.03s GPU  (     160 calls)
     fftw         :      5.06s CPU    402.62s WALL (  262310 calls)
                                      399.93s GPU  (  262310 calls)
     interpolate  :     18.01s CPU      1.57s WALL (     162 calls)
     davcio       :      0.10s CPU      2.58s WALL (     150 calls)
 
     Parallel routines

     PAW routines
     PAW_pot      :   1768.23s CPU    160.27s WALL (      81 calls)
     PAW_symme    :      0.40s CPU      0.06s WALL (     161 calls)
 
     PWSCF        :  57m45.30s CPU  25m28.71s WALL

 
   This run was terminated on:  18: 8:54  23Oct2023            

=------------------------------------------------------------------------------=
   JOB DONE.
=------------------------------------------------------------------------------=
