
     Program PWSCF v.7.2 starts on 29Nov2023 at 20:28: 9 
        Git branch: develop
        Last git commit: 9055681be6fc8200e6fffe76ed5fda34c2696339
        Last git commit date: Wed Nov 8 16:29:39 2023 +0000
        Last git commit subject: Merge branch 'calbec_fix' into 'develop'

     This program is part of the open-source Quantum ESPRESSO suite
     for quantum simulation of materials; please cite
         "P. Giannozzi et al., J. Phys.:Condens. Matter 21 395502 (2009);
         "P. Giannozzi et al., J. Phys.:Condens. Matter 29 465901 (2017);
         "P. Giannozzi et al., J. Chem. Phys. 152 154105 (2020);
          URL http://www.quantum-espresso.org", 
     in publications or presentations arising from this work. More details at
     http://www.quantum-espresso.org/quote

     Parallel version (MPI), running on    56 processors

     MPI processes distributed on     1 nodes
     491282 MiB available memory on the printing compute node when the environment starts

     Reading input from aiida.in

     Current dimensions of program PWSCF are:
     Max number of different atomic species (ntypx) = 10
     Max number of k-points (npk) =  40000
     Max angular momentum in pseudopotentials (lmaxx) =  4
     file K.pbesol-spn-kjpaw_psl.1.0.0.UPF: wavefunction(s)  3S renormalized
     Message from routine setup:
     using ibrav=0 with symmetry is DISCOURAGED, use correct ibrav instead

     K-points division:     npool     =       7
     R & G space division:  proc/nbgrp/npool/nimage =       8
     Subspace diagonalization in iterative solution of the eigenvalue problem:
     a serial algorithm will be used


     Parallelization info
     --------------------
     sticks:   dense  smooth     PW     G-vecs:    dense   smooth      PW
     Min         474     236     68                19176     6773    1045
     Max         475     237     69                19178     6776    1046
     Sum        3793    1891    547               153421    54193    8363

     Using Slab Decomposition



     bravais-lattice index     =            0
     lattice parameter (alat)  =      10.6832  a.u.
     unit-cell volume          =     862.1682 (a.u.)^3
     number of atoms/cell      =           10
     number of atomic types    =            4
     number of electrons       =        80.00
     number of Kohn-Sham states=           48
     kinetic-energy cutoff     =      60.0000  Ry
     charge density cutoff     =     480.0000  Ry
     scf convergence threshold =      2.0E-09
     mixing beta               =       0.4000
     number of iterations used =            8  plain     mixing
     Exchange-correlation= SLA  PW   PSX  PSC
                           (   1   4  10   8   0   0   0)

     celldm(1)=  10.683224  celldm(2)=   0.000000  celldm(3)=   0.000000
     celldm(4)=   0.000000  celldm(5)=   0.000000  celldm(6)=   0.000000

     crystal axes: (cart. coord. in units of alat)
               a(1) = (   0.000000   0.707107   0.707107 )  
               a(2) = (   0.707107   0.000000   0.707107 )  
               a(3) = (   0.707107   0.707107   0.000000 )  

     reciprocal axes: (cart. coord. in units 2 pi/alat)
               b(1) = ( -0.707107  0.707107  0.707107 )  
               b(2) = (  0.707107 -0.707107  0.707107 )  
               b(3) = (  0.707107  0.707107 -0.707107 )  


     PseudoPot. # 1 for Co read from file:
     ./pseudo/co_pbesol_v1.2.uspp.F.UPF
     MD5 check sum: 3b4cd4e7cc7df4da9fdede0fd33e2193
     Pseudo is Ultrasoft + core correction, Zval = 17.0
     Generated by new atomic code, or converted to UPF format
     Using radial grid of  863 points,  6 beta functions with: 
                l(1) =   0
                l(2) =   0
                l(3) =   1
                l(4) =   1
                l(5) =   2
                l(6) =   2
     Q(r) pseudized with  8 coefficients,  rinner =    1.200   1.200   1.200
                                                       1.200   1.200

     PseudoPot. # 2 for F  read from file:
     ./pseudo/f_pbesol_v1.4.uspp.F.UPF
     MD5 check sum: d2815ecb49b17b99c5724ffd2f9bbd8d
     Pseudo is Ultrasoft, Zval =  7.0
     Generated by new atomic code, or converted to UPF format
     Using radial grid of  799 points,  4 beta functions with: 
                l(1) =   0
                l(2) =   0
                l(3) =   1
                l(4) =   1
     Q(r) pseudized with  8 coefficients,  rinner =    0.950   0.950   0.950


     PseudoPot. # 3 for K  read from file:
     ./pseudo/K.pbesol-spn-kjpaw_psl.1.0.0.UPF
     MD5 check sum: b302bede38c4f5fe00638ceae66f121b
     Pseudo is Projector augmented-wave + core cor, Zval =  9.0
     Generated using "atomic" code by A. Dal Corso  v.6.0 svn rev. 13079
     Shape of augmentation charge: PSQ
     Using radial grid of 1165 points,  6 beta functions with: 
                l(1) =   0
                l(2) =   0
                l(3) =   1
                l(4) =   1
                l(5) =   2
                l(6) =   2
     Q(r) pseudized with 0 coefficients 


     PseudoPot. # 4 for Li read from file:
     ./pseudo/li_pbesol_v1.4.uspp.F.UPF
     MD5 check sum: aa28d9aeea6a965f2dc95ee9517b3536
     Pseudo is Ultrasoft, Zval =  3.0
     Generated by new atomic code, or converted to UPF format
     Using radial grid of  751 points,  5 beta functions with: 
                l(1) =   0
                l(2) =   0
                l(3) =   0
                l(4) =   1
                l(5) =   1
     Q(r) pseudized with 10 coefficients,  rinner =    1.150   1.150   1.150


     atomic species   valence    mass     pseudopotential
     Co               17.00    58.93319     Co( 1.00)
     F                 7.00    18.99840     F ( 1.00)
     K                 9.00    39.09830     K ( 1.00)
     Li                3.00     6.94100     Li( 1.00)

     Starting magnetic structure 
     atomic species   magnetization
     Co              0.294
     F               0.100
     K               0.100
     Li              0.100

     48 Sym. Ops., with inversion, found


                                    s                        frac. trans.

      isym =  1     identity                                     

 cryst.   s( 1) = (     1          0          0      )
                  (     0          1          0      )
                  (     0          0          1      )

 cart.    s( 1) = (  1.0000000 -0.0000000  0.0000000 )
                  ( -0.0000000  1.0000000  0.0000000 )
                  ( -0.0000000  0.0000000  1.0000000 )


      isym =  2     180 deg rotation - cart. axis [0,0,1]        

 cryst.   s( 2) = (     0          1         -1      )
                  (     1          0         -1      )
                  (     0          0         -1      )

 cart.    s( 2) = ( -1.0000000  0.0000000  0.0000000 )
                  (  0.0000000 -1.0000000  0.0000000 )
                  (  0.0000000 -0.0000000  1.0000000 )


      isym =  3     180 deg rotation - cart. axis [0,1,0]        

 cryst.   s( 3) = (     0         -1          1      )
                  (     0         -1          0      )
                  (     1         -1          0      )

 cart.    s( 3) = ( -1.0000000 -0.0000000 -0.0000000 )
                  (  0.0000000  1.0000000 -0.0000000 )
                  (  0.0000000  0.0000000 -1.0000000 )


      isym =  4     180 deg rotation - cart. axis [1,0,0]        

 cryst.   s( 4) = (    -1          0          0      )
                  (    -1          0          1      )
                  (    -1          1          0      )

 cart.    s( 4) = (  1.0000000  0.0000000 -0.0000000 )
                  ( -0.0000000 -1.0000000 -0.0000000 )
                  ( -0.0000000 -0.0000000 -1.0000000 )


      isym =  5     180 deg rotation - cart. axis [1,1,0]        

 cryst.   s( 5) = (    -1          0          1      )
                  (     0         -1          1      )
                  (     0          0          1      )

 cart.    s( 5) = ( -0.0000000  1.0000000 -0.0000000 )
                  (  1.0000000 -0.0000000 -0.0000000 )
                  (  0.0000000 -0.0000000 -1.0000000 )


      isym =  6     180 deg rotation - cart. axis [1,-1,0]       

 cryst.   s( 6) = (     0         -1          0      )
                  (    -1          0          0      )
                  (     0          0         -1      )

 cart.    s( 6) = (  0.0000000 -1.0000000 -0.0000000 )
                  ( -1.0000000  0.0000000 -0.0000000 )
                  ( -0.0000000  0.0000000 -1.0000000 )


      isym =  7      90 deg rotation - cart. axis [0,0,-1]       

 cryst.   s( 7) = (     0          1          0      )
                  (     0          1         -1      )
                  (    -1          1          0      )

 cart.    s( 7) = (  0.0000000  1.0000000  0.0000000 )
                  ( -1.0000000 -0.0000000  0.0000000 )
                  ( -0.0000000 -0.0000000  1.0000000 )


      isym =  8      90 deg rotation - cart. axis [0,0,1]        

 cryst.   s( 8) = (     1          0         -1      )
                  (     1          0          0      )
                  (     1         -1          0      )

 cart.    s( 8) = ( -0.0000000 -1.0000000  0.0000000 )
                  (  1.0000000  0.0000000  0.0000000 )
                  (  0.0000000  0.0000000  1.0000000 )


      isym =  9     180 deg rotation - cart. axis [1,0,1]        

 cryst.   s( 9) = (    -1          1          0      )
                  (     0          1          0      )
                  (     0          1         -1      )

 cart.    s( 9) = (  0.0000000  0.0000000  1.0000000 )
                  (  0.0000000 -1.0000000 -0.0000000 )
                  (  1.0000000 -0.0000000 -0.0000000 )


      isym = 10     180 deg rotation - cart. axis [-1,0,1]       

 cryst.   s(10) = (     0          0         -1      )
                  (     0         -1          0      )
                  (    -1          0          0      )

 cart.    s(10) = ( -0.0000000  0.0000000 -1.0000000 )
                  ( -0.0000000 -1.0000000  0.0000000 )
                  ( -1.0000000 -0.0000000  0.0000000 )


      isym = 11      90 deg rotation - cart. axis [0,1,0]        

 cryst.   s(11) = (     0          0          1      )
                  (    -1          0          1      )
                  (     0         -1          1      )

 cart.    s(11) = ( -0.0000000 -0.0000000  1.0000000 )
                  ( -0.0000000  1.0000000 -0.0000000 )
                  ( -1.0000000  0.0000000 -0.0000000 )


      isym = 12      90 deg rotation - cart. axis [0,-1,0]       

 cryst.   s(12) = (     1         -1          0      )
                  (     1          0         -1      )
                  (     1          0          0      )

 cart.    s(12) = (  0.0000000 -0.0000000 -1.0000000 )
                  (  0.0000000  1.0000000  0.0000000 )
                  (  1.0000000  0.0000000  0.0000000 )


      isym = 13     180 deg rotation - cart. axis [0,1,1]        

 cryst.   s(13) = (     1          0          0      )
                  (     1         -1          0      )
                  (     1          0         -1      )

 cart.    s(13) = ( -1.0000000  0.0000000 -0.0000000 )
                  (  0.0000000  0.0000000  1.0000000 )
                  (  0.0000000  1.0000000  0.0000000 )


      isym = 14     180 deg rotation - cart. axis [0,1,-1]       

 cryst.   s(14) = (    -1          0          0      )
                  (     0          0         -1      )
                  (     0         -1          0      )

 cart.    s(14) = ( -1.0000000 -0.0000000  0.0000000 )
                  (  0.0000000 -0.0000000 -1.0000000 )
                  (  0.0000000 -1.0000000 -0.0000000 )


      isym = 15      90 deg rotation - cart. axis [-1,0,0]       

 cryst.   s(15) = (     0         -1          1      )
                  (     0          0          1      )
                  (    -1          0          1      )

 cart.    s(15) = (  1.0000000 -0.0000000 -0.0000000 )
                  ( -0.0000000 -0.0000000  1.0000000 )
                  ( -0.0000000 -1.0000000  0.0000000 )


      isym = 16      90 deg rotation - cart. axis [1,0,0]        

 cryst.   s(16) = (     0          1         -1      )
                  (    -1          1          0      )
                  (     0          1          0      )

 cart.    s(16) = (  1.0000000  0.0000000  0.0000000 )
                  ( -0.0000000  0.0000000 -1.0000000 )
                  ( -0.0000000  1.0000000 -0.0000000 )


      isym = 17     120 deg rotation - cart. axis [-1,-1,-1]     

 cryst.   s(17) = (     0          0          1      )
                  (     1          0          0      )
                  (     0          1          0      )

 cart.    s(17) = (  0.0000000  1.0000000 -0.0000000 )
                  (  0.0000000 -0.0000000  1.0000000 )
                  (  1.0000000 -0.0000000  0.0000000 )


      isym = 18     120 deg rotation - cart. axis [-1,1,1]       

 cryst.   s(18) = (     1         -1          0      )
                  (     0         -1          1      )
                  (     0         -1          0      )

 cart.    s(18) = ( -0.0000000 -1.0000000 -0.0000000 )
                  ( -0.0000000  0.0000000  1.0000000 )
                  ( -1.0000000  0.0000000  0.0000000 )


      isym = 19     120 deg rotation - cart. axis [1,1,-1]       

 cryst.   s(19) = (    -1          1          0      )
                  (    -1          0          0      )
                  (    -1          0          1      )

 cart.    s(19) = ( -0.0000000  1.0000000  0.0000000 )
                  ( -0.0000000 -0.0000000 -1.0000000 )
                  ( -1.0000000 -0.0000000 -0.0000000 )


      isym = 20     120 deg rotation - cart. axis [1,-1,1]       

 cryst.   s(20) = (     0          0         -1      )
                  (     0          1         -1      )
                  (     1          0         -1      )

 cart.    s(20) = (  0.0000000 -1.0000000  0.0000000 )
                  (  0.0000000  0.0000000 -1.0000000 )
                  (  1.0000000  0.0000000 -0.0000000 )


      isym = 21     120 deg rotation - cart. axis [1,1,1]        

 cryst.   s(21) = (     0          1          0      )
                  (     0          0          1      )
                  (     1          0          0      )

 cart.    s(21) = ( -0.0000000  0.0000000  1.0000000 )
                  (  1.0000000  0.0000000 -0.0000000 )
                  (  0.0000000  1.0000000 -0.0000000 )


      isym = 22     120 deg rotation - cart. axis [-1,1,-1]      

 cryst.   s(22) = (    -1          0          1      )
                  (    -1          1          0      )
                  (    -1          0          0      )

 cart.    s(22) = (  0.0000000 -0.0000000  1.0000000 )
                  ( -1.0000000 -0.0000000 -0.0000000 )
                  ( -0.0000000 -1.0000000 -0.0000000 )


      isym = 23     120 deg rotation - cart. axis [1,-1,-1]      

 cryst.   s(23) = (     1          0         -1      )
                  (     0          0         -1      )
                  (     0          1         -1      )

 cart.    s(23) = (  0.0000000  0.0000000 -1.0000000 )
                  ( -1.0000000  0.0000000  0.0000000 )
                  ( -0.0000000  1.0000000  0.0000000 )


      isym = 24     120 deg rotation - cart. axis [-1,-1,1]      

 cryst.   s(24) = (     0         -1          0      )
                  (     1         -1          0      )
                  (     0         -1          1      )

 cart.    s(24) = ( -0.0000000 -0.0000000 -1.0000000 )
                  (  1.0000000 -0.0000000  0.0000000 )
                  (  0.0000000 -1.0000000  0.0000000 )


      isym = 25     inversion                                    

 cryst.   s(25) = (    -1          0          0      )
                  (     0         -1          0      )
                  (     0          0         -1      )

 cart.    s(25) = ( -1.0000000  0.0000000 -0.0000000 )
                  (  0.0000000 -1.0000000 -0.0000000 )
                  (  0.0000000 -0.0000000 -1.0000000 )


      isym = 26     inv. 180 deg rotation - cart. axis [0,0,1]   

 cryst.   s(26) = (     0         -1          1      )
                  (    -1          0          1      )
                  (     0          0          1      )

 cart.    s(26) = (  1.0000000 -0.0000000 -0.0000000 )
                  ( -0.0000000  1.0000000 -0.0000000 )
                  ( -0.0000000  0.0000000 -1.0000000 )


      isym = 27     inv. 180 deg rotation - cart. axis [0,1,0]   

 cryst.   s(27) = (     0          1         -1      )
                  (     0          1          0      )
                  (    -1          1          0      )

 cart.    s(27) = (  1.0000000  0.0000000  0.0000000 )
                  ( -0.0000000 -1.0000000  0.0000000 )
                  ( -0.0000000 -0.0000000  1.0000000 )


      isym = 28     inv. 180 deg rotation - cart. axis [1,0,0]   

 cryst.   s(28) = (     1          0          0      )
                  (     1          0         -1      )
                  (     1         -1          0      )

 cart.    s(28) = ( -1.0000000 -0.0000000  0.0000000 )
                  (  0.0000000  1.0000000  0.0000000 )
                  (  0.0000000  0.0000000  1.0000000 )


      isym = 29     inv. 180 deg rotation - cart. axis [1,1,0]   

 cryst.   s(29) = (     1          0         -1      )
                  (     0          1         -1      )
                  (     0          0         -1      )

 cart.    s(29) = (  0.0000000 -1.0000000  0.0000000 )
                  ( -1.0000000  0.0000000  0.0000000 )
                  ( -0.0000000  0.0000000  1.0000000 )


      isym = 30     inv. 180 deg rotation - cart. axis [1,-1,0]  

 cryst.   s(30) = (     0          1          0      )
                  (     1          0          0      )
                  (     0          0          1      )

 cart.    s(30) = ( -0.0000000  1.0000000  0.0000000 )
                  (  1.0000000 -0.0000000  0.0000000 )
                  (  0.0000000 -0.0000000  1.0000000 )


      isym = 31     inv.  90 deg rotation - cart. axis [0,0,-1]  

 cryst.   s(31) = (     0         -1          0      )
                  (     0         -1          1      )
                  (     1         -1          0      )

 cart.    s(31) = ( -0.0000000 -1.0000000 -0.0000000 )
                  (  1.0000000  0.0000000 -0.0000000 )
                  (  0.0000000  0.0000000 -1.0000000 )


      isym = 32     inv.  90 deg rotation - cart. axis [0,0,1]   

 cryst.   s(32) = (    -1          0          1      )
                  (    -1          0          0      )
                  (    -1          1          0      )

 cart.    s(32) = (  0.0000000  1.0000000 -0.0000000 )
                  ( -1.0000000 -0.0000000 -0.0000000 )
                  ( -0.0000000 -0.0000000 -1.0000000 )


      isym = 33     inv. 180 deg rotation - cart. axis [1,0,1]   

 cryst.   s(33) = (     1         -1          0      )
                  (     0         -1          0      )
                  (     0         -1          1      )

 cart.    s(33) = ( -0.0000000 -0.0000000 -1.0000000 )
                  ( -0.0000000  1.0000000  0.0000000 )
                  ( -1.0000000  0.0000000  0.0000000 )


      isym = 34     inv. 180 deg rotation - cart. axis [-1,0,1]  

 cryst.   s(34) = (     0          0          1      )
                  (     0          1          0      )
                  (     1          0          0      )

 cart.    s(34) = (  0.0000000 -0.0000000  1.0000000 )
                  (  0.0000000  1.0000000 -0.0000000 )
                  (  1.0000000  0.0000000 -0.0000000 )


      isym = 35     inv.  90 deg rotation - cart. axis [0,1,0]   

 cryst.   s(35) = (     0          0         -1      )
                  (     1          0         -1      )
                  (     0          1         -1      )

 cart.    s(35) = (  0.0000000  0.0000000 -1.0000000 )
                  (  0.0000000 -1.0000000  0.0000000 )
                  (  1.0000000 -0.0000000  0.0000000 )


      isym = 36     inv.  90 deg rotation - cart. axis [0,-1,0]  

 cryst.   s(36) = (    -1          1          0      )
                  (    -1          0          1      )
                  (    -1          0          0      )

 cart.    s(36) = ( -0.0000000  0.0000000  1.0000000 )
                  ( -0.0000000 -1.0000000 -0.0000000 )
                  ( -1.0000000 -0.0000000 -0.0000000 )


      isym = 37     inv. 180 deg rotation - cart. axis [0,1,1]   

 cryst.   s(37) = (    -1          0          0      )
                  (    -1          1          0      )
                  (    -1          0          1      )

 cart.    s(37) = (  1.0000000 -0.0000000  0.0000000 )
                  ( -0.0000000 -0.0000000 -1.0000000 )
                  ( -0.0000000 -1.0000000 -0.0000000 )


      isym = 38     inv. 180 deg rotation - cart. axis [0,1,-1]  

 cryst.   s(38) = (     1          0          0      )
                  (     0          0          1      )
                  (     0          1          0      )

 cart.    s(38) = (  1.0000000  0.0000000 -0.0000000 )
                  ( -0.0000000  0.0000000  1.0000000 )
                  ( -0.0000000  1.0000000  0.0000000 )


      isym = 39     inv.  90 deg rotation - cart. axis [-1,0,0]  

 cryst.   s(39) = (     0          1         -1      )
                  (     0          0         -1      )
                  (     1          0         -1      )

 cart.    s(39) = ( -1.0000000  0.0000000  0.0000000 )
                  (  0.0000000  0.0000000 -1.0000000 )
                  (  0.0000000  1.0000000 -0.0000000 )


      isym = 40     inv.  90 deg rotation - cart. axis [1,0,0]   

 cryst.   s(40) = (     0         -1          1      )
                  (     1         -1          0      )
                  (     0         -1          0      )

 cart.    s(40) = ( -1.0000000 -0.0000000 -0.0000000 )
                  (  0.0000000 -0.0000000  1.0000000 )
                  (  0.0000000 -1.0000000  0.0000000 )


      isym = 41     inv. 120 deg rotation - cart. axis [-1,-1,-1]

 cryst.   s(41) = (     0          0         -1      )
                  (    -1          0          0      )
                  (     0         -1          0      )

 cart.    s(41) = ( -0.0000000 -1.0000000  0.0000000 )
                  ( -0.0000000  0.0000000 -1.0000000 )
                  ( -1.0000000  0.0000000 -0.0000000 )


      isym = 42     inv. 120 deg rotation - cart. axis [-1,1,1]  

 cryst.   s(42) = (    -1          1          0      )
                  (     0          1         -1      )
                  (     0          1          0      )

 cart.    s(42) = (  0.0000000  1.0000000  0.0000000 )
                  (  0.0000000 -0.0000000 -1.0000000 )
                  (  1.0000000 -0.0000000 -0.0000000 )


      isym = 43     inv. 120 deg rotation - cart. axis [1,1,-1]  

 cryst.   s(43) = (     1         -1          0      )
                  (     1          0          0      )
                  (     1          0         -1      )

 cart.    s(43) = (  0.0000000 -1.0000000 -0.0000000 )
                  (  0.0000000  0.0000000  1.0000000 )
                  (  1.0000000  0.0000000  0.0000000 )


      isym = 44     inv. 120 deg rotation - cart. axis [1,-1,1]  

 cryst.   s(44) = (     0          0          1      )
                  (     0         -1          1      )
                  (    -1          0          1      )

 cart.    s(44) = ( -0.0000000  1.0000000 -0.0000000 )
                  ( -0.0000000 -0.0000000  1.0000000 )
                  ( -1.0000000 -0.0000000  0.0000000 )


      isym = 45     inv. 120 deg rotation - cart. axis [1,1,1]   

 cryst.   s(45) = (     0         -1          0      )
                  (     0          0         -1      )
                  (    -1          0          0      )

 cart.    s(45) = (  0.0000000 -0.0000000 -1.0000000 )
                  ( -1.0000000 -0.0000000  0.0000000 )
                  ( -0.0000000 -1.0000000  0.0000000 )


      isym = 46     inv. 120 deg rotation - cart. axis [-1,1,-1] 

 cryst.   s(46) = (     1          0         -1      )
                  (     1         -1          0      )
                  (     1          0          0      )

 cart.    s(46) = ( -0.0000000  0.0000000 -1.0000000 )
                  (  1.0000000  0.0000000  0.0000000 )
                  (  0.0000000  1.0000000  0.0000000 )


      isym = 47     inv. 120 deg rotation - cart. axis [1,-1,-1] 

 cryst.   s(47) = (    -1          0          1      )
                  (     0          0          1      )
                  (     0         -1          1      )

 cart.    s(47) = ( -0.0000000 -0.0000000  1.0000000 )
                  (  1.0000000 -0.0000000 -0.0000000 )
                  (  0.0000000 -1.0000000 -0.0000000 )


      isym = 48     inv. 120 deg rotation - cart. axis [-1,-1,1] 

 cryst.   s(48) = (     0          1          0      )
                  (    -1          1          0      )
                  (     0          1         -1      )

 cart.    s(48) = (  0.0000000  0.0000000  1.0000000 )
                  ( -1.0000000  0.0000000 -0.0000000 )
                  ( -0.0000000  1.0000000 -0.0000000 )


   Cartesian axes

     site n.     atom                  positions (alat units)
         1        K      tau(   1) = (   0.3535534   0.3535534   1.0606602  )
         2        K      tau(   2) = (   0.3535534   1.0606602   1.0606602  )
         3        Li     tau(   3) = (   0.7071068   0.0000000   0.0000000  )
         4        Co     tau(   4) = (   0.0000000   0.0000000   0.0000000  )
         5        F      tau(   5) = (   1.1087434   0.0000000   0.0000000  )
         6        F      tau(   6) = (   0.7071068   0.4016367  -0.0000000  )
         7        F      tau(   7) = (  -0.0000000  -0.0000000   1.1087434  )
         8        F      tau(   8) = (   0.7071068   0.0000000   1.0125769  )
         9        F      tau(   9) = (   0.7071068   1.0125769   0.0000000  )
        10        F      tau(  10) = (   0.3054701  -0.0000000  -0.0000000  )

   Crystallographic axes

     site n.     atom                  positions (cryst. coord.)
         1        K      tau(   1) = (  0.7500000  0.7500000 -0.2500000  )
         2        K      tau(   2) = (  1.2500000  0.2500000  0.2500000  )
         3        Li     tau(   3) = ( -0.5000000  0.5000000  0.5000000  )
         4        Co     tau(   4) = (  0.0000000  0.0000000  0.0000000  )
         5        F      tau(   5) = ( -0.7840000  0.7840000  0.7840000  )
         6        F      tau(   6) = ( -0.2160000  0.2160000  0.7840000  )
         7        F      tau(   7) = (  0.7840000  0.7840000 -0.7840000  )
         8        F      tau(   8) = (  0.2160000  1.2160000 -0.2160000  )
         9        F      tau(   9) = (  0.2160000 -0.2160000  1.2160000  )
        10        F      tau(  10) = ( -0.2160000  0.2160000  0.2160000  )

     number of k points=    47  Marzari-Vanderbilt smearing, width (Ry)=  0.0200
                       cart. coord. in units 2pi/alat
        k(    1) = (   0.0000000   0.0000000   0.0000000), wk =   0.0010000
        k(    2) = (   0.0707107   0.0707107  -0.0707107), wk =   0.0080000
        k(    3) = (   0.1414214   0.1414214  -0.1414214), wk =   0.0080000
        k(    4) = (   0.2121320   0.2121320  -0.2121320), wk =   0.0080000
        k(    5) = (   0.2828427   0.2828427  -0.2828427), wk =   0.0080000
        k(    6) = (  -0.3535534  -0.3535534   0.3535534), wk =   0.0040000
        k(    7) = (   0.1414214  -0.0000000   0.0000000), wk =   0.0060000
        k(    8) = (   0.2121320   0.0707107  -0.0707107), wk =   0.0240000
        k(    9) = (   0.2828427   0.1414214  -0.1414214), wk =   0.0240000
        k(   10) = (   0.3535534   0.2121320  -0.2121320), wk =   0.0240000
        k(   11) = (  -0.2828427  -0.4242641   0.4242641), wk =   0.0240000
        k(   12) = (  -0.2121320  -0.3535534   0.3535534), wk =   0.0240000
        k(   13) = (  -0.1414214  -0.2828427   0.2828427), wk =   0.0240000
        k(   14) = (  -0.0707107  -0.2121320   0.2121320), wk =   0.0240000
        k(   15) = (   0.0000000  -0.1414214   0.1414214), wk =   0.0120000
        k(   16) = (   0.2828427  -0.0000000   0.0000000), wk =   0.0060000
        k(   17) = (   0.3535534   0.0707107  -0.0707107), wk =   0.0240000
        k(   18) = (   0.4242641   0.1414214  -0.1414214), wk =   0.0240000
        k(   19) = (  -0.2121320  -0.4949747   0.4949747), wk =   0.0240000
        k(   20) = (  -0.1414214  -0.4242641   0.4242641), wk =   0.0240000
        k(   21) = (  -0.0707107  -0.3535534   0.3535534), wk =   0.0240000
        k(   22) = (   0.0000000  -0.2828427   0.2828427), wk =   0.0120000
        k(   23) = (   0.4242641   0.0000000  -0.0000000), wk =   0.0060000
        k(   24) = (   0.4949747   0.0707107  -0.0707107), wk =   0.0240000
        k(   25) = (  -0.1414214  -0.5656854   0.5656854), wk =   0.0240000
        k(   26) = (  -0.0707107  -0.4949747   0.4949747), wk =   0.0240000
        k(   27) = (  -0.0000000  -0.4242641   0.4242641), wk =   0.0120000
        k(   28) = (   0.5656854  -0.0000000   0.0000000), wk =   0.0060000
        k(   29) = (  -0.0707107  -0.6363961   0.6363961), wk =   0.0240000
        k(   30) = (   0.0000000  -0.5656854   0.5656854), wk =   0.0120000
        k(   31) = (  -0.7071068   0.0000000   0.0000000), wk =   0.0030000
        k(   32) = (   0.2828427   0.1414214   0.0000000), wk =   0.0240000
        k(   33) = (   0.3535534   0.2121320  -0.0707107), wk =   0.0480000
        k(   34) = (  -0.2828427  -0.4242641   0.5656854), wk =   0.0480000
        k(   35) = (  -0.2121320  -0.3535534   0.4949747), wk =   0.0240000
        k(   36) = (   0.4242641   0.1414214  -0.0000000), wk =   0.0240000
        k(   37) = (  -0.2121320  -0.4949747   0.6363961), wk =   0.0480000
        k(   38) = (  -0.1414214  -0.4242641   0.5656854), wk =   0.0480000
        k(   39) = (  -0.0707107  -0.3535534   0.4949747), wk =   0.0480000
        k(   40) = (   0.0000000  -0.2828427   0.4242641), wk =   0.0240000
        k(   41) = (  -0.1414214  -0.5656854   0.7071068), wk =   0.0240000
        k(   42) = (  -0.0707107  -0.4949747   0.6363961), wk =   0.0480000
        k(   43) = (   0.0000000  -0.4242641   0.5656854), wk =   0.0240000
        k(   44) = (  -0.7071068   0.1414214   0.0000000), wk =   0.0120000
        k(   45) = (  -0.1414214  -0.4242641   0.7071068), wk =   0.0240000
        k(   46) = (  -0.0707107  -0.3535534   0.6363961), wk =   0.0240000
        k(   47) = (  -0.7071068   0.2828427   0.0000000), wk =   0.0120000

                       cryst. coord.
        k(    1) = (   0.0000000   0.0000000   0.0000000), wk =   0.0010000
        k(    2) = (  -0.0000000  -0.0000000   0.1000000), wk =   0.0080000
        k(    3) = (  -0.0000000  -0.0000000   0.2000000), wk =   0.0080000
        k(    4) = (   0.0000000   0.0000000   0.3000000), wk =   0.0080000
        k(    5) = (  -0.0000000  -0.0000000   0.4000000), wk =   0.0080000
        k(    6) = (  -0.0000000  -0.0000000  -0.5000000), wk =   0.0040000
        k(    7) = (  -0.0000000   0.1000000   0.1000000), wk =   0.0060000
        k(    8) = (  -0.0000000   0.1000000   0.2000000), wk =   0.0240000
        k(    9) = (  -0.0000000   0.1000000   0.3000000), wk =   0.0240000
        k(   10) = (  -0.0000000   0.1000000   0.4000000), wk =   0.0240000
        k(   11) = (   0.0000000   0.1000000  -0.5000000), wk =   0.0240000
        k(   12) = (  -0.0000000   0.1000000  -0.4000000), wk =   0.0240000
        k(   13) = (   0.0000000   0.1000000  -0.3000000), wk =   0.0240000
        k(   14) = (  -0.0000000   0.1000000  -0.2000000), wk =   0.0240000
        k(   15) = (   0.0000000   0.1000000  -0.1000000), wk =   0.0120000
        k(   16) = (  -0.0000000   0.2000000   0.2000000), wk =   0.0060000
        k(   17) = (   0.0000000   0.2000000   0.3000000), wk =   0.0240000
        k(   18) = (  -0.0000000   0.2000000   0.4000000), wk =   0.0240000
        k(   19) = (   0.0000000   0.2000000  -0.5000000), wk =   0.0240000
        k(   20) = (   0.0000000   0.2000000  -0.4000000), wk =   0.0240000
        k(   21) = (   0.0000000   0.2000000  -0.3000000), wk =   0.0240000
        k(   22) = (   0.0000000   0.2000000  -0.2000000), wk =   0.0120000
        k(   23) = (   0.0000000   0.3000000   0.3000000), wk =   0.0060000
        k(   24) = (  -0.0000000   0.3000000   0.4000000), wk =   0.0240000
        k(   25) = (   0.0000000   0.3000000  -0.5000000), wk =   0.0240000
        k(   26) = (   0.0000000   0.3000000  -0.4000000), wk =   0.0240000
        k(   27) = (   0.0000000   0.3000000  -0.3000000), wk =   0.0120000
        k(   28) = (  -0.0000000   0.4000000   0.4000000), wk =   0.0060000
        k(   29) = (   0.0000000   0.4000000  -0.5000000), wk =   0.0240000
        k(   30) = (   0.0000000   0.4000000  -0.4000000), wk =   0.0120000
        k(   31) = (   0.0000000  -0.5000000  -0.5000000), wk =   0.0030000
        k(   32) = (   0.1000000   0.2000000   0.3000000), wk =   0.0240000
        k(   33) = (   0.1000000   0.2000000   0.4000000), wk =   0.0480000
        k(   34) = (   0.1000000   0.2000000  -0.5000000), wk =   0.0480000
        k(   35) = (   0.1000000   0.2000000  -0.4000000), wk =   0.0240000
        k(   36) = (   0.1000000   0.3000000   0.4000000), wk =   0.0240000
        k(   37) = (   0.1000000   0.3000000  -0.5000000), wk =   0.0480000
        k(   38) = (   0.1000000   0.3000000  -0.4000000), wk =   0.0480000
        k(   39) = (   0.1000000   0.3000000  -0.3000000), wk =   0.0480000
        k(   40) = (   0.1000000   0.3000000  -0.2000000), wk =   0.0240000
        k(   41) = (   0.1000000   0.4000000  -0.5000000), wk =   0.0240000
        k(   42) = (   0.1000000   0.4000000  -0.4000000), wk =   0.0480000
        k(   43) = (   0.1000000   0.4000000  -0.3000000), wk =   0.0240000
        k(   44) = (   0.1000000  -0.5000000  -0.4000000), wk =   0.0120000
        k(   45) = (   0.2000000   0.4000000  -0.4000000), wk =   0.0240000
        k(   46) = (   0.2000000   0.4000000  -0.3000000), wk =   0.0240000
        k(   47) = (   0.2000000  -0.5000000  -0.3000000), wk =   0.0120000

     Dense  grid:   153421 G-vectors     FFT dimensions: (  75,  75,  75)

     Smooth grid:    54193 G-vectors     FFT dimensions: (  54,  54,  54)

     Dynamical RAM for                 wfc:       0.62 MB

     Dynamical RAM for     wfc (w. buffer):       9.28 MB

     Dynamical RAM for           str. fact:       1.17 MB

     Dynamical RAM for           local pot:       0.00 MB

     Dynamical RAM for          nlocal pot:       1.43 MB

     Dynamical RAM for                qrad:       7.03 MB

     Dynamical RAM for          rho,v,vnew:       4.33 MB

     Dynamical RAM for               rhoin:       1.44 MB

     Dynamical RAM for            rho*nmix:       9.36 MB

     Dynamical RAM for           G-vectors:       1.15 MB

     Dynamical RAM for          h,s,v(r/c):       0.42 MB

     Dynamical RAM for          <psi|beta>:       0.08 MB

     Dynamical RAM for                 psi:       1.24 MB

     Dynamical RAM for                hpsi:       1.24 MB

     Dynamical RAM for                spsi:       1.24 MB

     Dynamical RAM for      wfcinit/wfcrot:       1.57 MB

     Dynamical RAM for           addusdens:       8.57 MB

     Dynamical RAM for          addusforce:       8.78 MB

     Dynamical RAM for         addusstress:       8.71 MB

     Estimated static dynamical RAM per process >      29.88 MB

     Estimated max dynamical RAM per process >      48.02 MB

     Estimated total dynamical RAM >       2.19 GB

     Check: negative core charge=   -0.000005
     Generating pointlists ...
     new r_m :   0.1260 (alat units)  1.3462 (a.u.) for type    1
     new r_m :   0.1260 (alat units)  1.3462 (a.u.) for type    2
     new r_m :   0.2072 (alat units)  2.2136 (a.u.) for type    3
     new r_m :   0.1657 (alat units)  1.7699 (a.u.) for type    4

     Initial potential from superposition of free atoms

     starting charge      78.5120, renormalised to      80.0000
     Starting wfcs are   58 randomized atomic wfcs
     Checking if some PAW data can be deallocated... 
       PAW data deallocated on   44 nodes for type:  3

     total cpu time spent up to now is        2.2 secs

     per-process dynamical memory:    43.6 Mb

     Self-consistent Calculation

     iteration #  1     ecut=    60.00 Ry     beta= 0.40
     Davidson diagonalization with overlap

---- Real-time Memory Report at c_bands before calling an iterative solver
            81 MiB given to the printing process from OS
            43 MiB allocation reported by mallinfo(arena+hblkhd)
        488861 MiB available memory on the node where the printing process lives
------------------
     ethr =  1.00E-02,  avg # of iterations =  7.6

     total cpu time spent up to now is        4.4 secs

     total energy              =    -826.15181542 Ry
     estimated scf accuracy    <       2.41647514 Ry

     total magnetization       =     4.65 Bohr mag/cell
     absolute magnetization    =     4.77 Bohr mag/cell

     iteration #  2     ecut=    60.00 Ry     beta= 0.40
     Davidson diagonalization with overlap

---- Real-time Memory Report at c_bands before calling an iterative solver
           101 MiB given to the printing process from OS
            54 MiB allocation reported by mallinfo(arena+hblkhd)
        488134 MiB available memory on the node where the printing process lives
------------------
     ethr =  3.02E-03,  avg # of iterations =  2.4

     total cpu time spent up to now is        6.2 secs

     total energy              =    -826.28585973 Ry
     estimated scf accuracy    <       5.76708902 Ry

     total magnetization       =     1.59 Bohr mag/cell
     absolute magnetization    =     1.84 Bohr mag/cell

     iteration #  3     ecut=    60.00 Ry     beta= 0.40
     Davidson diagonalization with overlap

---- Real-time Memory Report at c_bands before calling an iterative solver
           102 MiB given to the printing process from OS
            54 MiB allocation reported by mallinfo(arena+hblkhd)
        488122 MiB available memory on the node where the printing process lives
------------------
     ethr =  3.02E-03,  avg # of iterations =  2.0

     total cpu time spent up to now is        7.7 secs

     total energy              =    -827.13138142 Ry
     estimated scf accuracy    <       0.12006662 Ry

     total magnetization       =     4.01 Bohr mag/cell
     absolute magnetization    =     4.14 Bohr mag/cell

     iteration #  4     ecut=    60.00 Ry     beta= 0.40
     Davidson diagonalization with overlap

---- Real-time Memory Report at c_bands before calling an iterative solver
           102 MiB given to the printing process from OS
            55 MiB allocation reported by mallinfo(arena+hblkhd)
        488109 MiB available memory on the node where the printing process lives
------------------
     ethr =  1.50E-04,  avg # of iterations =  8.6

     total cpu time spent up to now is       10.2 secs

     total energy              =    -827.14778523 Ry
     estimated scf accuracy    <       0.01042069 Ry

     total magnetization       =     3.94 Bohr mag/cell
     absolute magnetization    =     4.01 Bohr mag/cell

     iteration #  5     ecut=    60.00 Ry     beta= 0.40
     Davidson diagonalization with overlap

---- Real-time Memory Report at c_bands before calling an iterative solver
           103 MiB given to the printing process from OS
            55 MiB allocation reported by mallinfo(arena+hblkhd)
        488082 MiB available memory on the node where the printing process lives
------------------
     ethr =  1.30E-05,  avg # of iterations =  5.7

     total cpu time spent up to now is       12.5 secs

     total energy              =    -827.15339760 Ry
     estimated scf accuracy    <       0.00996884 Ry

     total magnetization       =     3.58 Bohr mag/cell
     absolute magnetization    =     3.65 Bohr mag/cell

     iteration #  6     ecut=    60.00 Ry     beta= 0.40
     Davidson diagonalization with overlap

---- Real-time Memory Report at c_bands before calling an iterative solver
           104 MiB given to the printing process from OS
            56 MiB allocation reported by mallinfo(arena+hblkhd)
        488077 MiB available memory on the node where the printing process lives
------------------
     ethr =  1.25E-05,  avg # of iterations =  1.3

     total cpu time spent up to now is       14.0 secs

     total energy              =    -827.15104826 Ry
     estimated scf accuracy    <       0.06164335 Ry

     total magnetization       =     2.60 Bohr mag/cell
     absolute magnetization    =     2.68 Bohr mag/cell

     iteration #  7     ecut=    60.00 Ry     beta= 0.40
     Davidson diagonalization with overlap

---- Real-time Memory Report at c_bands before calling an iterative solver
           104 MiB given to the printing process from OS
            56 MiB allocation reported by mallinfo(arena+hblkhd)
        488076 MiB available memory on the node where the printing process lives
------------------
     ethr =  1.25E-05,  avg # of iterations =  1.0

     total cpu time spent up to now is       15.4 secs

     total energy              =    -827.14459592 Ry
     estimated scf accuracy    <       0.02536494 Ry

     total magnetization       =     3.22 Bohr mag/cell
     absolute magnetization    =     3.29 Bohr mag/cell

     iteration #  8     ecut=    60.00 Ry     beta= 0.40
     Davidson diagonalization with overlap

---- Real-time Memory Report at c_bands before calling an iterative solver
           105 MiB given to the printing process from OS
            57 MiB allocation reported by mallinfo(arena+hblkhd)
        488060 MiB available memory on the node where the printing process lives
------------------
     ethr =  1.25E-05,  avg # of iterations =  1.5

     total cpu time spent up to now is       17.0 secs

     total energy              =    -827.14592405 Ry
     estimated scf accuracy    <       0.00410365 Ry

     total magnetization       =     4.03 Bohr mag/cell
     absolute magnetization    =     4.09 Bohr mag/cell

     iteration #  9     ecut=    60.00 Ry     beta= 0.40
     Davidson diagonalization with overlap

---- Real-time Memory Report at c_bands before calling an iterative solver
           105 MiB given to the printing process from OS
            57 MiB allocation reported by mallinfo(arena+hblkhd)
        488049 MiB available memory on the node where the printing process lives
------------------
     ethr =  5.13E-06,  avg # of iterations =  1.6

     total cpu time spent up to now is       18.5 secs

     total energy              =    -827.14381748 Ry
     estimated scf accuracy    <       0.00699572 Ry

     total magnetization       =     4.20 Bohr mag/cell
     absolute magnetization    =     4.26 Bohr mag/cell

     iteration # 10     ecut=    60.00 Ry     beta= 0.40
     Davidson diagonalization with overlap

---- Real-time Memory Report at c_bands before calling an iterative solver
           106 MiB given to the printing process from OS
            57 MiB allocation reported by mallinfo(arena+hblkhd)
        488041 MiB available memory on the node where the printing process lives
------------------
     ethr =  5.13E-06,  avg # of iterations =  1.5

     total cpu time spent up to now is       20.1 secs

     total energy              =    -827.14828903 Ry
     estimated scf accuracy    <       0.01910674 Ry

     total magnetization       =     4.15 Bohr mag/cell
     absolute magnetization    =     4.22 Bohr mag/cell

     iteration # 11     ecut=    60.00 Ry     beta= 0.40
     Davidson diagonalization with overlap

---- Real-time Memory Report at c_bands before calling an iterative solver
           106 MiB given to the printing process from OS
            57 MiB allocation reported by mallinfo(arena+hblkhd)
        488037 MiB available memory on the node where the printing process lives
------------------
     ethr =  5.13E-06,  avg # of iterations =  2.5

     total cpu time spent up to now is       21.8 secs

     total energy              =    -827.15175979 Ry
     estimated scf accuracy    <       0.00848558 Ry

     total magnetization       =     3.68 Bohr mag/cell
     absolute magnetization    =     3.73 Bohr mag/cell

     iteration # 12     ecut=    60.00 Ry     beta= 0.40
     Davidson diagonalization with overlap

---- Real-time Memory Report at c_bands before calling an iterative solver
           106 MiB given to the printing process from OS
            57 MiB allocation reported by mallinfo(arena+hblkhd)
        488031 MiB available memory on the node where the printing process lives
------------------
     ethr =  5.13E-06,  avg # of iterations =  2.0

     total cpu time spent up to now is       23.5 secs

     total energy              =    -827.15516289 Ry
     estimated scf accuracy    <       0.02786449 Ry

     total magnetization       =     2.92 Bohr mag/cell
     absolute magnetization    =     2.98 Bohr mag/cell

     iteration # 13     ecut=    60.00 Ry     beta= 0.40
     Davidson diagonalization with overlap

---- Real-time Memory Report at c_bands before calling an iterative solver
           106 MiB given to the printing process from OS
            57 MiB allocation reported by mallinfo(arena+hblkhd)
        488027 MiB available memory on the node where the printing process lives
------------------
     ethr =  5.13E-06,  avg # of iterations =  1.0

     total cpu time spent up to now is       24.9 secs

     total energy              =    -827.15485243 Ry
     estimated scf accuracy    <       0.03417940 Ry

     total magnetization       =     2.76 Bohr mag/cell
     absolute magnetization    =     2.83 Bohr mag/cell

     iteration # 14     ecut=    60.00 Ry     beta= 0.40
     Davidson diagonalization with overlap

---- Real-time Memory Report at c_bands before calling an iterative solver
           107 MiB given to the printing process from OS
            57 MiB allocation reported by mallinfo(arena+hblkhd)
        488023 MiB available memory on the node where the printing process lives
------------------
     ethr =  5.13E-06,  avg # of iterations =  1.0

     total cpu time spent up to now is       26.3 secs

     total energy              =    -827.15382056 Ry
     estimated scf accuracy    <       0.03181070 Ry

     total magnetization       =     2.82 Bohr mag/cell
     absolute magnetization    =     2.88 Bohr mag/cell

     iteration # 15     ecut=    60.00 Ry     beta= 0.40
     Davidson diagonalization with overlap

---- Real-time Memory Report at c_bands before calling an iterative solver
           107 MiB given to the printing process from OS
            57 MiB allocation reported by mallinfo(arena+hblkhd)
        488020 MiB available memory on the node where the printing process lives
------------------
     ethr =  5.13E-06,  avg # of iterations =  1.0

     total cpu time spent up to now is       27.7 secs

     total energy              =    -827.15248631 Ry
     estimated scf accuracy    <       0.02613386 Ry

     total magnetization       =     2.97 Bohr mag/cell
     absolute magnetization    =     3.03 Bohr mag/cell

     iteration # 16     ecut=    60.00 Ry     beta= 0.40
     Davidson diagonalization with overlap

---- Real-time Memory Report at c_bands before calling an iterative solver
           107 MiB given to the printing process from OS
            57 MiB allocation reported by mallinfo(arena+hblkhd)
        488018 MiB available memory on the node where the printing process lives
------------------
     ethr =  5.13E-06,  avg # of iterations =  1.0

     total cpu time spent up to now is       29.2 secs

     total energy              =    -827.15587899 Ry
     estimated scf accuracy    <       0.01900590 Ry

     total magnetization       =     3.18 Bohr mag/cell
     absolute magnetization    =     3.23 Bohr mag/cell

     iteration # 17     ecut=    60.00 Ry     beta= 0.40
     Davidson diagonalization with overlap

---- Real-time Memory Report at c_bands before calling an iterative solver
           107 MiB given to the printing process from OS
            57 MiB allocation reported by mallinfo(arena+hblkhd)
        488013 MiB available memory on the node where the printing process lives
------------------
     ethr =  5.13E-06,  avg # of iterations =  2.5

     total cpu time spent up to now is       30.9 secs

     total energy              =    -827.19391667 Ry
     estimated scf accuracy    <       0.15884323 Ry

     total magnetization       =     0.77 Bohr mag/cell
     absolute magnetization    =     1.03 Bohr mag/cell

     iteration # 18     ecut=    60.00 Ry     beta= 0.40
     Davidson diagonalization with overlap

---- Real-time Memory Report at c_bands before calling an iterative solver
           107 MiB given to the printing process from OS
            57 MiB allocation reported by mallinfo(arena+hblkhd)
        488010 MiB available memory on the node where the printing process lives
------------------
     ethr =  5.13E-06,  avg # of iterations =  2.0

     total cpu time spent up to now is       32.5 secs

     total energy              =    -827.13390008 Ry
     estimated scf accuracy    <       0.18316269 Ry

     total magnetization       =     0.28 Bohr mag/cell
     absolute magnetization    =     0.71 Bohr mag/cell

     iteration # 19     ecut=    60.00 Ry     beta= 0.40
     Davidson diagonalization with overlap

---- Real-time Memory Report at c_bands before calling an iterative solver
           107 MiB given to the printing process from OS
            57 MiB allocation reported by mallinfo(arena+hblkhd)
        488007 MiB available memory on the node where the printing process lives
------------------
     ethr =  5.13E-06,  avg # of iterations =  2.5

     total cpu time spent up to now is       34.3 secs

     total energy              =    -827.14959576 Ry
     estimated scf accuracy    <       0.04532687 Ry

     total magnetization       =     2.52 Bohr mag/cell
     absolute magnetization    =     2.58 Bohr mag/cell

     iteration # 20     ecut=    60.00 Ry     beta= 0.40
     Davidson diagonalization with overlap

---- Real-time Memory Report at c_bands before calling an iterative solver
           107 MiB given to the printing process from OS
            57 MiB allocation reported by mallinfo(arena+hblkhd)
        487999 MiB available memory on the node where the printing process lives
------------------
     ethr =  5.13E-06,  avg # of iterations =  2.0

     total cpu time spent up to now is       35.8 secs

     total energy              =    -827.15173760 Ry
     estimated scf accuracy    <       0.01677840 Ry

     total magnetization       =     3.29 Bohr mag/cell
     absolute magnetization    =     3.34 Bohr mag/cell

     iteration # 21     ecut=    60.00 Ry     beta= 0.40
     Davidson diagonalization with overlap

---- Real-time Memory Report at c_bands before calling an iterative solver
           107 MiB given to the printing process from OS
            57 MiB allocation reported by mallinfo(arena+hblkhd)
        487999 MiB available memory on the node where the printing process lives
------------------
     ethr =  5.13E-06,  avg # of iterations =  1.0

     total cpu time spent up to now is       37.3 secs

     total energy              =    -827.14974267 Ry
     estimated scf accuracy    <       0.01627450 Ry

     total magnetization       =     3.34 Bohr mag/cell
     absolute magnetization    =     3.40 Bohr mag/cell

     iteration # 22     ecut=    60.00 Ry     beta= 0.40
     Davidson diagonalization with overlap

---- Real-time Memory Report at c_bands before calling an iterative solver
           107 MiB given to the printing process from OS
            57 MiB allocation reported by mallinfo(arena+hblkhd)
        487998 MiB available memory on the node where the printing process lives
------------------
     ethr =  5.13E-06,  avg # of iterations =  1.0

     total cpu time spent up to now is       38.7 secs

     total energy              =    -827.14907238 Ry
     estimated scf accuracy    <       0.00786321 Ry

     total magnetization       =     3.66 Bohr mag/cell
     absolute magnetization    =     3.71 Bohr mag/cell

     iteration # 23     ecut=    60.00 Ry     beta= 0.40
     Davidson diagonalization with overlap

---- Real-time Memory Report at c_bands before calling an iterative solver
           107 MiB given to the printing process from OS
            57 MiB allocation reported by mallinfo(arena+hblkhd)
        487997 MiB available memory on the node where the printing process lives
------------------
     ethr =  5.13E-06,  avg # of iterations =  1.0

     total cpu time spent up to now is       40.1 secs

     total energy              =    -827.14785192 Ry
     estimated scf accuracy    <       0.00501784 Ry

     total magnetization       =     3.86 Bohr mag/cell
     absolute magnetization    =     3.91 Bohr mag/cell

     iteration # 24     ecut=    60.00 Ry     beta= 0.40
     Davidson diagonalization with overlap

---- Real-time Memory Report at c_bands before calling an iterative solver
           107 MiB given to the printing process from OS
            57 MiB allocation reported by mallinfo(arena+hblkhd)
        487996 MiB available memory on the node where the printing process lives
------------------
     ethr =  5.13E-06,  avg # of iterations =  1.0

     total cpu time spent up to now is       41.5 secs

     total energy              =    -827.14337804 Ry
     estimated scf accuracy    <       0.00368671 Ry

     total magnetization       =     4.07 Bohr mag/cell
     absolute magnetization    =     4.13 Bohr mag/cell

     iteration # 25     ecut=    60.00 Ry     beta= 0.40
     Davidson diagonalization with overlap

---- Real-time Memory Report at c_bands before calling an iterative solver
           107 MiB given to the printing process from OS
            57 MiB allocation reported by mallinfo(arena+hblkhd)
        487994 MiB available memory on the node where the printing process lives
------------------
     ethr =  4.61E-06,  avg # of iterations =  2.0

     total cpu time spent up to now is       43.1 secs

     total energy              =    -827.13942070 Ry
     estimated scf accuracy    <       0.01480412 Ry

     total magnetization       =     4.17 Bohr mag/cell
     absolute magnetization    =     4.23 Bohr mag/cell

     iteration # 26     ecut=    60.00 Ry     beta= 0.40
     Davidson diagonalization with overlap

---- Real-time Memory Report at c_bands before calling an iterative solver
           107 MiB given to the printing process from OS
            57 MiB allocation reported by mallinfo(arena+hblkhd)
        487992 MiB available memory on the node where the printing process lives
------------------
     ethr =  4.61E-06,  avg # of iterations =  1.5

     total cpu time spent up to now is       44.7 secs

     total energy              =    -827.14244916 Ry
     estimated scf accuracy    <       0.03860292 Ry

     total magnetization       =     4.06 Bohr mag/cell
     absolute magnetization    =     4.13 Bohr mag/cell

     iteration # 27     ecut=    60.00 Ry     beta= 0.40
     Davidson diagonalization with overlap

---- Real-time Memory Report at c_bands before calling an iterative solver
           108 MiB given to the printing process from OS
            57 MiB allocation reported by mallinfo(arena+hblkhd)
        487990 MiB available memory on the node where the printing process lives
------------------
     ethr =  4.61E-06,  avg # of iterations =  1.0

     total cpu time spent up to now is       46.1 secs

     total energy              =    -827.14208847 Ry
     estimated scf accuracy    <       0.02452814 Ry

     total magnetization       =     4.11 Bohr mag/cell
     absolute magnetization    =     4.18 Bohr mag/cell

     iteration # 28     ecut=    60.00 Ry     beta= 0.40
     Davidson diagonalization with overlap

---- Real-time Memory Report at c_bands before calling an iterative solver
           108 MiB given to the printing process from OS
            57 MiB allocation reported by mallinfo(arena+hblkhd)
        487981 MiB available memory on the node where the printing process lives
------------------
     ethr =  4.61E-06,  avg # of iterations =  1.0

     total cpu time spent up to now is       47.5 secs

     total energy              =    -827.14860904 Ry
     estimated scf accuracy    <       0.02589812 Ry

     total magnetization       =     4.11 Bohr mag/cell
     absolute magnetization    =     4.17 Bohr mag/cell

     iteration # 29     ecut=    60.00 Ry     beta= 0.40
     Davidson diagonalization with overlap

---- Real-time Memory Report at c_bands before calling an iterative solver
           108 MiB given to the printing process from OS
            57 MiB allocation reported by mallinfo(arena+hblkhd)
        487980 MiB available memory on the node where the printing process lives
------------------
     ethr =  4.61E-06,  avg # of iterations =  2.5

     total cpu time spent up to now is       49.3 secs

     total energy              =    -827.15119345 Ry
     estimated scf accuracy    <       0.00557404 Ry

     total magnetization       =     3.77 Bohr mag/cell
     absolute magnetization    =     3.82 Bohr mag/cell

     iteration # 30     ecut=    60.00 Ry     beta= 0.40
     Davidson diagonalization with overlap

---- Real-time Memory Report at c_bands before calling an iterative solver
           108 MiB given to the printing process from OS
            57 MiB allocation reported by mallinfo(arena+hblkhd)
        487980 MiB available memory on the node where the printing process lives
------------------
     ethr =  4.61E-06,  avg # of iterations =  2.0

     total cpu time spent up to now is       50.8 secs

     total energy              =    -827.14064147 Ry
     estimated scf accuracy    <       0.03514686 Ry

     total magnetization       =     2.75 Bohr mag/cell
     absolute magnetization    =     2.82 Bohr mag/cell

     iteration # 31     ecut=    60.00 Ry     beta= 0.40
     Davidson diagonalization with overlap

---- Real-time Memory Report at c_bands before calling an iterative solver
           108 MiB given to the printing process from OS
            57 MiB allocation reported by mallinfo(arena+hblkhd)
        487980 MiB available memory on the node where the printing process lives
------------------
     ethr =  4.61E-06,  avg # of iterations =  2.0

     total cpu time spent up to now is       52.4 secs

     total energy              =    -827.14133236 Ry
     estimated scf accuracy    <       0.00438262 Ry

     total magnetization       =     3.99 Bohr mag/cell
     absolute magnetization    =     4.04 Bohr mag/cell

     iteration # 32     ecut=    60.00 Ry     beta= 0.40
     Davidson diagonalization with overlap

---- Real-time Memory Report at c_bands before calling an iterative solver
           108 MiB given to the printing process from OS
            57 MiB allocation reported by mallinfo(arena+hblkhd)
        487979 MiB available memory on the node where the printing process lives
------------------
     ethr =  4.61E-06,  avg # of iterations =  2.2

     total cpu time spent up to now is       54.2 secs

     total energy              =    -827.14747059 Ry
     estimated scf accuracy    <       0.01990770 Ry

     total magnetization       =     4.14 Bohr mag/cell
     absolute magnetization    =     4.21 Bohr mag/cell

     iteration # 33     ecut=    60.00 Ry     beta= 0.40
     Davidson diagonalization with overlap

---- Real-time Memory Report at c_bands before calling an iterative solver
           108 MiB given to the printing process from OS
            57 MiB allocation reported by mallinfo(arena+hblkhd)
        487978 MiB available memory on the node where the printing process lives
------------------
     ethr =  4.61E-06,  avg # of iterations =  1.5

     total cpu time spent up to now is       55.7 secs

     total energy              =    -827.14493401 Ry
     estimated scf accuracy    <       0.00459234 Ry

     total magnetization       =     4.17 Bohr mag/cell
     absolute magnetization    =     4.22 Bohr mag/cell

     iteration # 34     ecut=    60.00 Ry     beta= 0.40
     Davidson diagonalization with overlap

---- Real-time Memory Report at c_bands before calling an iterative solver
           108 MiB given to the printing process from OS
            57 MiB allocation reported by mallinfo(arena+hblkhd)
        487978 MiB available memory on the node where the printing process lives
------------------
     ethr =  4.61E-06,  avg # of iterations =  2.5

     total cpu time spent up to now is       57.5 secs

     total energy              =    -827.11703413 Ry
     estimated scf accuracy    <       0.04678930 Ry

     total magnetization       =     2.45 Bohr mag/cell
     absolute magnetization    =     2.52 Bohr mag/cell

     iteration # 35     ecut=    60.00 Ry     beta= 0.40
     Davidson diagonalization with overlap

---- Real-time Memory Report at c_bands before calling an iterative solver
           108 MiB given to the printing process from OS
            57 MiB allocation reported by mallinfo(arena+hblkhd)
        487969 MiB available memory on the node where the printing process lives
------------------
     ethr =  4.61E-06,  avg # of iterations =  2.6

     total cpu time spent up to now is       59.4 secs

     total energy              =    -827.14797336 Ry
     estimated scf accuracy    <       0.01170178 Ry

     total magnetization       =     4.18 Bohr mag/cell
     absolute magnetization    =     4.24 Bohr mag/cell

     iteration # 36     ecut=    60.00 Ry     beta= 0.40
     Davidson diagonalization with overlap

---- Real-time Memory Report at c_bands before calling an iterative solver
           108 MiB given to the printing process from OS
            57 MiB allocation reported by mallinfo(arena+hblkhd)
        487970 MiB available memory on the node where the printing process lives
------------------
     ethr =  4.61E-06,  avg # of iterations =  1.5

     total cpu time spent up to now is       60.9 secs

     total energy              =    -827.14829361 Ry
     estimated scf accuracy    <       0.00337875 Ry

     total magnetization       =     4.06 Bohr mag/cell
     absolute magnetization    =     4.12 Bohr mag/cell

     iteration # 37     ecut=    60.00 Ry     beta= 0.40
     Davidson diagonalization with overlap

---- Real-time Memory Report at c_bands before calling an iterative solver
           108 MiB given to the printing process from OS
            57 MiB allocation reported by mallinfo(arena+hblkhd)
        487969 MiB available memory on the node where the printing process lives
------------------
     ethr =  4.22E-06,  avg # of iterations =  1.0

     total cpu time spent up to now is       62.3 secs

     total energy              =    -827.14861113 Ry
     estimated scf accuracy    <       0.00350477 Ry

     total magnetization       =     4.06 Bohr mag/cell
     absolute magnetization    =     4.12 Bohr mag/cell

     iteration # 38     ecut=    60.00 Ry     beta= 0.40
     Davidson diagonalization with overlap

---- Real-time Memory Report at c_bands before calling an iterative solver
           108 MiB given to the printing process from OS
            57 MiB allocation reported by mallinfo(arena+hblkhd)
        487969 MiB available memory on the node where the printing process lives
------------------
     ethr =  4.22E-06,  avg # of iterations =  1.0

     total cpu time spent up to now is       63.8 secs

     total energy              =    -827.14960249 Ry
     estimated scf accuracy    <       0.00379710 Ry

     total magnetization       =     4.00 Bohr mag/cell
     absolute magnetization    =     4.05 Bohr mag/cell

     iteration # 39     ecut=    60.00 Ry     beta= 0.40
     Davidson diagonalization with overlap

---- Real-time Memory Report at c_bands before calling an iterative solver
           108 MiB given to the printing process from OS
            57 MiB allocation reported by mallinfo(arena+hblkhd)
        487969 MiB available memory on the node where the printing process lives
------------------
     ethr =  4.22E-06,  avg # of iterations =  1.5

     total cpu time spent up to now is       65.3 secs

     total energy              =    -827.15185724 Ry
     estimated scf accuracy    <       0.00864617 Ry

     total magnetization       =     3.60 Bohr mag/cell
     absolute magnetization    =     3.66 Bohr mag/cell

     iteration # 40     ecut=    60.00 Ry     beta= 0.40
     Davidson diagonalization with overlap

---- Real-time Memory Report at c_bands before calling an iterative solver
           108 MiB given to the printing process from OS
            57 MiB allocation reported by mallinfo(arena+hblkhd)
        487968 MiB available memory on the node where the printing process lives
------------------
     ethr =  4.22E-06,  avg # of iterations =  2.5

     total cpu time spent up to now is       67.1 secs

     total energy              =    -827.12785703 Ry
     estimated scf accuracy    <       0.07979151 Ry

     total magnetization       =     1.88 Bohr mag/cell
     absolute magnetization    =     1.97 Bohr mag/cell

     iteration # 41     ecut=    60.00 Ry     beta= 0.40
     Davidson diagonalization with overlap

---- Real-time Memory Report at c_bands before calling an iterative solver
           108 MiB given to the printing process from OS
            57 MiB allocation reported by mallinfo(arena+hblkhd)
        487967 MiB available memory on the node where the printing process lives
------------------
     ethr =  4.22E-06,  avg # of iterations =  2.6

     total cpu time spent up to now is       68.9 secs

     total energy              =    -827.14422057 Ry
     estimated scf accuracy    <       0.00380384 Ry

     total magnetization       =     3.97 Bohr mag/cell
     absolute magnetization    =     4.02 Bohr mag/cell

     iteration # 42     ecut=    60.00 Ry     beta= 0.40
     Davidson diagonalization with overlap

---- Real-time Memory Report at c_bands before calling an iterative solver
           108 MiB given to the printing process from OS
            57 MiB allocation reported by mallinfo(arena+hblkhd)
        487967 MiB available memory on the node where the printing process lives
------------------
     ethr =  4.22E-06,  avg # of iterations =  2.0

     total cpu time spent up to now is       70.5 secs

     total energy              =    -827.13893699 Ry
     estimated scf accuracy    <       0.00909926 Ry

     total magnetization       =     4.20 Bohr mag/cell
     absolute magnetization    =     4.25 Bohr mag/cell

     iteration # 43     ecut=    60.00 Ry     beta= 0.40
     Davidson diagonalization with overlap

---- Real-time Memory Report at c_bands before calling an iterative solver
           108 MiB given to the printing process from OS
            57 MiB allocation reported by mallinfo(arena+hblkhd)
        487963 MiB available memory on the node where the printing process lives
------------------
     ethr =  4.22E-06,  avg # of iterations =  2.0

     total cpu time spent up to now is       72.1 secs

     total energy              =    -827.12761782 Ry
     estimated scf accuracy    <       0.04172090 Ry

     total magnetization       =     4.05 Bohr mag/cell
     absolute magnetization    =     4.12 Bohr mag/cell

     iteration # 44     ecut=    60.00 Ry     beta= 0.40
     Davidson diagonalization with overlap

---- Real-time Memory Report at c_bands before calling an iterative solver
           108 MiB given to the printing process from OS
            57 MiB allocation reported by mallinfo(arena+hblkhd)
        487963 MiB available memory on the node where the printing process lives
------------------
     ethr =  4.22E-06,  avg # of iterations =  2.0

     total cpu time spent up to now is       73.7 secs

     total energy              =    -827.13588025 Ry
     estimated scf accuracy    <       0.08310122 Ry

     total magnetization       =     4.00 Bohr mag/cell
     absolute magnetization    =     4.09 Bohr mag/cell

     iteration # 45     ecut=    60.00 Ry     beta= 0.40
     Davidson diagonalization with overlap

---- Real-time Memory Report at c_bands before calling an iterative solver
           108 MiB given to the printing process from OS
            57 MiB allocation reported by mallinfo(arena+hblkhd)
        487963 MiB available memory on the node where the printing process lives
------------------
     ethr =  4.22E-06,  avg # of iterations =  1.5

     total cpu time spent up to now is       75.2 secs

     total energy              =    -827.12653419 Ry
     estimated scf accuracy    <       0.05253422 Ry

     total magnetization       =     4.03 Bohr mag/cell
     absolute magnetization    =     4.10 Bohr mag/cell

     iteration # 46     ecut=    60.00 Ry     beta= 0.40
     Davidson diagonalization with overlap

---- Real-time Memory Report at c_bands before calling an iterative solver
           108 MiB given to the printing process from OS
            57 MiB allocation reported by mallinfo(arena+hblkhd)
        487963 MiB available memory on the node where the printing process lives
------------------
     ethr =  4.22E-06,  avg # of iterations =  1.5

     total cpu time spent up to now is       76.8 secs

     total energy              =    -827.12322149 Ry
     estimated scf accuracy    <       0.08595192 Ry

     total magnetization       =     4.00 Bohr mag/cell
     absolute magnetization    =     4.09 Bohr mag/cell

     iteration # 47     ecut=    60.00 Ry     beta= 0.40
     Davidson diagonalization with overlap

---- Real-time Memory Report at c_bands before calling an iterative solver
           108 MiB given to the printing process from OS
            57 MiB allocation reported by mallinfo(arena+hblkhd)
        487963 MiB available memory on the node where the printing process lives
------------------
     ethr =  4.22E-06,  avg # of iterations =  1.0

     total cpu time spent up to now is       78.2 secs

     total energy              =    -827.13283350 Ry
     estimated scf accuracy    <       0.09729442 Ry

     total magnetization       =     4.00 Bohr mag/cell
     absolute magnetization    =     4.09 Bohr mag/cell

     iteration # 48     ecut=    60.00 Ry     beta= 0.40
     Davidson diagonalization with overlap

---- Real-time Memory Report at c_bands before calling an iterative solver
           108 MiB given to the printing process from OS
            57 MiB allocation reported by mallinfo(arena+hblkhd)
        487962 MiB available memory on the node where the printing process lives
------------------
     ethr =  4.22E-06,  avg # of iterations =  1.5

     total cpu time spent up to now is       79.7 secs

     total energy              =    -827.14144398 Ry
     estimated scf accuracy    <       0.06337388 Ry

     total magnetization       =     4.01 Bohr mag/cell
     absolute magnetization    =     4.09 Bohr mag/cell

     iteration # 49     ecut=    60.00 Ry     beta= 0.40
     Davidson diagonalization with overlap

---- Real-time Memory Report at c_bands before calling an iterative solver
           108 MiB given to the printing process from OS
            57 MiB allocation reported by mallinfo(arena+hblkhd)
        487962 MiB available memory on the node where the printing process lives
------------------
     ethr =  4.22E-06,  avg # of iterations =  2.0

     total cpu time spent up to now is       81.3 secs

     total energy              =    -827.14574859 Ry
     estimated scf accuracy    <       0.02850197 Ry

     total magnetization       =     4.09 Bohr mag/cell
     absolute magnetization    =     4.16 Bohr mag/cell

     iteration # 50     ecut=    60.00 Ry     beta= 0.40
     Davidson diagonalization with overlap

---- Real-time Memory Report at c_bands before calling an iterative solver
           108 MiB given to the printing process from OS
            57 MiB allocation reported by mallinfo(arena+hblkhd)
        487961 MiB available memory on the node where the printing process lives
------------------
     ethr =  4.22E-06,  avg # of iterations =  2.8

     total cpu time spent up to now is       83.3 secs

     total energy              =    -826.92679936 Ry
     estimated scf accuracy    <       0.04109459 Ry

     total magnetization       =     2.58 Bohr mag/cell
     absolute magnetization    =     2.65 Bohr mag/cell

     iteration # 51     ecut=    60.00 Ry     beta= 0.40
     Davidson diagonalization with overlap

---- Real-time Memory Report at c_bands before calling an iterative solver
           108 MiB given to the printing process from OS
            57 MiB allocation reported by mallinfo(arena+hblkhd)
        487952 MiB available memory on the node where the printing process lives
------------------
     ethr =  4.22E-06,  avg # of iterations =  3.7

     total cpu time spent up to now is       85.6 secs

     total energy              =    -827.10896972 Ry
     estimated scf accuracy    <       0.34535350 Ry

     total magnetization       =     4.00 Bohr mag/cell
     absolute magnetization    =     4.14 Bohr mag/cell

     iteration # 52     ecut=    60.00 Ry     beta= 0.40
     Davidson diagonalization with overlap

---- Real-time Memory Report at c_bands before calling an iterative solver
           109 MiB given to the printing process from OS
            57 MiB allocation reported by mallinfo(arena+hblkhd)
        487952 MiB available memory on the node where the printing process lives
------------------
     ethr =  4.22E-06,  avg # of iterations =  2.5

     total cpu time spent up to now is       87.5 secs

     total energy              =    -827.07193398 Ry
     estimated scf accuracy    <       0.12941532 Ry

     total magnetization       =     4.00 Bohr mag/cell
     absolute magnetization    =     4.10 Bohr mag/cell

     iteration # 53     ecut=    60.00 Ry     beta= 0.40
     Davidson diagonalization with overlap

---- Real-time Memory Report at c_bands before calling an iterative solver
           109 MiB given to the printing process from OS
            57 MiB allocation reported by mallinfo(arena+hblkhd)
        487952 MiB available memory on the node where the printing process lives
------------------
     ethr =  4.22E-06,  avg # of iterations =  2.5

     total cpu time spent up to now is       89.3 secs

     total energy              =    -827.13632982 Ry
     estimated scf accuracy    <       0.25436192 Ry

     total magnetization       =     4.00 Bohr mag/cell
     absolute magnetization    =     4.13 Bohr mag/cell

     iteration # 54     ecut=    60.00 Ry     beta= 0.40
     Davidson diagonalization with overlap

---- Real-time Memory Report at c_bands before calling an iterative solver
           109 MiB given to the printing process from OS
            57 MiB allocation reported by mallinfo(arena+hblkhd)
        487951 MiB available memory on the node where the printing process lives
------------------
     ethr =  4.22E-06,  avg # of iterations =  3.2

     total cpu time spent up to now is       91.3 secs

     total energy              =    -827.14673577 Ry
     estimated scf accuracy    <       0.03435205 Ry

     total magnetization       =     4.07 Bohr mag/cell
     absolute magnetization    =     4.14 Bohr mag/cell

     iteration # 55     ecut=    60.00 Ry     beta= 0.40
     Davidson diagonalization with overlap

---- Real-time Memory Report at c_bands before calling an iterative solver
           109 MiB given to the printing process from OS
            57 MiB allocation reported by mallinfo(arena+hblkhd)
        487951 MiB available memory on the node where the printing process lives
------------------
     ethr =  4.22E-06,  avg # of iterations =  2.0

     total cpu time spent up to now is       92.9 secs

     total energy              =    -827.14705161 Ry
     estimated scf accuracy    <       0.00622883 Ry

     total magnetization       =     4.20 Bohr mag/cell
     absolute magnetization    =     4.26 Bohr mag/cell

     iteration # 56     ecut=    60.00 Ry     beta= 0.40
     Davidson diagonalization with overlap

---- Real-time Memory Report at c_bands before calling an iterative solver
           109 MiB given to the printing process from OS
            57 MiB allocation reported by mallinfo(arena+hblkhd)
        487948 MiB available memory on the node where the printing process lives
------------------
     ethr =  4.22E-06,  avg # of iterations =  1.0

     total cpu time spent up to now is       94.3 secs

     total energy              =    -827.14308880 Ry
     estimated scf accuracy    <       0.00475907 Ry

     total magnetization       =     4.19 Bohr mag/cell
     absolute magnetization    =     4.24 Bohr mag/cell

     iteration # 57     ecut=    60.00 Ry     beta= 0.40
     Davidson diagonalization with overlap

---- Real-time Memory Report at c_bands before calling an iterative solver
           109 MiB given to the printing process from OS
            57 MiB allocation reported by mallinfo(arena+hblkhd)
        487948 MiB available memory on the node where the printing process lives
------------------
     ethr =  4.22E-06,  avg # of iterations =  1.9

     total cpu time spent up to now is       95.9 secs

     total energy              =    -827.14105848 Ry
     estimated scf accuracy    <       0.02090449 Ry

     total magnetization       =     4.14 Bohr mag/cell
     absolute magnetization    =     4.20 Bohr mag/cell

     iteration # 58     ecut=    60.00 Ry     beta= 0.40
     Davidson diagonalization with overlap

---- Real-time Memory Report at c_bands before calling an iterative solver
           109 MiB given to the printing process from OS
            57 MiB allocation reported by mallinfo(arena+hblkhd)
        487948 MiB available memory on the node where the printing process lives
------------------
     ethr =  4.22E-06,  avg # of iterations =  1.0

     total cpu time spent up to now is       97.3 secs

     total energy              =    -827.14869590 Ry
     estimated scf accuracy    <       0.03179837 Ry

     total magnetization       =     4.09 Bohr mag/cell
     absolute magnetization    =     4.15 Bohr mag/cell

     iteration # 59     ecut=    60.00 Ry     beta= 0.40
     Davidson diagonalization with overlap

---- Real-time Memory Report at c_bands before calling an iterative solver
           109 MiB given to the printing process from OS
            57 MiB allocation reported by mallinfo(arena+hblkhd)
        487948 MiB available memory on the node where the printing process lives
------------------
     ethr =  4.22E-06,  avg # of iterations =  2.5

     total cpu time spent up to now is       99.1 secs

     total energy              =    -827.14954908 Ry
     estimated scf accuracy    <       0.00444640 Ry

     total magnetization       =     4.00 Bohr mag/cell
     absolute magnetization    =     4.05 Bohr mag/cell

     iteration # 60     ecut=    60.00 Ry     beta= 0.40
     Davidson diagonalization with overlap

---- Real-time Memory Report at c_bands before calling an iterative solver
           109 MiB given to the printing process from OS
            57 MiB allocation reported by mallinfo(arena+hblkhd)
        487948 MiB available memory on the node where the printing process lives
------------------
     ethr =  4.22E-06,  avg # of iterations =  1.5

     total cpu time spent up to now is      100.6 secs

     total energy              =    -827.15107748 Ry
[...]
     estimated scf accuracy    <       0.00681656 Ry

     total magnetization       =     3.76 Bohr mag/cell
     absolute magnetization    =     3.81 Bohr mag/cell

     iteration # 79     ecut=    60.00 Ry     beta= 0.40
     Davidson diagonalization with overlap

---- Real-time Memory Report at c_bands before calling an iterative solver
           109 MiB given to the printing process from OS
            57 MiB allocation reported by mallinfo(arena+hblkhd)
        487937 MiB available memory on the node where the printing process lives
------------------
     ethr =  4.22E-06,  avg # of iterations =  2.0

     total cpu time spent up to now is      130.8 secs

     total energy              =    -827.14760255 Ry
     estimated scf accuracy    <       0.00778479 Ry

     total magnetization       =     4.20 Bohr mag/cell
     absolute magnetization    =     4.26 Bohr mag/cell

     iteration # 80     ecut=    60.00 Ry     beta= 0.40
     Davidson diagonalization with overlap

---- Real-time Memory Report at c_bands before calling an iterative solver
           109 MiB given to the printing process from OS
            57 MiB allocation reported by mallinfo(arena+hblkhd)
        487936 MiB available memory on the node where the printing process lives
------------------
     ethr =  4.22E-06,  avg # of iterations =  1.0

     total cpu time spent up to now is      132.2 secs

     total energy              =    -827.14818944 Ry
     estimated scf accuracy    <       0.00445622 Ry

     total magnetization       =     4.14 Bohr mag/cell
     absolute magnetization    =     4.19 Bohr mag/cell

     iteration # 81     ecut=    60.00 Ry     beta= 0.40
     Davidson diagonalization with overlap

---- Real-time Memory Report at c_bands before calling an iterative solver
           109 MiB given to the printing process from OS
            57 MiB allocation reported by mallinfo(arena+hblkhd)
        487935 MiB available memory on the node where the printing process lives
------------------
     ethr =  4.22E-06,  avg # of iterations =  1.0

     total cpu time spent up to now is      133.6 secs

     total energy              =    -827.14812998 Ry
     estimated scf accuracy    <       0.00418633 Ry

     total magnetization       =     4.07 Bohr mag/cell
     absolute magnetization    =     4.12 Bohr mag/cell

     iteration # 82     ecut=    60.00 Ry     beta= 0.40
     Davidson diagonalization with overlap

---- Real-time Memory Report at c_bands before calling an iterative solver
           109 MiB given to the printing process from OS
            57 MiB allocation reported by mallinfo(arena+hblkhd)
        487932 MiB available memory on the node where the printing process lives
------------------
     ethr =  4.22E-06,  avg # of iterations =  1.0

     total cpu time spent up to now is      135.1 secs

     total energy              =    -827.14867916 Ry
     estimated scf accuracy    <       0.00418746 Ry

     total magnetization       =     4.09 Bohr mag/cell
     absolute magnetization    =     4.14 Bohr mag/cell

     iteration # 83     ecut=    60.00 Ry     beta= 0.40
     Davidson diagonalization with overlap

---- Real-time Memory Report at c_bands before calling an iterative solver
           109 MiB given to the printing process from OS
            57 MiB allocation reported by mallinfo(arena+hblkhd)
        487932 MiB available memory on the node where the printing process lives
------------------
     ethr =  4.22E-06,  avg # of iterations =  2.0

     total cpu time spent up to now is      136.7 secs

     total energy              =    -827.15184519 Ry
     estimated scf accuracy    <       0.01892167 Ry

     total magnetization       =     3.20 Bohr mag/cell
     absolute magnetization    =     3.26 Bohr mag/cell

     iteration # 84     ecut=    60.00 Ry     beta= 0.40
     Davidson diagonalization with overlap

---- Real-time Memory Report at c_bands before calling an iterative solver
           109 MiB given to the printing process from OS
            57 MiB allocation reported by mallinfo(arena+hblkhd)
        487932 MiB available memory on the node where the printing process lives
------------------
     ethr =  4.22E-06,  avg # of iterations =  1.0

     total cpu time spent up to now is      138.1 secs

     total energy              =    -827.14496818 Ry
     estimated scf accuracy    <       0.01560582 Ry

     total magnetization       =     3.31 Bohr mag/cell
     absolute magnetization    =     3.37 Bohr mag/cell

     iteration # 85     ecut=    60.00 Ry     beta= 0.40
     Davidson diagonalization with overlap

---- Real-time Memory Report at c_bands before calling an iterative solver
           109 MiB given to the printing process from OS
            57 MiB allocation reported by mallinfo(arena+hblkhd)
        487932 MiB available memory on the node where the printing process lives
------------------
     ethr =  4.22E-06,  avg # of iterations =  2.0

     total cpu time spent up to now is      139.7 secs

     total energy              =    -827.14847294 Ry
     estimated scf accuracy    <       0.00423999 Ry

     total magnetization       =     4.05 Bohr mag/cell
     absolute magnetization    =     4.10 Bohr mag/cell

     iteration # 86     ecut=    60.00 Ry     beta= 0.40
     Davidson diagonalization with overlap

---- Real-time Memory Report at c_bands before calling an iterative solver
           109 MiB given to the printing process from OS
            57 MiB allocation reported by mallinfo(arena+hblkhd)
        487931 MiB available memory on the node where the printing process lives
------------------
     ethr =  4.22E-06,  avg # of iterations =  1.2

     total cpu time spent up to now is      141.2 secs

     total energy              =    -827.14824901 Ry
     estimated scf accuracy    <       0.00433545 Ry

     total magnetization       =     4.03 Bohr mag/cell
     absolute magnetization    =     4.08 Bohr mag/cell

     iteration # 87     ecut=    60.00 Ry     beta= 0.40
     Davidson diagonalization with overlap

---- Real-time Memory Report at c_bands before calling an iterative solver
           109 MiB given to the printing process from OS
            57 MiB allocation reported by mallinfo(arena+hblkhd)
        487931 MiB available memory on the node where the printing process lives
------------------
     ethr =  4.22E-06,  avg # of iterations =  1.0

     total cpu time spent up to now is      142.6 secs

     total energy              =    -827.14667362 Ry
     estimated scf accuracy    <       0.00416629 Ry

     total magnetization       =     4.07 Bohr mag/cell
     absolute magnetization    =     4.12 Bohr mag/cell

     iteration # 88     ecut=    60.00 Ry     beta= 0.40
     Davidson diagonalization with overlap

---- Real-time Memory Report at c_bands before calling an iterative solver
           109 MiB given to the printing process from OS
            57 MiB allocation reported by mallinfo(arena+hblkhd)
        487929 MiB available memory on the node where the printing process lives
------------------
     ethr =  4.22E-06,  avg # of iterations =  1.5

     total cpu time spent up to now is      144.1 secs

     total energy              =    -827.14631604 Ry
     estimated scf accuracy    <       0.00570118 Ry

     total magnetization       =     4.19 Bohr mag/cell
     absolute magnetization    =     4.25 Bohr mag/cell

     iteration # 89     ecut=    60.00 Ry     beta= 0.40
     Davidson diagonalization with overlap

---- Real-time Memory Report at c_bands before calling an iterative solver
           109 MiB given to the printing process from OS
            57 MiB allocation reported by mallinfo(arena+hblkhd)
        487929 MiB available memory on the node where the printing process lives
------------------
     ethr =  4.22E-06,  avg # of iterations =  1.0

     total cpu time spent up to now is      145.6 secs

     total energy              =    -827.14739002 Ry
     estimated scf accuracy    <       0.00760083 Ry

     total magnetization       =     4.20 Bohr mag/cell
     absolute magnetization    =     4.26 Bohr mag/cell

     iteration # 90     ecut=    60.00 Ry     beta= 0.40
     Davidson diagonalization with overlap

---- Real-time Memory Report at c_bands before calling an iterative solver
           109 MiB given to the printing process from OS
            57 MiB allocation reported by mallinfo(arena+hblkhd)
        487929 MiB available memory on the node where the printing process lives
------------------
     ethr =  4.22E-06,  avg # of iterations =  1.0

     total cpu time spent up to now is      147.0 secs

     total energy              =    -827.14708378 Ry
     estimated scf accuracy    <       0.00477298 Ry

     total magnetization       =     4.16 Bohr mag/cell
     absolute magnetization    =     4.22 Bohr mag/cell

     iteration # 91     ecut=    60.00 Ry     beta= 0.40
     Davidson diagonalization with overlap

---- Real-time Memory Report at c_bands before calling an iterative solver
           109 MiB given to the printing process from OS
            57 MiB allocation reported by mallinfo(arena+hblkhd)
        487929 MiB available memory on the node where the printing process lives
------------------
     ethr =  4.22E-06,  avg # of iterations =  1.0

     total cpu time spent up to now is      148.4 secs

     total energy              =    -827.14567649 Ry
     estimated scf accuracy    <       0.00541502 Ry

     total magnetization       =     4.19 Bohr mag/cell
     absolute magnetization    =     4.24 Bohr mag/cell

     iteration # 92     ecut=    60.00 Ry     beta= 0.40
     Davidson diagonalization with overlap

---- Real-time Memory Report at c_bands before calling an iterative solver
           109 MiB given to the printing process from OS
            57 MiB allocation reported by mallinfo(arena+hblkhd)
        487928 MiB available memory on the node where the printing process lives
------------------
     ethr =  4.22E-06,  avg # of iterations =  1.0

     total cpu time spent up to now is      149.8 secs

     total energy              =    -827.14721742 Ry
     estimated scf accuracy    <       0.00983227 Ry

     total magnetization       =     4.20 Bohr mag/cell
     absolute magnetization    =     4.26 Bohr mag/cell

     iteration # 93     ecut=    60.00 Ry     beta= 0.40
     Davidson diagonalization with overlap

---- Real-time Memory Report at c_bands before calling an iterative solver
           109 MiB given to the printing process from OS
            57 MiB allocation reported by mallinfo(arena+hblkhd)
        487928 MiB available memory on the node where the printing process lives
------------------
     ethr =  4.22E-06,  avg # of iterations =  1.0

     total cpu time spent up to now is      151.2 secs

     total energy              =    -827.14844822 Ry
     estimated scf accuracy    <       0.00507392 Ry

     total magnetization       =     4.18 Bohr mag/cell
     absolute magnetization    =     4.23 Bohr mag/cell

     iteration # 94     ecut=    60.00 Ry     beta= 0.40
     Davidson diagonalization with overlap

---- Real-time Memory Report at c_bands before calling an iterative solver
           109 MiB given to the printing process from OS
            57 MiB allocation reported by mallinfo(arena+hblkhd)
        487927 MiB available memory on the node where the printing process lives
------------------
     ethr =  4.22E-06,  avg # of iterations =  2.0

     total cpu time spent up to now is      152.8 secs

     total energy              =    -827.15090915 Ry
     estimated scf accuracy    <       0.00709281 Ry

     total magnetization       =     3.73 Bohr mag/cell
     absolute magnetization    =     3.79 Bohr mag/cell

     iteration # 95     ecut=    60.00 Ry     beta= 0.40
     Davidson diagonalization with overlap

---- Real-time Memory Report at c_bands before calling an iterative solver
           109 MiB given to the printing process from OS
            57 MiB allocation reported by mallinfo(arena+hblkhd)
        487927 MiB available memory on the node where the printing process lives
------------------
     ethr =  4.22E-06,  avg # of iterations =  1.5

     total cpu time spent up to now is      154.3 secs

     total energy              =    -827.15073451 Ry
     estimated scf accuracy    <       0.01320162 Ry

     total magnetization       =     3.41 Bohr mag/cell
     absolute magnetization    =     3.47 Bohr mag/cell

     iteration # 96     ecut=    60.00 Ry     beta= 0.40
     Davidson diagonalization with overlap

---- Real-time Memory Report at c_bands before calling an iterative solver
           109 MiB given to the printing process from OS
            57 MiB allocation reported by mallinfo(arena+hblkhd)
        487927 MiB available memory on the node where the printing process lives
------------------
     ethr =  4.22E-06,  avg # of iterations =  1.0

     total cpu time spent up to now is      155.8 secs

     total energy              =    -827.14539923 Ry
     estimated scf accuracy    <       0.01035640 Ry

     total magnetization       =     3.53 Bohr mag/cell
     absolute magnetization    =     3.59 Bohr mag/cell

     iteration # 97     ecut=    60.00 Ry     beta= 0.40
     Davidson diagonalization with overlap

---- Real-time Memory Report at c_bands before calling an iterative solver
           109 MiB given to the printing process from OS
            57 MiB allocation reported by mallinfo(arena+hblkhd)
        487924 MiB available memory on the node where the printing process lives
------------------
     ethr =  4.22E-06,  avg # of iterations =  2.0

     total cpu time spent up to now is      157.3 secs

     total energy              =    -827.14851894 Ry
     estimated scf accuracy    <       0.00402534 Ry

     total magnetization       =     4.11 Bohr mag/cell
     absolute magnetization    =     4.17 Bohr mag/cell

     iteration # 98     ecut=    60.00 Ry     beta= 0.40
     Davidson diagonalization with overlap

---- Real-time Memory Report at c_bands before calling an iterative solver
           109 MiB given to the printing process from OS
            57 MiB allocation reported by mallinfo(arena+hblkhd)
        487924 MiB available memory on the node where the printing process lives
------------------
     ethr =  4.22E-06,  avg # of iterations =  1.0

     total cpu time spent up to now is      158.8 secs

     total energy              =    -827.14803355 Ry
     estimated scf accuracy    <       0.00424339 Ry

     total magnetization       =     4.00 Bohr mag/cell
     absolute magnetization    =     4.05 Bohr mag/cell

     iteration # 99     ecut=    60.00 Ry     beta= 0.40
     Davidson diagonalization with overlap

---- Real-time Memory Report at c_bands before calling an iterative solver
           109 MiB given to the printing process from OS
            57 MiB allocation reported by mallinfo(arena+hblkhd)
        487924 MiB available memory on the node where the printing process lives
------------------
     ethr =  4.22E-06,  avg # of iterations =  1.0

     total cpu time spent up to now is      160.2 secs

     total energy              =    -827.14821029 Ry
     estimated scf accuracy    <       0.00395220 Ry

     total magnetization       =     4.09 Bohr mag/cell
     absolute magnetization    =     4.14 Bohr mag/cell

     iteration #100     ecut=    60.00 Ry     beta= 0.40
     Davidson diagonalization with overlap

---- Real-time Memory Report at c_bands before calling an iterative solver
           109 MiB given to the printing process from OS
            57 MiB allocation reported by mallinfo(arena+hblkhd)
        487924 MiB available memory on the node where the printing process lives
------------------
     ethr =  4.22E-06,  avg # of iterations =  1.0

     total cpu time spent up to now is      161.6 secs

     total energy              =    -827.14837160 Ry
     estimated scf accuracy    <       0.00403765 Ry

     total magnetization       =     4.08 Bohr mag/cell
     absolute magnetization    =     4.13 Bohr mag/cell

     End of self-consistent calculation

     convergence NOT achieved after 100 iterations: stopping

     Writing config to output data dir ./out/aiida.save/ :
     XML data file, charge density

     init_run     :      1.53s CPU      1.60s WALL (       1 calls)
     electrons    :    153.60s CPU    159.52s WALL (       1 calls)

     Called by init_run:
     wfcinit      :      0.54s CPU      0.56s WALL (       1 calls)
     wfcinit:atom :      0.01s CPU      0.01s WALL (      14 calls)
     wfcinit:wfcr :      0.49s CPU      0.51s WALL (      14 calls)
     potinit      :      0.42s CPU      0.45s WALL (       1 calls)
     hinit0       :      0.30s CPU      0.31s WALL (       1 calls)

     Called by electrons:
     c_bands      :    109.21s CPU    112.18s WALL (     100 calls)
     sum_band     :     23.76s CPU     24.44s WALL (     100 calls)
     v_of_rho     :      6.73s CPU      7.06s WALL (     101 calls)
     v_h          :      0.24s CPU      0.25s WALL (     101 calls)
     v_xc         :      6.49s CPU      6.81s WALL (     101 calls)
     newd         :      2.53s CPU      2.88s WALL (     101 calls)
     PAW_pot      :      9.23s CPU     10.61s WALL (     101 calls)
     mix_rho      :      0.95s CPU      0.99s WALL (     100 calls)

     Called by c_bands:
     init_us_2    :      1.90s CPU      1.94s WALL (    2814 calls)
     init_us_2:cp :      1.89s CPU      1.93s WALL (    2814 calls)
     cegterg      :    103.11s CPU    105.25s WALL (    1400 calls)

     Called by sum_band:
     sum_band:wei :      0.12s CPU      0.13s WALL (     100 calls)
     sum_band:loo :     18.52s CPU     19.00s WALL (     100 calls)
     sum_band:buf :      0.37s CPU      0.37s WALL (    1400 calls)
     sum_band:ini :      0.79s CPU      0.79s WALL (    1400 calls)
     sum_band:cal :      2.14s CPU      2.15s WALL (    1400 calls)
     sum_band:bec :      0.06s CPU      0.06s WALL (    1400 calls)
     addusdens    :      4.04s CPU      4.07s WALL (     100 calls)
                                        0.00s GPU  (     100 calls)
     addusd:skk   :      0.02s CPU      0.02s WALL (     400 calls)
                                        0.00s GPU  (     400 calls)

     Called by *egterg:
     cdiaghg      :     10.37s CPU     10.41s WALL (    4208 calls)
     cegterg:over :      4.33s CPU      4.39s WALL (    2808 calls)
     cegterg:upda :      2.46s CPU      2.52s WALL (    2808 calls)
     cegterg:last :      4.65s CPU      4.72s WALL (    2273 calls)
     h_psi        :     74.31s CPU     76.12s WALL (    4222 calls)
     s_psi        :      4.03s CPU      4.09s WALL (    4222 calls)
     g_psi        :      0.20s CPU      0.21s WALL (    2808 calls)

     Called by h_psi:
     h_psi:calbec :      6.31s CPU      6.39s WALL (    4222 calls)
     vloc_psi     :     63.08s CPU     64.70s WALL (    4222 calls)
     add_vuspsi   :      4.10s CPU      4.19s WALL (    4222 calls)

     General routines
     calbec       :      8.43s CPU      8.52s WALL (    5622 calls)
     fft          :      2.60s CPU      2.87s WALL (    2523 calls)
     ffts         :      0.35s CPU      0.37s WALL (     402 calls)
     fftw         :     63.62s CPU     65.12s WALL (  364316 calls)
     interpolate  :      0.52s CPU      0.56s WALL (     202 calls)
     davcio       :      0.00s CPU      0.02s WALL (      32 calls)

     Parallel routines

     PAW routines
     PAW_pot      :      9.23s CPU     10.61s WALL (     101 calls)
     PAW_symme    :      0.13s CPU      0.14s WALL (     201 calls)

     PWSCF        :   2m35.81s CPU   2m42.21s WALL


   This run was terminated on:  20:30:51  29Nov2023            

=------------------------------------------------------------------------------=
   JOB DONE.
=------------------------------------------------------------------------------=
