
     Program PWSCF v.7.2 starts on 28Nov2023 at 19: 3: 2 
        Git branch: develop
        Last git commit: 9055681be6fc8200e6fffe76ed5fda34c2696339
        Last git commit date: Wed Nov 8 16:29:39 2023 +0000
        Last git commit subject: Merge branch 'calbec_fix' into 'develop'

     This program is part of the open-source Quantum ESPRESSO suite
     for quantum simulation of materials; please cite
         "P. Giannozzi et al., J. Phys.:Condens. Matter 21 395502 (2009);
         "P. Giannozzi et al., J. Phys.:Condens. Matter 29 465901 (2017);
         "P. Giannozzi et al., J. Chem. Phys. 152 154105 (2020);
          URL http://www.quantum-espresso.org", 
     in publications or presentations arising from this work. More details at
     http://www.quantum-espresso.org/quote

     Parallel version (MPI), running on    56 processors

     MPI processes distributed on     1 nodes
     488918 MiB available memory on the printing compute node when the environment starts

     Reading input from aiida.in

     Current dimensions of program PWSCF are:
     Max number of different atomic species (ntypx) = 10
     Max number of k-points (npk) =  40000
     Max angular momentum in pseudopotentials (lmaxx) =  4
     file In.pbesol-dn-rrkjus_psl.0.2.2.UPF: wavefunction(s)  5S renormalized
     Message from routine setup:
     using ibrav=0 with symmetry is DISCOURAGED, use correct ibrav instead

     K-points division:     npool     =       8
     R & G space division:  proc/nbgrp/npool/nimage =       7
     Subspace diagonalization in iterative solution of the eigenvalue problem:
     a serial algorithm will be used


     Parallelization info
     --------------------
     sticks:   dense  smooth     PW     G-vecs:    dense   smooth      PW
     Min         284     143     43                 8411     2981     497
     Max         285     144     43                 8413     2984     497
     Sum        1993    1003    301                58887    20875    3479

     Using Slab Decomposition



     bravais-lattice index     =            0
     lattice parameter (alat)  =       8.5252  a.u.
     unit-cell volume          =     438.1256 (a.u.)^3
     number of atoms/cell      =            4
     number of atomic types    =            4
     number of electrons       =        52.00
     number of Kohn-Sham states=           31
     kinetic-energy cutoff     =      50.0000  Ry
     charge density cutoff     =     400.0000  Ry
     scf convergence threshold =      8.0E-10
     mixing beta               =       0.4000
     number of iterations used =            8  plain     mixing
     Exchange-correlation= SLA  PW   PSX  PSC
                           (   1   4  10   8   0   0   0)

     celldm(1)=   8.525199  celldm(2)=   0.000000  celldm(3)=   0.000000
     celldm(4)=   0.000000  celldm(5)=   0.000000  celldm(6)=   0.000000

     crystal axes: (cart. coord. in units of alat)
               a(1) = (   0.000000   0.707107   0.707107 )  
               a(2) = (   0.707107   0.000000   0.707107 )  
               a(3) = (   0.707107   0.707107   0.000000 )  

     reciprocal axes: (cart. coord. in units 2 pi/alat)
               b(1) = ( -0.707107  0.707107  0.707107 )  
               b(2) = (  0.707107 -0.707107  0.707107 )  
               b(3) = (  0.707107  0.707107 -0.707107 )  


     PseudoPot. # 1 for Cr read from file:
     ./pseudo/cr_pbesol_v1.5.uspp.F.UPF
     MD5 check sum: a621641e0be27168676a837af8893d0f
     Pseudo is Ultrasoft + core correction, Zval = 14.0
     Generated by new atomic code, or converted to UPF format
     Using radial grid of  857 points,  6 beta functions with: 
                l(1) =   0
                l(2) =   0
                l(3) =   1
                l(4) =   1
                l(5) =   2
                l(6) =   2
     Q(r) pseudized with  8 coefficients,  rinner =    0.950   0.950   0.950
                                                       0.950   0.950

     PseudoPot. # 2 for Hf read from file:
     ./pseudo/Hf-sp.oncvpsp.upf
     MD5 check sum: 3619c98de2ee908b1d969add25be4863
     Pseudo is Norm-conserving + core correction, Zval = 12.0
     Generated using ONCVPSP code by D. R. Hamann
     Using radial grid of 1656 points,  8 beta functions with: 
                l(1) =   0
                l(2) =   0
                l(3) =   1
                l(4) =   1
                l(5) =   2
                l(6) =   2
                l(7) =   3
                l(8) =   3

     PseudoPot. # 3 for In read from file:
     ./pseudo/In.pbesol-dn-rrkjus_psl.0.2.2.UPF
     MD5 check sum: 2a3399a31491503da6b8c7d8e01e9843
     Pseudo is Ultrasoft + core correction, Zval = 13.0
     Generated using "atomic" code by A. Dal Corso  v.6.0 svn rev. 13079
     Using radial grid of 1241 points,  6 beta functions with: 
                l(1) =   0
                l(2) =   0
                l(3) =   1
                l(4) =   1
                l(5) =   2
                l(6) =   2
     Q(r) pseudized with 0 coefficients 


     PseudoPot. # 4 for V  read from file:
     ./pseudo/v_pbesol_v1.4.uspp.F.UPF
     MD5 check sum: 72fa7d0034c41d8adc50bbc8c632b9f9
     Pseudo is Ultrasoft + core correction, Zval = 13.0
     Generated by new atomic code, or converted to UPF format
     Using radial grid of  853 points,  6 beta functions with: 
                l(1) =   0
                l(2) =   0
                l(3) =   1
                l(4) =   1
                l(5) =   2
                l(6) =   2
     Q(r) pseudized with  8 coefficients,  rinner =    1.100   1.100   1.100
                                                       1.100   1.100

     atomic species   valence    mass     pseudopotential
     Cr               14.00    51.99610     Cr( 1.00)
     Hf               12.00   178.49000     Hf( 1.00)
     In               13.00   114.81800     In( 1.00)
     V                13.00    50.94150     V ( 1.00)

     Starting magnetic structure 
     atomic species   magnetization
     Cr              0.357
     Hf              0.417
     In              0.100
     V               0.385

     24 Sym. Ops. (no inversion) found


                                    s                        frac. trans.

      isym =  1     identity                                     

 cryst.   s( 1) = (     1          0          0      )
                  (     0          1          0      )
                  (     0          0          1      )

 cart.    s( 1) = (  1.0000000 -0.0000000  0.0000000 )
                  ( -0.0000000  1.0000000  0.0000000 )
                  ( -0.0000000  0.0000000  1.0000000 )


      isym =  2     180 deg rotation - cart. axis [0,0,1]        

 cryst.   s( 2) = (     0          1         -1      )
                  (     1          0         -1      )
                  (     0          0         -1      )

 cart.    s( 2) = ( -1.0000000  0.0000000  0.0000000 )
                  (  0.0000000 -1.0000000  0.0000000 )
                  (  0.0000000 -0.0000000  1.0000000 )


      isym =  3     180 deg rotation - cart. axis [0,1,0]        

 cryst.   s( 3) = (     0         -1          1      )
                  (     0         -1          0      )
                  (     1         -1          0      )

 cart.    s( 3) = ( -1.0000000 -0.0000000 -0.0000000 )
                  (  0.0000000  1.0000000 -0.0000000 )
                  (  0.0000000  0.0000000 -1.0000000 )


      isym =  4     180 deg rotation - cart. axis [1,0,0]        

 cryst.   s( 4) = (    -1          0          0      )
                  (    -1          0          1      )
                  (    -1          1          0      )

 cart.    s( 4) = (  1.0000000  0.0000000 -0.0000000 )
                  ( -0.0000000 -1.0000000 -0.0000000 )
                  ( -0.0000000 -0.0000000 -1.0000000 )


      isym =  5     120 deg rotation - cart. axis [-1,-1,-1]     

 cryst.   s( 5) = (     0          0          1      )
                  (     1          0          0      )
                  (     0          1          0      )

 cart.    s( 5) = (  0.0000000  1.0000000 -0.0000000 )
                  (  0.0000000 -0.0000000  1.0000000 )
                  (  1.0000000 -0.0000000  0.0000000 )


      isym =  6     120 deg rotation - cart. axis [-1,1,1]       

 cryst.   s( 6) = (     1         -1          0      )
                  (     0         -1          1      )
                  (     0         -1          0      )

 cart.    s( 6) = ( -0.0000000 -1.0000000 -0.0000000 )
                  ( -0.0000000  0.0000000  1.0000000 )
                  ( -1.0000000  0.0000000  0.0000000 )


      isym =  7     120 deg rotation - cart. axis [1,1,-1]       

 cryst.   s( 7) = (    -1          1          0      )
                  (    -1          0          0      )
                  (    -1          0          1      )

 cart.    s( 7) = ( -0.0000000  1.0000000  0.0000000 )
                  ( -0.0000000 -0.0000000 -1.0000000 )
                  ( -1.0000000 -0.0000000 -0.0000000 )


      isym =  8     120 deg rotation - cart. axis [1,-1,1]       

 cryst.   s( 8) = (     0          0         -1      )
                  (     0          1         -1      )
                  (     1          0         -1      )

 cart.    s( 8) = (  0.0000000 -1.0000000  0.0000000 )
                  (  0.0000000  0.0000000 -1.0000000 )
                  (  1.0000000  0.0000000 -0.0000000 )


      isym =  9     120 deg rotation - cart. axis [1,1,1]        

 cryst.   s( 9) = (     0          1          0      )
                  (     0          0          1      )
                  (     1          0          0      )

 cart.    s( 9) = ( -0.0000000  0.0000000  1.0000000 )
                  (  1.0000000  0.0000000 -0.0000000 )
                  (  0.0000000  1.0000000 -0.0000000 )


      isym = 10     120 deg rotation - cart. axis [-1,1,-1]      

 cryst.   s(10) = (    -1          0          1      )
                  (    -1          1          0      )
                  (    -1          0          0      )

 cart.    s(10) = (  0.0000000 -0.0000000  1.0000000 )
                  ( -1.0000000 -0.0000000 -0.0000000 )
                  ( -0.0000000 -1.0000000 -0.0000000 )


      isym = 11     120 deg rotation - cart. axis [1,-1,-1]      

 cryst.   s(11) = (     1          0         -1      )
                  (     0          0         -1      )
                  (     0          1         -1      )

 cart.    s(11) = (  0.0000000  0.0000000 -1.0000000 )
                  ( -1.0000000  0.0000000  0.0000000 )
                  ( -0.0000000  1.0000000  0.0000000 )


      isym = 12     120 deg rotation - cart. axis [-1,-1,1]      

 cryst.   s(12) = (     0         -1          0      )
                  (     1         -1          0      )
                  (     0         -1          1      )

 cart.    s(12) = ( -0.0000000 -0.0000000 -1.0000000 )
                  (  1.0000000 -0.0000000  0.0000000 )
                  (  0.0000000 -1.0000000  0.0000000 )


      isym = 13     inv. 180 deg rotation - cart. axis [1,1,0]   

 cryst.   s(13) = (     1          0         -1      )
                  (     0          1         -1      )
                  (     0          0         -1      )

 cart.    s(13) = (  0.0000000 -1.0000000  0.0000000 )
                  ( -1.0000000  0.0000000  0.0000000 )
                  ( -0.0000000  0.0000000  1.0000000 )


      isym = 14     inv. 180 deg rotation - cart. axis [1,-1,0]  

 cryst.   s(14) = (     0          1          0      )
                  (     1          0          0      )
                  (     0          0          1      )

 cart.    s(14) = ( -0.0000000  1.0000000  0.0000000 )
                  (  1.0000000 -0.0000000  0.0000000 )
                  (  0.0000000 -0.0000000  1.0000000 )


      isym = 15     inv.  90 deg rotation - cart. axis [0,0,-1]  

 cryst.   s(15) = (     0         -1          0      )
                  (     0         -1          1      )
                  (     1         -1          0      )

 cart.    s(15) = ( -0.0000000 -1.0000000 -0.0000000 )
                  (  1.0000000  0.0000000 -0.0000000 )
                  (  0.0000000  0.0000000 -1.0000000 )


      isym = 16     inv.  90 deg rotation - cart. axis [0,0,1]   

 cryst.   s(16) = (    -1          0          1      )
                  (    -1          0          0      )
                  (    -1          1          0      )

 cart.    s(16) = (  0.0000000  1.0000000 -0.0000000 )
                  ( -1.0000000 -0.0000000 -0.0000000 )
                  ( -0.0000000 -0.0000000 -1.0000000 )


      isym = 17     inv. 180 deg rotation - cart. axis [1,0,1]   

 cryst.   s(17) = (     1         -1          0      )
                  (     0         -1          0      )
                  (     0         -1          1      )

 cart.    s(17) = ( -0.0000000 -0.0000000 -1.0000000 )
                  ( -0.0000000  1.0000000  0.0000000 )
                  ( -1.0000000  0.0000000  0.0000000 )


      isym = 18     inv. 180 deg rotation - cart. axis [-1,0,1]  

 cryst.   s(18) = (     0          0          1      )
                  (     0          1          0      )
                  (     1          0          0      )

 cart.    s(18) = (  0.0000000 -0.0000000  1.0000000 )
                  (  0.0000000  1.0000000 -0.0000000 )
                  (  1.0000000  0.0000000 -0.0000000 )


      isym = 19     inv.  90 deg rotation - cart. axis [0,1,0]   

 cryst.   s(19) = (     0          0         -1      )
                  (     1          0         -1      )
                  (     0          1         -1      )

 cart.    s(19) = (  0.0000000  0.0000000 -1.0000000 )
                  (  0.0000000 -1.0000000  0.0000000 )
                  (  1.0000000 -0.0000000  0.0000000 )


      isym = 20     inv.  90 deg rotation - cart. axis [0,-1,0]  

 cryst.   s(20) = (    -1          1          0      )
                  (    -1          0          1      )
                  (    -1          0          0      )

 cart.    s(20) = ( -0.0000000  0.0000000  1.0000000 )
                  ( -0.0000000 -1.0000000 -0.0000000 )
                  ( -1.0000000 -0.0000000 -0.0000000 )


      isym = 21     inv. 180 deg rotation - cart. axis [0,1,1]   

 cryst.   s(21) = (    -1          0          0      )
                  (    -1          1          0      )
                  (    -1          0          1      )

 cart.    s(21) = (  1.0000000 -0.0000000  0.0000000 )
                  ( -0.0000000 -0.0000000 -1.0000000 )
                  ( -0.0000000 -1.0000000 -0.0000000 )


      isym = 22     inv. 180 deg rotation - cart. axis [0,1,-1]  

 cryst.   s(22) = (     1          0          0      )
                  (     0          0          1      )
                  (     0          1          0      )

 cart.    s(22) = (  1.0000000  0.0000000 -0.0000000 )
                  ( -0.0000000  0.0000000  1.0000000 )
                  ( -0.0000000  1.0000000  0.0000000 )


      isym = 23     inv.  90 deg rotation - cart. axis [-1,0,0]  

 cryst.   s(23) = (     0          1         -1      )
                  (     0          0         -1      )
                  (     1          0         -1      )

 cart.    s(23) = ( -1.0000000  0.0000000  0.0000000 )
                  (  0.0000000  0.0000000 -1.0000000 )
                  (  0.0000000  1.0000000 -0.0000000 )


      isym = 24     inv.  90 deg rotation - cart. axis [1,0,0]   

 cryst.   s(24) = (     0         -1          1      )
                  (     1         -1          0      )
                  (     0         -1          0      )

 cart.    s(24) = ( -1.0000000 -0.0000000 -0.0000000 )
                  (  0.0000000 -0.0000000  1.0000000 )
                  (  0.0000000 -1.0000000  0.0000000 )


   Cartesian axes

     site n.     atom                  positions (alat units)
         1        Hf     tau(   1) = (   0.3535534   0.3535534   0.3535534  )
         2        V      tau(   2) = (   0.7071068   0.0000000   0.0000000  )
         3        Cr     tau(   3) = (   0.0000000   0.0000000   0.0000000  )
         4        In     tau(   4) = (   0.3535534   0.3535534   1.0606602  )

   Crystallographic axes

     site n.     atom                  positions (cryst. coord.)
         1        Hf     tau(   1) = (  0.2500000  0.2500000  0.2500000  )
         2        V      tau(   2) = ( -0.5000000  0.5000000  0.5000000  )
         3        Cr     tau(   3) = (  0.0000000  0.0000000  0.0000000  )
         4        In     tau(   4) = (  0.7500000  0.7500000 -0.2500000  )

     number of k points=    72  Marzari-Vanderbilt smearing, width (Ry)=  0.0200
                       cart. coord. in units 2pi/alat
        k(    1) = (   0.0000000   0.0000000   0.0000000), wk =   0.0005787
        k(    2) = (   0.0589256   0.0589256  -0.0589256), wk =   0.0046296
        k(    3) = (   0.1178511   0.1178511  -0.1178511), wk =   0.0046296
        k(    4) = (   0.1767767   0.1767767  -0.1767767), wk =   0.0046296
        k(    5) = (   0.2357023   0.2357023  -0.2357023), wk =   0.0046296
        k(    6) = (   0.2946278   0.2946278  -0.2946278), wk =   0.0046296
        k(    7) = (  -0.3535534  -0.3535534   0.3535534), wk =   0.0023148
        k(    8) = (   0.1178511   0.0000000  -0.0000000), wk =   0.0034722
        k(    9) = (   0.1767767   0.0589256  -0.0589256), wk =   0.0138889
        k(   10) = (   0.2357023   0.1178511  -0.1178511), wk =   0.0138889
        k(   11) = (   0.2946278   0.1767767  -0.1767767), wk =   0.0138889
        k(   12) = (   0.3535534   0.2357023  -0.2357023), wk =   0.0138889
        k(   13) = (  -0.2946278  -0.4124790   0.4124790), wk =   0.0138889
        k(   14) = (  -0.2357023  -0.3535534   0.3535534), wk =   0.0138889
        k(   15) = (  -0.1767767  -0.2946278   0.2946278), wk =   0.0138889
        k(   16) = (  -0.1178511  -0.2357023   0.2357023), wk =   0.0138889
        k(   17) = (  -0.0589256  -0.1767767   0.1767767), wk =   0.0138889
        k(   18) = (  -0.0000000  -0.1178511   0.1178511), wk =   0.0069444
        k(   19) = (   0.2357023   0.0000000  -0.0000000), wk =   0.0034722
        k(   20) = (   0.2946278   0.0589256  -0.0589256), wk =   0.0138889
        k(   21) = (   0.3535534   0.1178511  -0.1178511), wk =   0.0138889
        k(   22) = (   0.4124790   0.1767767  -0.1767767), wk =   0.0138889
        k(   23) = (  -0.2357023  -0.4714045   0.4714045), wk =   0.0138889
        k(   24) = (  -0.1767767  -0.4124790   0.4124790), wk =   0.0138889
        k(   25) = (  -0.1178511  -0.3535534   0.3535534), wk =   0.0138889
        k(   26) = (  -0.0589256  -0.2946278   0.2946278), wk =   0.0138889
        k(   27) = (   0.0000000  -0.2357023   0.2357023), wk =   0.0069444
        k(   28) = (   0.3535534   0.0000000   0.0000000), wk =   0.0034722
        k(   29) = (   0.4124790   0.0589256  -0.0589256), wk =   0.0138889
        k(   30) = (   0.4714045   0.1178511  -0.1178511), wk =   0.0138889
        k(   31) = (  -0.1767767  -0.5303301   0.5303301), wk =   0.0138889
        k(   32) = (  -0.1178511  -0.4714045   0.4714045), wk =   0.0138889
        k(   33) = (  -0.0589256  -0.4124790   0.4124790), wk =   0.0138889
        k(   34) = (   0.0000000  -0.3535534   0.3535534), wk =   0.0069444
        k(   35) = (   0.4714045   0.0000000  -0.0000000), wk =   0.0034722
        k(   36) = (   0.5303301   0.0589256  -0.0589256), wk =   0.0138889
        k(   37) = (  -0.1178511  -0.5892557   0.5892557), wk =   0.0138889
        k(   38) = (  -0.0589256  -0.5303301   0.5303301), wk =   0.0138889
        k(   39) = (  -0.0000000  -0.4714045   0.4714045), wk =   0.0069444
        k(   40) = (   0.5892557   0.0000000  -0.0000000), wk =   0.0034722
        k(   41) = (  -0.0589256  -0.6481812   0.6481812), wk =   0.0138889
        k(   42) = (   0.0000000  -0.5892557   0.5892557), wk =   0.0069444
        k(   43) = (  -0.7071068   0.0000000   0.0000000), wk =   0.0017361
        k(   44) = (   0.2357023   0.1178511   0.0000000), wk =   0.0138889
        k(   45) = (   0.2946278   0.1767767  -0.0589256), wk =   0.0277778
        k(   46) = (   0.3535534   0.2357023  -0.1178511), wk =   0.0277778
        k(   47) = (  -0.2946278  -0.4124790   0.5303301), wk =   0.0277778
        k(   48) = (  -0.2357023  -0.3535534   0.4714045), wk =   0.0138889
        k(   49) = (   0.3535534   0.1178511   0.0000000), wk =   0.0138889
        k(   50) = (   0.4124790   0.1767767  -0.0589256), wk =   0.0277778
        k(   51) = (  -0.2357023  -0.4714045   0.5892557), wk =   0.0277778
        k(   52) = (  -0.1767767  -0.4124790   0.5303301), wk =   0.0277778
        k(   53) = (  -0.1178511  -0.3535534   0.4714045), wk =   0.0277778
        k(   54) = (  -0.0589256  -0.2946278   0.4124790), wk =   0.0277778
        k(   55) = (   0.0000000  -0.2357023   0.3535534), wk =   0.0138889
        k(   56) = (   0.4714045   0.1178511  -0.0000000), wk =   0.0138889
        k(   57) = (  -0.1767767  -0.5303301   0.6481812), wk =   0.0277778
        k(   58) = (  -0.1178511  -0.4714045   0.5892557), wk =   0.0277778
        k(   59) = (  -0.0589256  -0.4124790   0.5303301), wk =   0.0277778
        k(   60) = (  -0.0000000  -0.3535534   0.4714045), wk =   0.0138889
        k(   61) = (  -0.1178511  -0.5892557   0.7071068), wk =   0.0138889
        k(   62) = (  -0.0589256  -0.5303301   0.6481812), wk =   0.0277778
        k(   63) = (  -0.0000000  -0.4714045   0.5892557), wk =   0.0138889
        k(   64) = (  -0.7071068   0.1178511  -0.0000000), wk =   0.0069444
        k(   65) = (  -0.2357023  -0.4714045   0.7071068), wk =   0.0138889
        k(   66) = (  -0.1767767  -0.4124790   0.6481812), wk =   0.0277778
        k(   67) = (  -0.1178511  -0.3535534   0.5892557), wk =   0.0138889
        k(   68) = (  -0.1178511  -0.4714045   0.7071068), wk =   0.0138889
        k(   69) = (  -0.0589256  -0.4124790   0.6481812), wk =   0.0277778
        k(   70) = (   0.0000000  -0.3535534   0.5892557), wk =   0.0138889
        k(   71) = (  -0.7071068   0.2357023   0.0000000), wk =   0.0069444
        k(   72) = (  -0.7071068   0.3535534   0.0000000), wk =   0.0034722

                       cryst. coord.
        k(    1) = (   0.0000000   0.0000000   0.0000000), wk =   0.0005787
        k(    2) = (   0.0000000   0.0000000   0.0833333), wk =   0.0046296
        k(    3) = (   0.0000000   0.0000000   0.1666667), wk =   0.0046296
        k(    4) = (   0.0000000   0.0000000   0.2500000), wk =   0.0046296
        k(    5) = (   0.0000000   0.0000000   0.3333333), wk =   0.0046296
        k(    6) = (  -0.0000000  -0.0000000   0.4166667), wk =   0.0046296
        k(    7) = (  -0.0000000  -0.0000000  -0.5000000), wk =   0.0023148
        k(    8) = (  -0.0000000   0.0833333   0.0833333), wk =   0.0034722
        k(    9) = (   0.0000000   0.0833333   0.1666667), wk =   0.0138889
        k(   10) = (  -0.0000000   0.0833333   0.2500000), wk =   0.0138889
        k(   11) = (   0.0000000   0.0833333   0.3333333), wk =   0.0138889
        k(   12) = (  -0.0000000   0.0833333   0.4166667), wk =   0.0138889
        k(   13) = (  -0.0000000   0.0833333  -0.5000000), wk =   0.0138889
        k(   14) = (  -0.0000000   0.0833333  -0.4166667), wk =   0.0138889
        k(   15) = (  -0.0000000   0.0833333  -0.3333333), wk =   0.0138889
        k(   16) = (  -0.0000000   0.0833333  -0.2500000), wk =   0.0138889
        k(   17) = (  -0.0000000   0.0833333  -0.1666667), wk =   0.0138889
        k(   18) = (   0.0000000   0.0833333  -0.0833333), wk =   0.0069444
        k(   19) = (  -0.0000000   0.1666667   0.1666667), wk =   0.0034722
        k(   20) = (  -0.0000000   0.1666667   0.2500000), wk =   0.0138889
        k(   21) = (   0.0000000   0.1666667   0.3333333), wk =   0.0138889
        k(   22) = (  -0.0000000   0.1666667   0.4166667), wk =   0.0138889
        k(   23) = (  -0.0000000   0.1666667  -0.5000000), wk =   0.0138889
        k(   24) = (  -0.0000000   0.1666667  -0.4166667), wk =   0.0138889
        k(   25) = (  -0.0000000   0.1666667  -0.3333333), wk =   0.0138889
        k(   26) = (   0.0000000   0.1666667  -0.2500000), wk =   0.0138889
        k(   27) = (  -0.0000000   0.1666667  -0.1666667), wk =   0.0069444
        k(   28) = (   0.0000000   0.2500000   0.2500000), wk =   0.0034722
        k(   29) = (   0.0000000   0.2500000   0.3333333), wk =   0.0138889
        k(   30) = (  -0.0000000   0.2500000   0.4166667), wk =   0.0138889
        k(   31) = (   0.0000000   0.2500000  -0.5000000), wk =   0.0138889
        k(   32) = (  -0.0000000   0.2500000  -0.4166667), wk =   0.0138889
        k(   33) = (  -0.0000000   0.2500000  -0.3333333), wk =   0.0138889
        k(   34) = (  -0.0000000   0.2500000  -0.2500000), wk =   0.0069444
        k(   35) = (  -0.0000000   0.3333333   0.3333333), wk =   0.0034722
        k(   36) = (  -0.0000000   0.3333333   0.4166667), wk =   0.0138889
        k(   37) = (   0.0000000   0.3333333  -0.5000000), wk =   0.0138889
        k(   38) = (  -0.0000000   0.3333333  -0.4166667), wk =   0.0138889
        k(   39) = (   0.0000000   0.3333333  -0.3333333), wk =   0.0069444
        k(   40) = (   0.0000000   0.4166667   0.4166667), wk =   0.0034722
        k(   41) = (  -0.0000000   0.4166667  -0.5000000), wk =   0.0138889
        k(   42) = (   0.0000000   0.4166667  -0.4166667), wk =   0.0069444
        k(   43) = (   0.0000000  -0.5000000  -0.5000000), wk =   0.0017361
        k(   44) = (   0.0833333   0.1666667   0.2500000), wk =   0.0138889
        k(   45) = (   0.0833333   0.1666667   0.3333333), wk =   0.0277778
        k(   46) = (   0.0833333   0.1666667   0.4166667), wk =   0.0277778
        k(   47) = (   0.0833333   0.1666667  -0.5000000), wk =   0.0277778
        k(   48) = (   0.0833333   0.1666667  -0.4166667), wk =   0.0138889
        k(   49) = (   0.0833333   0.2500000   0.3333333), wk =   0.0138889
        k(   50) = (   0.0833333   0.2500000   0.4166667), wk =   0.0277778
        k(   51) = (   0.0833333   0.2500000  -0.5000000), wk =   0.0277778
        k(   52) = (   0.0833333   0.2500000  -0.4166667), wk =   0.0277778
        k(   53) = (   0.0833333   0.2500000  -0.3333333), wk =   0.0277778
        k(   54) = (   0.0833333   0.2500000  -0.2500000), wk =   0.0277778
        k(   55) = (   0.0833333   0.2500000  -0.1666667), wk =   0.0138889
        k(   56) = (   0.0833333   0.3333333   0.4166667), wk =   0.0138889
        k(   57) = (   0.0833333   0.3333333  -0.5000000), wk =   0.0277778
        k(   58) = (   0.0833333   0.3333333  -0.4166667), wk =   0.0277778
        k(   59) = (   0.0833333   0.3333333  -0.3333333), wk =   0.0277778
        k(   60) = (   0.0833333   0.3333333  -0.2500000), wk =   0.0138889
        k(   61) = (   0.0833333   0.4166667  -0.5000000), wk =   0.0138889
        k(   62) = (   0.0833333   0.4166667  -0.4166667), wk =   0.0277778
        k(   63) = (   0.0833333   0.4166667  -0.3333333), wk =   0.0138889
        k(   64) = (   0.0833333  -0.5000000  -0.4166667), wk =   0.0069444
        k(   65) = (   0.1666667   0.3333333  -0.5000000), wk =   0.0138889
        k(   66) = (   0.1666667   0.3333333  -0.4166667), wk =   0.0277778
        k(   67) = (   0.1666667   0.3333333  -0.3333333), wk =   0.0138889
        k(   68) = (   0.1666667   0.4166667  -0.4166667), wk =   0.0138889
        k(   69) = (   0.1666667   0.4166667  -0.3333333), wk =   0.0277778
        k(   70) = (   0.1666667   0.4166667  -0.2500000), wk =   0.0138889
        k(   71) = (   0.1666667  -0.5000000  -0.3333333), wk =   0.0069444
        k(   72) = (   0.2500000  -0.5000000  -0.2500000), wk =   0.0034722

     Dense  grid:    58887 G-vectors     FFT dimensions: (  60,  60,  60)

     Smooth grid:    20875 G-vectors     FFT dimensions: (  40,  40,  40)

     Dynamical RAM for                 wfc:       0.18 MB

     Dynamical RAM for     wfc (w. buffer):       3.35 MB

     Dynamical RAM for           str. fact:       0.51 MB

     Dynamical RAM for           local pot:       0.00 MB

     Dynamical RAM for          nlocal pot:       0.49 MB

     Dynamical RAM for                qrad:      15.41 MB

     Dynamical RAM for          rho,v,vnew:       2.25 MB

     Dynamical RAM for               rhoin:       0.75 MB

     Dynamical RAM for            rho*nmix:       4.11 MB

     Dynamical RAM for           G-vectors:       0.50 MB

     Dynamical RAM for          h,s,v(r/c):       0.18 MB

     Dynamical RAM for          <psi|beta>:       0.04 MB

     Dynamical RAM for                 psi:       0.35 MB

     Dynamical RAM for                hpsi:       0.35 MB

     Dynamical RAM for                spsi:       0.35 MB

     Dynamical RAM for      wfcinit/wfcrot:       0.48 MB

     Dynamical RAM for           addusdens:       3.43 MB

     Dynamical RAM for          addusforce:       3.33 MB

     Dynamical RAM for         addusstress:       3.74 MB

     Estimated static dynamical RAM per process >      25.40 MB

     Estimated max dynamical RAM per process >      33.25 MB

     Estimated total dynamical RAM >       1.62 GB

     Check: negative core charge=   -0.000002
     Generating pointlists ...
     new r_m :   0.2526 (alat units)  2.1535 (a.u.) for type    1
     new r_m :   0.2526 (alat units)  2.1535 (a.u.) for type    2
     new r_m :   0.2526 (alat units)  2.1535 (a.u.) for type    3
     new r_m :   0.2526 (alat units)  2.1535 (a.u.) for type    4

     Initial potential from superposition of free atoms

     starting charge      50.9938, renormalised to      52.0000

     negative rho (up, down):  6.690E-04 3.078E-04
     Starting wfcs are   39 randomized atomic wfcs

     total cpu time spent up to now is        1.9 secs

     per-process dynamical memory:    37.2 Mb

     Self-consistent Calculation

     iteration #  1     ecut=    50.00 Ry     beta= 0.40
     Davidson diagonalization with overlap

---- Real-time Memory Report at c_bands before calling an iterative solver
            72 MiB given to the printing process from OS
            36 MiB allocation reported by mallinfo(arena+hblkhd)
        486919 MiB available memory on the node where the printing process lives
------------------
     ethr =  1.00E-02,  avg # of iterations =  2.2

     negative rho (up, down):  2.777E-04 9.450E-04

     total cpu time spent up to now is        2.5 secs

     total energy              =    -576.53442812 Ry
     estimated scf accuracy    <       2.05032694 Ry

     total magnetization       =     6.48 Bohr mag/cell
     absolute magnetization    =     6.54 Bohr mag/cell

     iteration #  2     ecut=    50.00 Ry     beta= 0.40
     Davidson diagonalization with overlap

---- Real-time Memory Report at c_bands before calling an iterative solver
            82 MiB given to the printing process from OS
            40 MiB allocation reported by mallinfo(arena+hblkhd)
        486535 MiB available memory on the node where the printing process lives
------------------
     ethr =  3.94E-03,  avg # of iterations =  6.8

     negative rho (up, down):  2.846E-04 7.392E-04

     total cpu time spent up to now is        3.5 secs

     total energy              =    -575.95827722 Ry
     estimated scf accuracy    <      18.73597325 Ry

     total magnetization       =     0.90 Bohr mag/cell
     absolute magnetization    =     1.41 Bohr mag/cell

     iteration #  3     ecut=    50.00 Ry     beta= 0.40
     Davidson diagonalization with overlap

---- Real-time Memory Report at c_bands before calling an iterative solver
            82 MiB given to the printing process from OS
            41 MiB allocation reported by mallinfo(arena+hblkhd)
        486514 MiB available memory on the node where the printing process lives
------------------
     ethr =  3.94E-03,  avg # of iterations =  5.1

     negative rho (up, down):  2.561E-04 1.771E-03

     total cpu time spent up to now is        4.3 secs

     total energy              =    -577.23133096 Ry
     estimated scf accuracy    <       0.74310496 Ry

     total magnetization       =     5.19 Bohr mag/cell
     absolute magnetization    =     5.32 Bohr mag/cell

     iteration #  4     ecut=    50.00 Ry     beta= 0.40
     Davidson diagonalization with overlap

---- Real-time Memory Report at c_bands before calling an iterative solver
            83 MiB given to the printing process from OS
            41 MiB allocation reported by mallinfo(arena+hblkhd)
        486509 MiB available memory on the node where the printing process lives
------------------
     ethr =  1.43E-03,  avg # of iterations =  4.3

     negative rho (up, down):  5.398E-05 4.258E-03

     total cpu time spent up to now is        5.0 secs

     total energy              =    -577.40392738 Ry
     estimated scf accuracy    <       0.21282040 Ry

     total magnetization       =     6.11 Bohr mag/cell
     absolute magnetization    =     6.20 Bohr mag/cell

     iteration #  5     ecut=    50.00 Ry     beta= 0.40
     Davidson diagonalization with overlap

---- Real-time Memory Report at c_bands before calling an iterative solver
            83 MiB given to the printing process from OS
            41 MiB allocation reported by mallinfo(arena+hblkhd)
        486504 MiB available memory on the node where the printing process lives
------------------
     ethr =  4.09E-04,  avg # of iterations =  2.7

     negative rho (up, down):  2.241E-05 4.880E-03

     total cpu time spent up to now is        5.7 secs

     total energy              =    -577.43340253 Ry
     estimated scf accuracy    <       0.03158788 Ry

     total magnetization       =     5.55 Bohr mag/cell
     absolute magnetization    =     5.67 Bohr mag/cell

     iteration #  6     ecut=    50.00 Ry     beta= 0.40
     Davidson diagonalization with overlap

---- Real-time Memory Report at c_bands before calling an iterative solver
            84 MiB given to the printing process from OS
            41 MiB allocation reported by mallinfo(arena+hblkhd)
        486499 MiB available memory on the node where the printing process lives
------------------
     ethr =  6.07E-05,  avg # of iterations =  5.1

     negative rho (up, down):  1.803E-05 4.886E-03

     total cpu time spent up to now is        6.5 secs

     total energy              =    -577.44502950 Ry
     estimated scf accuracy    <       0.00605088 Ry

     total magnetization       =     4.80 Bohr mag/cell
     absolute magnetization    =     4.96 Bohr mag/cell

     iteration #  7     ecut=    50.00 Ry     beta= 0.40
     Davidson diagonalization with overlap

---- Real-time Memory Report at c_bands before calling an iterative solver
            84 MiB given to the printing process from OS
            41 MiB allocation reported by mallinfo(arena+hblkhd)
        486493 MiB available memory on the node where the printing process lives
------------------
     ethr =  1.16E-05,  avg # of iterations =  4.9

     negative rho (up, down):  6.466E-05 3.833E-03

     total cpu time spent up to now is        7.3 secs

     total energy              =    -577.44925600 Ry
     estimated scf accuracy    <       0.00621452 Ry

     total magnetization       =     4.09 Bohr mag/cell
     absolute magnetization    =     4.28 Bohr mag/cell

     iteration #  8     ecut=    50.00 Ry     beta= 0.40
     Davidson diagonalization with overlap

---- Real-time Memory Report at c_bands before calling an iterative solver
            84 MiB given to the printing process from OS
            41 MiB allocation reported by mallinfo(arena+hblkhd)
        486487 MiB available memory on the node where the printing process lives
------------------
     ethr =  1.16E-05,  avg # of iterations =  6.8

     negative rho (up, down):  6.105E-05 3.873E-03

     total cpu time spent up to now is        8.3 secs

     total energy              =    -577.44851948 Ry
     estimated scf accuracy    <       0.03584850 Ry

     total magnetization       =     3.85 Bohr mag/cell
     absolute magnetization    =     4.02 Bohr mag/cell

     iteration #  9     ecut=    50.00 Ry     beta= 0.40
     Davidson diagonalization with overlap

---- Real-time Memory Report at c_bands before calling an iterative solver
            85 MiB given to the printing process from OS
            42 MiB allocation reported by mallinfo(arena+hblkhd)
        486484 MiB available memory on the node where the printing process lives
------------------
     ethr =  1.16E-05,  avg # of iterations =  5.5

     negative rho (up, down):  8.738E-05 3.205E-03

     total cpu time spent up to now is        9.2 secs

     total energy              =    -577.45471362 Ry
     estimated scf accuracy    <       0.02445720 Ry

     total magnetization       =     3.52 Bohr mag/cell
     absolute magnetization    =     3.72 Bohr mag/cell

     iteration # 10     ecut=    50.00 Ry     beta= 0.40
     Davidson diagonalization with overlap

---- Real-time Memory Report at c_bands before calling an iterative solver
            85 MiB given to the printing process from OS
            42 MiB allocation reported by mallinfo(arena+hblkhd)
        486478 MiB available memory on the node where the printing process lives
------------------
     ethr =  1.16E-05,  avg # of iterations =  1.7

     negative rho (up, down):  9.949E-05 3.047E-03

     total cpu time spent up to now is        9.7 secs

     total energy              =    -577.45557484 Ry
     estimated scf accuracy    <       0.01883502 Ry

     total magnetization       =     3.02 Bohr mag/cell
     absolute magnetization    =     3.26 Bohr mag/cell

     iteration # 11     ecut=    50.00 Ry     beta= 0.40
     Davidson diagonalization with overlap

---- Real-time Memory Report at c_bands before calling an iterative solver
            85 MiB given to the printing process from OS
            42 MiB allocation reported by mallinfo(arena+hblkhd)
        486477 MiB available memory on the node where the printing process lives
------------------
     ethr =  1.16E-05,  avg # of iterations =  3.6

     negative rho (up, down):  1.375E-04 2.209E-03

     total cpu time spent up to now is       10.4 secs

     total energy              =    -577.45509020 Ry
     estimated scf accuracy    <       0.01117201 Ry

     total magnetization       =     3.07 Bohr mag/cell
     absolute magnetization    =     3.27 Bohr mag/cell

     iteration # 12     ecut=    50.00 Ry     beta= 0.40
     Davidson diagonalization with overlap

---- Real-time Memory Report at c_bands before calling an iterative solver
            85 MiB given to the printing process from OS
            42 MiB allocation reported by mallinfo(arena+hblkhd)
        486475 MiB available memory on the node where the printing process lives
------------------
     ethr =  1.16E-05,  avg # of iterations =  2.7

     negative rho (up, down):  1.184E-04 2.557E-03

     total cpu time spent up to now is       11.2 secs

     total energy              =    -577.45597844 Ry
     estimated scf accuracy    <       0.00382803 Ry

     total magnetization       =     2.37 Bohr mag/cell
     absolute magnetization    =     2.71 Bohr mag/cell

     iteration # 13     ecut=    50.00 Ry     beta= 0.40
     Davidson diagonalization with overlap

---- Real-time Memory Report at c_bands before calling an iterative solver
            85 MiB given to the printing process from OS
            42 MiB allocation reported by mallinfo(arena+hblkhd)
        486475 MiB available memory on the node where the printing process lives
------------------
     ethr =  7.36E-06,  avg # of iterations =  3.5

     negative rho (up, down):  1.009E-04 2.845E-03

     total cpu time spent up to now is       11.8 secs

     total energy              =    -577.45602249 Ry
     estimated scf accuracy    <       0.00356799 Ry

     total magnetization       =     2.88 Bohr mag/cell
     absolute magnetization    =     3.08 Bohr mag/cell

     iteration # 14     ecut=    50.00 Ry     beta= 0.40
     Davidson diagonalization with overlap

---- Real-time Memory Report at c_bands before calling an iterative solver
            86 MiB given to the printing process from OS
            42 MiB allocation reported by mallinfo(arena+hblkhd)
        486474 MiB available memory on the node where the printing process lives
------------------
     ethr =  6.86E-06,  avg # of iterations =  1.1

     negative rho (up, down):  1.073E-04 2.764E-03

     total cpu time spent up to now is       12.4 secs

     total energy              =    -577.45690913 Ry
     estimated scf accuracy    <       0.00256294 Ry

     total magnetization       =     3.10 Bohr mag/cell
     absolute magnetization    =     3.28 Bohr mag/cell

     iteration # 15     ecut=    50.00 Ry     beta= 0.40
     Davidson diagonalization with overlap

---- Real-time Memory Report at c_bands before calling an iterative solver
            86 MiB given to the printing process from OS
            42 MiB allocation reported by mallinfo(arena+hblkhd)
        486472 MiB available memory on the node where the printing process lives
------------------
     ethr =  4.93E-06,  avg # of iterations =  1.1

     negative rho (up, down):  9.217E-05 2.953E-03

     total cpu time spent up to now is       12.9 secs

     total energy              =    -577.45551454 Ry
     estimated scf accuracy    <       0.00224121 Ry

     total magnetization       =     3.02 Bohr mag/cell
     absolute magnetization    =     3.21 Bohr mag/cell

     iteration # 16     ecut=    50.00 Ry     beta= 0.40
     Davidson diagonalization with overlap

---- Real-time Memory Report at c_bands before calling an iterative solver
            86 MiB given to the printing process from OS
            42 MiB allocation reported by mallinfo(arena+hblkhd)
        486471 MiB available memory on the node where the printing process lives
------------------
     ethr =  4.31E-06,  avg # of iterations =  1.7

     negative rho (up, down):  1.302E-04 2.565E-03

     total cpu time spent up to now is       13.5 secs

     total energy              =    -577.45556547 Ry
     estimated scf accuracy    <       0.00461147 Ry

     total magnetization       =     3.25 Bohr mag/cell
     absolute magnetization    =     3.42 Bohr mag/cell

     iteration # 17     ecut=    50.00 Ry     beta= 0.40
     Davidson diagonalization with overlap

---- Real-time Memory Report at c_bands before calling an iterative solver
            86 MiB given to the printing process from OS
            42 MiB allocation reported by mallinfo(arena+hblkhd)
        486469 MiB available memory on the node where the printing process lives
------------------
     ethr =  4.31E-06,  avg # of iterations =  4.4

     negative rho (up, down):  1.659E-04 2.463E-03

     total cpu time spent up to now is       14.3 secs

     total energy              =    -577.45864116 Ry
     estimated scf accuracy    <       0.00288700 Ry

     total magnetization       =     2.73 Bohr mag/cell
     absolute magnetization    =     2.98 Bohr mag/cell

     iteration # 18     ecut=    50.00 Ry     beta= 0.40
     Davidson diagonalization with overlap

---- Real-time Memory Report at c_bands before calling an iterative solver
            86 MiB given to the printing process from OS
            42 MiB allocation reported by mallinfo(arena+hblkhd)
        486468 MiB available memory on the node where the printing process lives
------------------
     ethr =  4.31E-06,  avg # of iterations =  5.2

     negative rho (up, down):  1.432E-04 2.408E-03

     total cpu time spent up to now is       15.2 secs

     total energy              =    -577.45850372 Ry
     estimated scf accuracy    <       0.00492378 Ry

     total magnetization       =     2.18 Bohr mag/cell
     absolute magnetization    =     2.64 Bohr mag/cell

     iteration # 19     ecut=    50.00 Ry     beta= 0.40
     Davidson diagonalization with overlap

---- Real-time Memory Report at c_bands before calling an iterative solver
            86 MiB given to the printing process from OS
            42 MiB allocation reported by mallinfo(arena+hblkhd)
        486466 MiB available memory on the node where the printing process lives
------------------
     ethr =  4.31E-06,  avg # of iterations =  1.9

     negative rho (up, down):  1.124E-04 2.670E-03

     total cpu time spent up to now is       15.8 secs

     total energy              =    -577.45518398 Ry
     estimated scf accuracy    <       0.00255855 Ry

     total magnetization       =     2.48 Bohr mag/cell
     absolute magnetization    =     2.79 Bohr mag/cell

     iteration # 20     ecut=    50.00 Ry     beta= 0.40
     Davidson diagonalization with overlap

---- Real-time Memory Report at c_bands before calling an iterative solver
            86 MiB given to the printing process from OS
            42 MiB allocation reported by mallinfo(arena+hblkhd)
        486465 MiB available memory on the node where the printing process lives
------------------
     ethr =  4.31E-06,  avg # of iterations =  4.4

     negative rho (up, down):  9.489E-05 2.866E-03

     total cpu time spent up to now is       16.7 secs

     total energy              =    -577.45570127 Ry
     estimated scf accuracy    <       0.00133510 Ry

     total magnetization       =     2.89 Bohr mag/cell
     absolute magnetization    =     3.10 Bohr mag/cell

     iteration # 21     ecut=    50.00 Ry     beta= 0.40
     Davidson diagonalization with overlap

---- Real-time Memory Report at c_bands before calling an iterative solver
            86 MiB given to the printing process from OS
            42 MiB allocation reported by mallinfo(arena+hblkhd)
        486464 MiB available memory on the node where the printing process lives
------------------
     ethr =  2.57E-06,  avg # of iterations =  4.3

     negative rho (up, down):  1.418E-05 3.782E-03

     total cpu time spent up to now is       17.5 secs

     total energy              =    -577.43375068 Ry
     estimated scf accuracy    <       0.00089172 Ry

     total magnetization       =     3.07 Bohr mag/cell
     absolute magnetization    =     3.26 Bohr mag/cell

     iteration # 22     ecut=    50.00 Ry     beta= 0.40
     Davidson diagonalization with overlap

---- Real-time Memory Report at c_bands before calling an iterative solver
            86 MiB given to the printing process from OS
            42 MiB allocation reported by mallinfo(arena+hblkhd)
        486464 MiB available memory on the node where the printing process lives
------------------
     ethr =  1.71E-06,  avg # of iterations = 10.2

     negative rho (up, down):  1.133E-05 3.868E-03

     total cpu time spent up to now is       18.9 secs

     total energy              =    -577.44625463 Ry
     estimated scf accuracy    <       0.00342193 Ry

     total magnetization       =     3.92 Bohr mag/cell
     absolute magnetization    =     4.08 Bohr mag/cell

     iteration # 23     ecut=    50.00 Ry     beta= 0.40
     Davidson diagonalization with overlap

---- Real-time Memory Report at c_bands before calling an iterative solver
            86 MiB given to the printing process from OS
            42 MiB allocation reported by mallinfo(arena+hblkhd)
        486456 MiB available memory on the node where the printing process lives
------------------
     ethr =  1.71E-06,  avg # of iterations =  2.4

     negative rho (up, down):  1.333E-05 3.798E-03

     total cpu time spent up to now is       19.5 secs

     total energy              =    -577.44751721 Ry
     estimated scf accuracy    <       0.00417909 Ry

     total magnetization       =     3.98 Bohr mag/cell
     absolute magnetization    =     4.13 Bohr mag/cell

     iteration # 24     ecut=    50.00 Ry     beta= 0.40
     Davidson diagonalization with overlap

---- Real-time Memory Report at c_bands before calling an iterative solver
            86 MiB given to the printing process from OS
            42 MiB allocation reported by mallinfo(arena+hblkhd)
        486456 MiB available memory on the node where the printing process lives
------------------
     ethr =  1.71E-06,  avg # of iterations =  1.0

     negative rho (up, down):  3.932E-05 3.473E-03

     total cpu time spent up to now is       20.0 secs

     total energy              =    -577.45023294 Ry
     estimated scf accuracy    <       0.00410932 Ry

     total magnetization       =     3.92 Bohr mag/cell
     absolute magnetization    =     4.07 Bohr mag/cell

     iteration # 25     ecut=    50.00 Ry     beta= 0.40
     Davidson diagonalization with overlap

---- Real-time Memory Report at c_bands before calling an iterative solver
            86 MiB given to the printing process from OS
            42 MiB allocation reported by mallinfo(arena+hblkhd)
        486458 MiB available memory on the node where the printing process lives
------------------
     ethr =  1.71E-06,  avg # of iterations =  4.8

     negative rho (up, down):  8.540E-05 2.993E-03

     total cpu time spent up to now is       21.0 secs

     total energy              =    -577.45162175 Ry
     estimated scf accuracy    <       0.00280498 Ry

     total magnetization       =     3.65 Bohr mag/cell
     absolute magnetization    =     3.81 Bohr mag/cell

     iteration # 26     ecut=    50.00 Ry     beta= 0.40
     Davidson diagonalization with overlap

---- Real-time Memory Report at c_bands before calling an iterative solver
            86 MiB given to the printing process from OS
            42 MiB allocation reported by mallinfo(arena+hblkhd)
        486458 MiB available memory on the node where the printing process lives
------------------
     ethr =  1.71E-06,  avg # of iterations =  8.3

     negative rho (up, down):  1.016E-04 2.780E-03

     total cpu time spent up to now is       22.2 secs

     total energy              =    -577.45621854 Ry
     estimated scf accuracy    <       0.00114503 Ry

     total magnetization       =     3.18 Bohr mag/cell
     absolute magnetization    =     3.36 Bohr mag/cell

     iteration # 27     ecut=    50.00 Ry     beta= 0.40
     Davidson diagonalization with overlap

---- Real-time Memory Report at c_bands before calling an iterative solver
            86 MiB given to the printing process from OS
            42 MiB allocation reported by mallinfo(arena+hblkhd)
        486458 MiB available memory on the node where the printing process lives
------------------
     ethr =  1.71E-06,  avg # of iterations =  3.3

     negative rho (up, down):  1.549E-04 2.347E-03

     total cpu time spent up to now is       22.9 secs

     total energy              =    -577.45458005 Ry
     estimated scf accuracy    <       0.00097805 Ry

     total magnetization       =     2.97 Bohr mag/cell
     absolute magnetization    =     3.17 Bohr mag/cell

     iteration # 28     ecut=    50.00 Ry     beta= 0.40
     Davidson diagonalization with overlap

---- Real-time Memory Report at c_bands before calling an iterative solver
            86 MiB given to the printing process from OS
            42 MiB allocation reported by mallinfo(arena+hblkhd)
        486458 MiB available memory on the node where the printing process lives
------------------
     ethr =  1.71E-06,  avg # of iterations =  8.5

     negative rho (up, down):  2.607E-04 2.398E-03

     total cpu time spent up to now is       24.2 secs

     total energy              =    -577.44961240 Ry
     estimated scf accuracy    <       0.00128203 Ry

     total magnetization       =     2.25 Bohr mag/cell
     absolute magnetization    =     2.63 Bohr mag/cell

     iteration # 29     ecut=    50.00 Ry     beta= 0.40
     Davidson diagonalization with overlap

---- Real-time Memory Report at c_bands before calling an iterative solver
            86 MiB given to the printing process from OS
            42 MiB allocation reported by mallinfo(arena+hblkhd)
        486494 MiB available memory on the node where the printing process lives
------------------
     ethr =  1.71E-06,  avg # of iterations = 10.0

     negative rho (up, down):  2.608E-04 2.379E-03

     total cpu time spent up to now is       25.5 secs

     total energy              =    -577.48101772 Ry
     estimated scf accuracy    <       0.03075242 Ry

     total magnetization       =     0.56 Bohr mag/cell
     absolute magnetization    =     4.05 Bohr mag/cell

     iteration # 30     ecut=    50.00 Ry     beta= 0.40
     Davidson diagonalization with overlap

---- Real-time Memory Report at c_bands before calling an iterative solver
            86 MiB given to the printing process from OS
            42 MiB allocation reported by mallinfo(arena+hblkhd)
        486494 MiB available memory on the node where the printing process lives
------------------
     ethr =  1.71E-06,  avg # of iterations =  1.2

     negative rho (up, down):  2.160E-04 2.376E-03

     total cpu time spent up to now is       26.1 secs

     total energy              =    -577.46412202 Ry
     estimated scf accuracy    <       0.03102099 Ry

     total magnetization       =     0.56 Bohr mag/cell
     absolute magnetization    =     4.04 Bohr mag/cell

     iteration # 31     ecut=    50.00 Ry     beta= 0.40
     Davidson diagonalization with overlap

---- Real-time Memory Report at c_bands before calling an iterative solver
            86 MiB given to the printing process from OS
            42 MiB allocation reported by mallinfo(arena+hblkhd)
        486494 MiB available memory on the node where the printing process lives
------------------
     ethr =  1.71E-06,  avg # of iterations =  6.0

     negative rho (up, down):  2.525E-04 2.478E-03

     total cpu time spent up to now is       27.0 secs

     total energy              =    -577.47481314 Ry
     estimated scf accuracy    <       0.01124281 Ry

     total magnetization       =     1.24 Bohr mag/cell
     absolute magnetization    =     3.15 Bohr mag/cell

     iteration # 32     ecut=    50.00 Ry     beta= 0.40
     Davidson diagonalization with overlap

---- Real-time Memory Report at c_bands before calling an iterative solver
            86 MiB given to the printing process from OS
            42 MiB allocation reported by mallinfo(arena+hblkhd)
        486494 MiB available memory on the node where the printing process lives
------------------
     ethr =  1.71E-06,  avg # of iterations =  5.4

     negative rho (up, down):  1.854E-04 2.285E-03

     total cpu time spent up to now is       28.0 secs

     total energy              =    -577.45038499 Ry
     estimated scf accuracy    <       0.02798260 Ry

     total magnetization       =     0.68 Bohr mag/cell
     absolute magnetization    =     3.93 Bohr mag/cell

     iteration # 33     ecut=    50.00 Ry     beta= 0.40
     Davidson diagonalization with overlap

---- Real-time Memory Report at c_bands before calling an iterative solver
            86 MiB given to the printing process from OS
            42 MiB allocation reported by mallinfo(arena+hblkhd)
        486494 MiB available memory on the node where the printing process lives
------------------
     ethr =  1.71E-06,  avg # of iterations =  8.3

     negative rho (up, down):  9.304E-05 2.881E-03

     total cpu time spent up to now is       29.2 secs

     total energy              =    -577.43490579 Ry
     estimated scf accuracy    <       0.00426826 Ry

     total magnetization       =     1.76 Bohr mag/cell
     absolute magnetization    =     2.51 Bohr mag/cell

     iteration # 34     ecut=    50.00 Ry     beta= 0.40
     Davidson diagonalization with overlap

---- Real-time Memory Report at c_bands before calling an iterative solver
            86 MiB given to the printing process from OS
            42 MiB allocation reported by mallinfo(arena+hblkhd)
        486494 MiB available memory on the node where the printing process lives
------------------
     ethr =  1.71E-06,  avg # of iterations = 10.3

     negative rho (up, down):  3.342E-05 3.534E-03

     total cpu time spent up to now is       30.6 secs

     total energy              =    -577.44409187 Ry
     estimated scf accuracy    <       0.00062131 Ry

     total magnetization       =     3.10 Bohr mag/cell
     absolute magnetization    =     3.28 Bohr mag/cell

     iteration # 35     ecut=    50.00 Ry     beta= 0.40
     Davidson diagonalization with overlap

---- Real-time Memory Report at c_bands before calling an iterative solver
            87 MiB given to the printing process from OS
            42 MiB allocation reported by mallinfo(arena+hblkhd)
        486494 MiB available memory on the node where the printing process lives
------------------
     ethr =  1.19E-06,  avg # of iterations =  9.2

     negative rho (up, down):  2.209E-04 2.428E-03

     total cpu time spent up to now is       31.9 secs

     total energy              =    -577.40287929 Ry
     estimated scf accuracy    <       0.00164938 Ry

     total magnetization       =     3.72 Bohr mag/cell
     absolute magnetization    =     3.88 Bohr mag/cell

     iteration # 36     ecut=    50.00 Ry     beta= 0.40
     Davidson diagonalization with overlap

---- Real-time Memory Report at c_bands before calling an iterative solver
            87 MiB given to the printing process from OS
            42 MiB allocation reported by mallinfo(arena+hblkhd)
        486494 MiB available memory on the node where the printing process lives
------------------
     ethr =  1.19E-06,  avg # of iterations = 11.8

     negative rho (up, down):  2.911E-04 2.496E-03

     total cpu time spent up to now is       33.4 secs

     total energy              =    -577.47713379 Ry
     estimated scf accuracy    <       0.01269945 Ry

     total magnetization       =     1.16 Bohr mag/cell
     absolute magnetization    =     3.27 Bohr mag/cell

     iteration # 37     ecut=    50.00 Ry     beta= 0.40
     Davidson diagonalization with overlap

---- Real-time Memory Report at c_bands before calling an iterative solver
            87 MiB given to the printing process from OS
            42 MiB allocation reported by mallinfo(arena+hblkhd)
        486493 MiB available memory on the node where the printing process lives
------------------
     ethr =  1.19E-06,  avg # of iterations =  8.6

     negative rho (up, down):  1.591E-03 2.577E-03

     total cpu time spent up to now is       34.6 secs

     total energy              =    -577.50680242 Ry
     estimated scf accuracy    <       0.06069477 Ry

     total magnetization       =     0.27 Bohr mag/cell
     absolute magnetization    =     4.62 Bohr mag/cell

     iteration # 38     ecut=    50.00 Ry     beta= 0.40
     Davidson diagonalization with overlap

---- Real-time Memory Report at c_bands before calling an iterative solver
            87 MiB given to the printing process from OS
            42 MiB allocation reported by mallinfo(arena+hblkhd)
        486493 MiB available memory on the node where the printing process lives
------------------
     ethr =  1.19E-06,  avg # of iterations =  9.2
     Minimization algorithm failed to find Fermi energy: reverting to bisection
     Possible cause: smearing is larger than the electronic band-gap.

     negative rho (up, down):  9.164E-04 2.538E-03

     total cpu time spent up to now is       35.9 secs

     total energy              =    -577.50918524 Ry
     estimated scf accuracy    <       0.23454147 Ry

     total magnetization       =    -0.08 Bohr mag/cell
     absolute magnetization    =     5.82 Bohr mag/cell

     iteration # 39     ecut=    50.00 Ry     beta= 0.40
     Davidson diagonalization with overlap

---- Real-time Memory Report at c_bands before calling an iterative solver
            87 MiB given to the printing process from OS
            42 MiB allocation reported by mallinfo(arena+hblkhd)
        486493 MiB available memory on the node where the printing process lives
------------------
     ethr =  1.19E-06,  avg # of iterations =  5.0

     negative rho (up, down):  2.826E-04 2.456E-03

     total cpu time spent up to now is       36.7 secs

     total energy              =    -577.48131549 Ry
     estimated scf accuracy    <       0.14220403 Ry

     total magnetization       =     0.06 Bohr mag/cell
     absolute magnetization    =     5.35 Bohr mag/cell

     iteration # 40     ecut=    50.00 Ry     beta= 0.40
     Davidson diagonalization with overlap

---- Real-time Memory Report at c_bands before calling an iterative solver
            87 MiB given to the printing process from OS
            42 MiB allocation reported by mallinfo(arena+hblkhd)
        486492 MiB available memory on the node where the printing process lives
------------------
     ethr =  1.19E-06,  avg # of iterations =  7.8

     negative rho (up, down):  6.920E-04 2.452E-03

     total cpu time spent up to now is       37.9 secs

     total energy              =    -577.50172953 Ry
     estimated scf accuracy    <       0.05762357 Ry

     total magnetization       =     0.33 Bohr mag/cell
     absolute magnetization    =     4.48 Bohr mag/cell

     iteration # 41     ecut=    50.00 Ry     beta= 0.40
     Davidson diagonalization with overlap

---- Real-time Memory Report at c_bands before calling an iterative solver
            87 MiB given to the printing process from OS
            42 MiB allocation reported by mallinfo(arena+hblkhd)
        486492 MiB available memory on the node where the printing process lives
------------------
     ethr =  1.19E-06,  avg # of iterations =  6.0

     negative rho (up, down):  1.687E-04 2.304E-03

     total cpu time spent up to now is       38.9 secs

     total energy              =    -577.39921296 Ry
     estimated scf accuracy    <       0.11922732 Ry

     total magnetization       =     0.10 Bohr mag/cell
     absolute magnetization    =     5.15 Bohr mag/cell

     iteration # 42     ecut=    50.00 Ry     beta= 0.40
     Davidson diagonalization with overlap

---- Real-time Memory Report at c_bands before calling an iterative solver
            87 MiB given to the printing process from OS
            42 MiB allocation reported by mallinfo(arena+hblkhd)
        486492 MiB available memory on the node where the printing process lives
------------------
     ethr =  1.19E-06,  avg # of iterations = 10.2

     negative rho (up, down):  2.529E-04 2.323E-03

     total cpu time spent up to now is       40.3 secs

     total energy              =    -577.45827472 Ry
     estimated scf accuracy    <       0.00246096 Ry

     total magnetization       =     2.04 Bohr mag/cell
     absolute magnetization    =     2.53 Bohr mag/cell

     iteration # 43     ecut=    50.00 Ry     beta= 0.40
     Davidson diagonalization with overlap

---- Real-time Memory Report at c_bands before calling an iterative solver
            87 MiB given to the printing process from OS
            42 MiB allocation reported by mallinfo(arena+hblkhd)
        486488 MiB available memory on the node where the printing process lives
------------------
     ethr =  1.19E-06,  avg # of iterations =  9.5

     negative rho (up, down):  8.901E-05 2.832E-03

     total cpu time spent up to now is       41.6 secs

     total energy              =    -577.37360837 Ry
     estimated scf accuracy    <       0.03533621 Ry

     total magnetization       =     0.65 Bohr mag/cell
     absolute magnetization    =     3.89 Bohr mag/cell

     iteration # 44     ecut=    50.00 Ry     beta= 0.40
     Davidson diagonalization with overlap

---- Real-time Memory Report at c_bands before calling an iterative solver
            87 MiB given to the printing process from OS
            42 MiB allocation reported by mallinfo(arena+hblkhd)
        486488 MiB available memory on the node where the printing process lives
------------------
     ethr =  1.19E-06,  avg # of iterations = 11.4

     negative rho (up, down):  7.026E-05 3.090E-03

     total cpu time spent up to now is       43.1 secs

     total energy              =    -577.45419693 Ry
     estimated scf accuracy    <       0.00248821 Ry

     total magnetization       =     3.17 Bohr mag/cell
     absolute magnetization    =     3.33 Bohr mag/cell

     iteration # 45     ecut=    50.00 Ry     beta= 0.40
     Davidson diagonalization with overlap

---- Real-time Memory Report at c_bands before calling an iterative solver
            87 MiB given to the printing process from OS
            42 MiB allocation reported by mallinfo(arena+hblkhd)
        486488 MiB available memory on the node where the printing process lives
------------------
     ethr =  1.19E-06,  avg # of iterations =  4.8

     negative rho (up, down):  3.255E-05 3.623E-03

     total cpu time spent up to now is       43.9 secs

     total energy              =    -577.44883645 Ry
     estimated scf accuracy    <       0.00091789 Ry

     total magnetization       =     3.33 Bohr mag/cell
     absolute magnetization    =     3.49 Bohr mag/cell

     iteration # 46     ecut=    50.00 Ry     beta= 0.40
     Davidson diagonalization with overlap

---- Real-time Memory Report at c_bands before calling an iterative solver
            87 MiB given to the printing process from OS
            42 MiB allocation reported by mallinfo(arena+hblkhd)
        486488 MiB available memory on the node where the printing process lives
------------------
     ethr =  1.19E-06,  avg # of iterations =  7.3

     negative rho (up, down):  4.686E-05 3.434E-03

     total cpu time spent up to now is       45.1 secs

     total energy              =    -577.45232694 Ry
     estimated scf accuracy    <       0.00196757 Ry

     total magnetization       =     3.72 Bohr mag/cell
     absolute magnetization    =     3.88 Bohr mag/cell

     iteration # 47     ecut=    50.00 Ry     beta= 0.40
     Davidson diagonalization with overlap

---- Real-time Memory Report at c_bands before calling an iterative solver
            87 MiB given to the printing process from OS
            42 MiB allocation reported by mallinfo(arena+hblkhd)
        486488 MiB available memory on the node where the printing process lives
------------------
     ethr =  1.19E-06,  avg # of iterations =  2.5

     negative rho (up, down):  1.324E-04 2.373E-03

     total cpu time spent up to now is       45.8 secs

     total energy              =    -577.44655042 Ry
     estimated scf accuracy    <       0.00168733 Ry

     total magnetization       =     3.57 Bohr mag/cell
     absolute magnetization    =     3.74 Bohr mag/cell

     iteration # 48     ecut=    50.00 Ry     beta= 0.40
     Davidson diagonalization with overlap

---- Real-time Memory Report at c_bands before calling an iterative solver
            87 MiB given to the printing process from OS
            42 MiB allocation reported by mallinfo(arena+hblkhd)
        486482 MiB available memory on the node where the printing process lives
------------------
     ethr =  1.19E-06,  avg # of iterations = 10.0

     negative rho (up, down):  2.005E-04 2.277E-03

     total cpu time spent up to now is       47.1 secs

     total energy              =    -577.45489284 Ry
     estimated scf accuracy    <       0.00070967 Ry

     total magnetization       =     2.56 Bohr mag/cell
     absolute magnetization    =     2.83 Bohr mag/cell

     iteration # 49     ecut=    50.00 Ry     beta= 0.40
     Davidson diagonalization with overlap

---- Real-time Memory Report at c_bands before calling an iterative solver
            87 MiB given to the printing process from OS
            42 MiB allocation reported by mallinfo(arena+hblkhd)
        486482 MiB available memory on the node where the printing process lives
------------------
     ethr =  1.19E-06,  avg # of iterations =  9.5

     negative rho (up, down):  1.425E-04 2.278E-03

     total cpu time spent up to now is       48.4 secs

     total energy              =    -577.44974620 Ry
     estimated scf accuracy    <       0.00767524 Ry

     total magnetization       =     1.46 Bohr mag/cell
     absolute magnetization    =     2.81 Bohr mag/cell

     iteration # 50     ecut=    50.00 Ry     beta= 0.40
     Davidson diagonalization with overlap

---- Real-time Memory Report at c_bands before calling an iterative solver
            87 MiB given to the printing process from OS
            42 MiB allocation reported by mallinfo(arena+hblkhd)
        486482 MiB available memory on the node where the printing process lives
------------------
     ethr =  1.19E-06,  avg # of iterations =  8.0

     negative rho (up, down):  1.198E-04 2.472E-03

     total cpu time spent up to now is       49.7 secs

     total energy              =    -577.45670511 Ry
     estimated scf accuracy    <       0.00098883 Ry

     total magnetization       =     2.42 Bohr mag/cell
     absolute magnetization    =     2.72 Bohr mag/cell

     iteration # 51     ecut=    50.00 Ry     beta= 0.40
     Davidson diagonalization with overlap

---- Real-time Memory Report at c_bands before calling an iterative solver
            87 MiB given to the printing process from OS
            42 MiB allocation reported by mallinfo(arena+hblkhd)
        486481 MiB available memory on the node where the printing process lives
------------------
     ethr =  1.19E-06,  avg # of iterations =  5.6

     negative rho (up, down):  1.215E-04 2.465E-03

     total cpu time spent up to now is       50.6 secs

     total energy              =    -577.45797055 Ry
     estimated scf accuracy    <       0.00063437 Ry

     total magnetization       =     2.72 Bohr mag/cell
     absolute magnetization    =     2.94 Bohr mag/cell

     iteration # 52     ecut=    50.00 Ry     beta= 0.40
     Davidson diagonalization with overlap

---- Real-time Memory Report at c_bands before calling an iterative solver
            87 MiB given to the printing process from OS
            42 MiB allocation reported by mallinfo(arena+hblkhd)
        486481 MiB available memory on the node where the printing process lives
------------------
     ethr =  1.19E-06,  avg # of iterations =  1.1

     negative rho (up, down):  1.176E-04 2.487E-03

     total cpu time spent up to now is       51.1 secs

     total energy              =    -577.45767846 Ry
     estimated scf accuracy    <       0.00063317 Ry

     total magnetization       =     2.71 Bohr mag/cell
     absolute magnetization    =     2.93 Bohr mag/cell

     iteration # 53     ecut=    50.00 Ry     beta= 0.40
     Davidson diagonalization with overlap

---- Real-time Memory Report at c_bands before calling an iterative solver
            87 MiB given to the printing process from OS
            42 MiB allocation reported by mallinfo(arena+hblkhd)
        486481 MiB available memory on the node where the printing process lives
------------------
     ethr =  1.19E-06,  avg # of iterations =  1.1

     negative rho (up, down):  6.206E-05 3.183E-03

     total cpu time spent up to now is       51.6 secs

     total energy              =    -577.44491525 Ry
     estimated scf accuracy    <       0.00073209 Ry

     total magnetization       =     2.75 Bohr mag/cell
     absolute magnetization    =     2.97 Bohr mag/cell

     iteration # 54     ecut=    50.00 Ry     beta= 0.40
     Davidson diagonalization with overlap

---- Real-time Memory Report at c_bands before calling an iterative solver
            87 MiB given to the printing process from OS
            42 MiB allocation reported by mallinfo(arena+hblkhd)
        486481 MiB available memory on the node where the printing process lives
------------------
     ethr =  1.19E-06,  avg # of iterations =  9.5

     negative rho (up, down):  5.875E-05 3.225E-03

     total cpu time spent up to now is       53.0 secs

     total energy              =    -577.45266379 Ry
     estimated scf accuracy    <       0.00141811 Ry

     total magnetization       =     3.48 Bohr mag/cell
     absolute magnetization    =     3.63 Bohr mag/cell

     iteration # 55     ecut=    50.00 Ry     beta= 0.40
     Davidson diagonalization with overlap

---- Real-time Memory Report at c_bands before calling an iterative solver
            87 MiB given to the printing process from OS
            42 MiB allocation reported by mallinfo(arena+hblkhd)
        486481 MiB available memory on the node where the printing process lives
------------------
     ethr =  1.19E-06,  avg # of iterations =  1.2

     negative rho (up, down):  7.656E-05 3.002E-03

     total cpu time spent up to now is       53.5 secs

     total energy              =    -577.45382380 Ry
     estimated scf accuracy    <       0.00154253 Ry

     total magnetization       =     3.51 Bohr mag/cell
     absolute magnetization    =     3.67 Bohr mag/cell

     iteration # 56     ecut=    50.00 Ry     beta= 0.40
     Davidson diagonalization with overlap

---- Real-time Memory Report at c_bands before calling an iterative solver
            87 MiB given to the printing process from OS
            42 MiB allocation reported by mallinfo(arena+hblkhd)
        486481 MiB available memory on the node where the printing process lives
------------------
     ethr =  1.19E-06,  avg # of iterations =  3.7

     negative rho (up, down):  1.027E-04 2.666E-03

     total cpu time spent up to now is       54.3 secs

     total energy              =    -577.45484991 Ry
     estimated scf accuracy    <       0.00121627 Ry

     total magnetization       =     3.32 Bohr mag/cell
     absolute magnetization    =     3.48 Bohr mag/cell

     iteration # 57     ecut=    50.00 Ry     beta= 0.40
     Davidson diagonalization with overlap

---- Real-time Memory Report at c_bands before calling an iterative solver
            87 MiB given to the printing process from OS
            42 MiB allocation reported by mallinfo(arena+hblkhd)
        486481 MiB available memory on the node where the printing process lives
------------------
     ethr =  1.19E-06,  avg # of iterations =  6.6

     negative rho (up, down):  1.091E-04 2.585E-03

     total cpu time spent up to now is       55.2 secs

     total energy              =    -577.45699870 Ry
     estimated scf accuracy    <       0.00078953 Ry

     total magnetization       =     2.97 Bohr mag/cell
     absolute magnetization    =     3.15 Bohr mag/cell

     iteration # 58     ecut=    50.00 Ry     beta= 0.40
     Davidson diagonalization with overlap

---- Real-time Memory Report at c_bands before calling an iterative solver
            87 MiB given to the printing process from OS
            42 MiB allocation reported by mallinfo(arena+hblkhd)
        486481 MiB available memory on the node where the printing process lives
------------------
     ethr =  1.19E-06,  avg # of iterations =  2.3

     negative rho (up, down):  1.716E-04 2.355E-03

     total cpu time spent up to now is       55.9 secs

     total energy              =    -577.45340638 Ry
     estimated scf accuracy    <       0.00077999 Ry

     total magnetization       =     2.87 Bohr mag/cell
     absolute magnetization    =     3.07 Bohr mag/cell

     iteration # 59     ecut=    50.00 Ry     beta= 0.40
     Davidson diagonalization with overlap

---- Real-time Memory Report at c_bands before calling an iterative solver
            87 MiB given to the printing process from OS
            42 MiB allocation reported by mallinfo(arena+hblkhd)
        486481 MiB available memory on the node where the printing process lives
------------------
     ethr =  1.19E-06,  avg # of iterations =  9.9

     negative rho (up, down):  1.452E-04 2.284E-03

     total cpu time spent up to now is       57.2 secs

     total energy              =    -577.45800353 Ry
     estimated scf accuracy    <       0.00252436 Ry

     total magnetization       =     1.99 Bohr mag/cell
     absolute magnetization    =     2.53 Bohr mag/cell

     iteration # 60     ecut=    50.00 Ry     beta= 0.40
     Davidson diagonalization with overlap

---- Real-time Memory Report at c_bands before calling an iterative solver
            87 MiB given to the printing process from OS
            42 MiB allocation reported by mallinfo(arena+hblkhd)
        486481 MiB available memory on the node where the printing process lives
------------------
     ethr =  1.19E-06,  avg # of iterations =  5.2

     negative rho (up, down):  5.100E-05 3.320E-03

     total cpu time spent up to now is       58.1 secs

     total energy              =    -577.42605555 Ry
     estimated scf accuracy    <       0.00119182 Ry

     total magnetization       =     2.38 Bohr mag/cell
     absolute magnetization    =     2.70 Bohr mag/cell

     iteration # 61     ecut=    50.00 Ry     beta= 0.40
     Davidson diagonalization with overlap

---- Real-time Memory Report at c_bands before calling an iterative solver
            87 MiB given to the printing process from OS
            42 MiB allocation reported by mallinfo(arena+hblkhd)
        486480 MiB available memory on the node where the printing process lives
------------------
     ethr =  1.19E-06,  avg # of iterations = 10.1

     negative rho (up, down):  1.751E-04 2.380E-03

     total cpu time spent up to now is       59.5 secs

     total energy              =    -577.42804702 Ry
     estimated scf accuracy    <       0.00198189 Ry

     total magnetization       =     3.61 Bohr mag/cell
     absolute magnetization    =     3.77 Bohr mag/cell

     iteration # 62     ecut=    50.00 Ry     beta= 0.40
     Davidson diagonalization with overlap

---- Real-time Memory Report at c_bands before calling an iterative solver
            87 MiB given to the printing process from OS
            42 MiB allocation reported by mallinfo(arena+hblkhd)
        486480 MiB available memory on the node where the printing process lives
------------------
     ethr =  1.19E-06,  avg # of iterations = 10.8

     negative rho (up, down):  7.738E-05 2.990E-03

     total cpu time spent up to now is       60.9 secs

     total energy              =    -577.42734245 Ry
     estimated scf accuracy    <       0.00275339 Ry

     total magnetization       =     1.93 Bohr mag/cell
     absolute magnetization    =     2.53 Bohr mag/cell

     iteration # 63     ecut=    50.00 Ry     beta= 0.40
     Davidson diagonalization with overlap

---- Real-time Memory Report at c_bands before calling an iterative solver
            87 MiB given to the printing process from OS
            42 MiB allocation reported by mallinfo(arena+hblkhd)
        486480 MiB available memory on the node where the printing process lives
------------------
     ethr =  1.19E-06,  avg # of iterations = 10.2

     negative rho (up, down):  4.296E-05 3.423E-03

     total cpu time spent up to now is       62.3 secs

     total energy              =    -577.44748841 Ry
     estimated scf accuracy    <       0.00118061 Ry

     total magnetization       =     3.30 Bohr mag/cell
     absolute magnetization    =     3.46 Bohr mag/cell

     iteration # 64     ecut=    50.00 Ry     beta= 0.40
     Davidson diagonalization with overlap

---- Real-time Memory Report at c_bands before calling an iterative solver
            87 MiB given to the printing process from OS
            42 MiB allocation reported by mallinfo(arena+hblkhd)
        486479 MiB available memory on the node where the printing process lives
------------------
     ethr =  1.19E-06,  avg # of iterations =  7.6

     negative rho (up, down):  4.120E-05 3.446E-03

     total cpu time spent up to now is       63.4 secs

     total energy              =    -577.45012029 Ry
     estimated scf accuracy    <       0.00252019 Ry

     total magnetization       =     3.69 Bohr mag/cell
     absolute magnetization    =     3.84 Bohr mag/cell

     iteration # 65     ecut=    50.00 Ry     beta= 0.40
     Davidson diagonalization with overlap

---- Real-time Memory Report at c_bands before calling an iterative solver
[...]

     iteration #480     ecut=    50.00 Ry     beta= 0.40
     Davidson diagonalization with overlap

---- Real-time Memory Report at c_bands before calling an iterative solver
            89 MiB given to the printing process from OS
            42 MiB allocation reported by mallinfo(arena+hblkhd)
        486447 MiB available memory on the node where the printing process lives
------------------
     ethr =  8.78E-07,  avg # of iterations = 10.8

     negative rho (up, down):  1.652E-04 2.320E-03

     total cpu time spent up to now is      485.3 secs

     total energy              =    -577.46168885 Ry
     estimated scf accuracy    <       0.00175095 Ry

     total magnetization       =     2.06 Bohr mag/cell
     absolute magnetization    =     2.54 Bohr mag/cell

     iteration #481     ecut=    50.00 Ry     beta= 0.40
     Davidson diagonalization with overlap

---- Real-time Memory Report at c_bands before calling an iterative solver
            89 MiB given to the printing process from OS
            42 MiB allocation reported by mallinfo(arena+hblkhd)
        486446 MiB available memory on the node where the printing process lives
------------------
     ethr =  8.78E-07,  avg # of iterations =  1.3

     negative rho (up, down):  1.188E-04 2.476E-03

     total cpu time spent up to now is      485.9 secs

     total energy              =    -577.45249243 Ry
     estimated scf accuracy    <       0.00175066 Ry

     total magnetization       =     2.07 Bohr mag/cell
     absolute magnetization    =     2.54 Bohr mag/cell

     iteration #482     ecut=    50.00 Ry     beta= 0.40
     Davidson diagonalization with overlap

---- Real-time Memory Report at c_bands before calling an iterative solver
            89 MiB given to the printing process from OS
            42 MiB allocation reported by mallinfo(arena+hblkhd)
        486447 MiB available memory on the node where the printing process lives
------------------
     ethr =  8.78E-07,  avg # of iterations =  7.8

     negative rho (up, down):  2.603E-05 3.886E-03

     total cpu time spent up to now is      487.0 secs

     total energy              =    -577.41102502 Ry
     estimated scf accuracy    <       0.00062322 Ry

     total magnetization       =     2.73 Bohr mag/cell
     absolute magnetization    =     2.95 Bohr mag/cell

     iteration #483     ecut=    50.00 Ry     beta= 0.40
     Davidson diagonalization with overlap

---- Real-time Memory Report at c_bands before calling an iterative solver
            89 MiB given to the printing process from OS
            42 MiB allocation reported by mallinfo(arena+hblkhd)
        486447 MiB available memory on the node where the printing process lives
------------------
     ethr =  8.78E-07,  avg # of iterations = 11.4

     negative rho (up, down):  2.590E-05 3.896E-03

     total cpu time spent up to now is      488.6 secs

     total energy              =    -577.44357446 Ry
     estimated scf accuracy    <       0.00470423 Ry

     total magnetization       =     4.05 Bohr mag/cell
     absolute magnetization    =     4.20 Bohr mag/cell

     iteration #484     ecut=    50.00 Ry     beta= 0.40
     Davidson diagonalization with overlap

---- Real-time Memory Report at c_bands before calling an iterative solver
            89 MiB given to the printing process from OS
            42 MiB allocation reported by mallinfo(arena+hblkhd)
        486447 MiB available memory on the node where the printing process lives
------------------
     ethr =  8.78E-07,  avg # of iterations =  1.0

     negative rho (up, down):  2.478E-05 3.768E-03

     total cpu time spent up to now is      489.1 secs

     total energy              =    -577.44545479 Ry
     estimated scf accuracy    <       0.00481368 Ry

     total magnetization       =     4.06 Bohr mag/cell
     absolute magnetization    =     4.20 Bohr mag/cell

     iteration #485     ecut=    50.00 Ry     beta= 0.40
     Davidson diagonalization with overlap

---- Real-time Memory Report at c_bands before calling an iterative solver
            89 MiB given to the printing process from OS
            42 MiB allocation reported by mallinfo(arena+hblkhd)
        486447 MiB available memory on the node where the printing process lives
------------------
     ethr =  8.78E-07,  avg # of iterations =  2.1

     negative rho (up, down):  2.766E-05 3.611E-03

     total cpu time spent up to now is      489.7 secs

     total energy              =    -577.44764303 Ry
     estimated scf accuracy    <       0.00385853 Ry

     total magnetization       =     3.96 Bohr mag/cell
     absolute magnetization    =     4.12 Bohr mag/cell

     iteration #486     ecut=    50.00 Ry     beta= 0.40
     Davidson diagonalization with overlap

---- Real-time Memory Report at c_bands before calling an iterative solver
            89 MiB given to the printing process from OS
            42 MiB allocation reported by mallinfo(arena+hblkhd)
        486447 MiB available memory on the node where the printing process lives
------------------
     ethr =  8.78E-07,  avg # of iterations =  4.1

     negative rho (up, down):  2.572E-05 3.841E-03

     total cpu time spent up to now is      490.5 secs

     total energy              =    -577.44373202 Ry
     estimated scf accuracy    <       0.00305776 Ry

     total magnetization       =     3.85 Bohr mag/cell
     absolute magnetization    =     4.00 Bohr mag/cell

     iteration #487     ecut=    50.00 Ry     beta= 0.40
     Davidson diagonalization with overlap

---- Real-time Memory Report at c_bands before calling an iterative solver
            89 MiB given to the printing process from OS
            42 MiB allocation reported by mallinfo(arena+hblkhd)
        486447 MiB available memory on the node where the printing process lives
------------------
     ethr =  8.78E-07,  avg # of iterations =  4.0

     negative rho (up, down):  2.776E-05 3.892E-03

     total cpu time spent up to now is      491.3 secs

     total energy              =    -577.44317857 Ry
     estimated scf accuracy    <       0.00434161 Ry

     total magnetization       =     4.02 Bohr mag/cell
     absolute magnetization    =     4.17 Bohr mag/cell

     iteration #488     ecut=    50.00 Ry     beta= 0.40
     Davidson diagonalization with overlap

---- Real-time Memory Report at c_bands before calling an iterative solver
            89 MiB given to the printing process from OS
            42 MiB allocation reported by mallinfo(arena+hblkhd)
        486446 MiB available memory on the node where the printing process lives
------------------
     ethr =  8.78E-07,  avg # of iterations =  1.6

     negative rho (up, down):  2.678E-05 3.849E-03

     total cpu time spent up to now is      491.9 secs

     total energy              =    -577.44402955 Ry
     estimated scf accuracy    <       0.00470392 Ry

     total magnetization       =     4.06 Bohr mag/cell
     absolute magnetization    =     4.21 Bohr mag/cell

     iteration #489     ecut=    50.00 Ry     beta= 0.40
     Davidson diagonalization with overlap

---- Real-time Memory Report at c_bands before calling an iterative solver
            89 MiB given to the printing process from OS
            42 MiB allocation reported by mallinfo(arena+hblkhd)
        486446 MiB available memory on the node where the printing process lives
------------------
     ethr =  8.78E-07,  avg # of iterations =  1.0

     negative rho (up, down):  2.503E-05 3.798E-03

     total cpu time spent up to now is      492.4 secs

     total energy              =    -577.44505268 Ry
     estimated scf accuracy    <       0.00433716 Ry

     total magnetization       =     4.03 Bohr mag/cell
     absolute magnetization    =     4.18 Bohr mag/cell

     iteration #490     ecut=    50.00 Ry     beta= 0.40
     Davidson diagonalization with overlap

---- Real-time Memory Report at c_bands before calling an iterative solver
            89 MiB given to the printing process from OS
            42 MiB allocation reported by mallinfo(arena+hblkhd)
        486446 MiB available memory on the node where the printing process lives
------------------
     ethr =  8.78E-07,  avg # of iterations =  1.5

     negative rho (up, down):  1.353E-04 2.266E-03

     total cpu time spent up to now is      493.0 secs

     total energy              =    -577.42964667 Ry
     estimated scf accuracy    <       0.00401320 Ry

     total magnetization       =     3.99 Bohr mag/cell
     absolute magnetization    =     4.14 Bohr mag/cell

     iteration #491     ecut=    50.00 Ry     beta= 0.40
     Davidson diagonalization with overlap

---- Real-time Memory Report at c_bands before calling an iterative solver
            89 MiB given to the printing process from OS
            42 MiB allocation reported by mallinfo(arena+hblkhd)
        486445 MiB available memory on the node where the printing process lives
------------------
     ethr =  8.78E-07,  avg # of iterations = 11.2

     negative rho (up, down):  1.713E-04 2.309E-03

     total cpu time spent up to now is      494.4 secs

     total energy              =    -577.45855533 Ry
     estimated scf accuracy    <       0.00075586 Ry

     total magnetization       =     2.54 Bohr mag/cell
     absolute magnetization    =     2.79 Bohr mag/cell

     iteration #492     ecut=    50.00 Ry     beta= 0.40
     Davidson diagonalization with overlap

---- Real-time Memory Report at c_bands before calling an iterative solver
            89 MiB given to the printing process from OS
            42 MiB allocation reported by mallinfo(arena+hblkhd)
        486445 MiB available memory on the node where the printing process lives
------------------
     ethr =  8.78E-07,  avg # of iterations =  7.7

     negative rho (up, down):  2.095E-04 2.378E-03

     total cpu time spent up to now is      495.6 secs

     total energy              =    -577.46407246 Ry
     estimated scf accuracy    <       0.00200143 Ry

     total magnetization       =     1.97 Bohr mag/cell
     absolute magnetization    =     2.50 Bohr mag/cell

     iteration #493     ecut=    50.00 Ry     beta= 0.40
     Davidson diagonalization with overlap

---- Real-time Memory Report at c_bands before calling an iterative solver
            89 MiB given to the printing process from OS
            42 MiB allocation reported by mallinfo(arena+hblkhd)
        486445 MiB available memory on the node where the printing process lives
------------------
     ethr =  8.78E-07,  avg # of iterations =  7.6

     negative rho (up, down):  1.954E-04 2.363E-03

     total cpu time spent up to now is      496.7 secs

     total energy              =    -577.46515631 Ry
     estimated scf accuracy    <       0.00767771 Ry

     total magnetization       =     1.34 Bohr mag/cell
     absolute magnetization    =     3.01 Bohr mag/cell

     iteration #494     ecut=    50.00 Ry     beta= 0.40
     Davidson diagonalization with overlap

---- Real-time Memory Report at c_bands before calling an iterative solver
            89 MiB given to the printing process from OS
            42 MiB allocation reported by mallinfo(arena+hblkhd)
        486445 MiB available memory on the node where the printing process lives
------------------
     ethr =  8.78E-07,  avg # of iterations =  2.8

     negative rho (up, down):  1.909E-04 2.348E-03

     total cpu time spent up to now is      497.3 secs

     total energy              =    -577.46491615 Ry
     estimated scf accuracy    <       0.00516353 Ry

     total magnetization       =     1.58 Bohr mag/cell
     absolute magnetization    =     2.72 Bohr mag/cell

     iteration #495     ecut=    50.00 Ry     beta= 0.40
     Davidson diagonalization with overlap

---- Real-time Memory Report at c_bands before calling an iterative solver
            89 MiB given to the printing process from OS
            42 MiB allocation reported by mallinfo(arena+hblkhd)
        486445 MiB available memory on the node where the printing process lives
------------------
     ethr =  8.78E-07,  avg # of iterations =  1.6

     negative rho (up, down):  1.697E-04 2.332E-03

     total cpu time spent up to now is      497.9 secs

     total energy              =    -577.46091284 Ry
     estimated scf accuracy    <       0.00426457 Ry

     total magnetization       =     1.65 Bohr mag/cell
     absolute magnetization    =     2.62 Bohr mag/cell

     iteration #496     ecut=    50.00 Ry     beta= 0.40
     Davidson diagonalization with overlap

---- Real-time Memory Report at c_bands before calling an iterative solver
            89 MiB given to the printing process from OS
            42 MiB allocation reported by mallinfo(arena+hblkhd)
        486445 MiB available memory on the node where the printing process lives
------------------
     ethr =  8.78E-07,  avg # of iterations =  6.3

     negative rho (up, down):  1.823E-04 2.380E-03

     total cpu time spent up to now is      498.9 secs

     total energy              =    -577.46337676 Ry
     estimated scf accuracy    <       0.00218816 Ry

     total magnetization       =     2.00 Bohr mag/cell
     absolute magnetization    =     2.52 Bohr mag/cell

     iteration #497     ecut=    50.00 Ry     beta= 0.40
     Davidson diagonalization with overlap

---- Real-time Memory Report at c_bands before calling an iterative solver
            89 MiB given to the printing process from OS
            42 MiB allocation reported by mallinfo(arena+hblkhd)
        486445 MiB available memory on the node where the printing process lives
------------------
     ethr =  8.78E-07,  avg # of iterations =  2.4

     negative rho (up, down):  1.616E-04 2.389E-03

     total cpu time spent up to now is      499.5 secs

     total energy              =    -577.46032243 Ry
     estimated scf accuracy    <       0.00328914 Ry

     total magnetization       =     1.80 Bohr mag/cell
     absolute magnetization    =     2.53 Bohr mag/cell

     iteration #498     ecut=    50.00 Ry     beta= 0.40
     Davidson diagonalization with overlap

---- Real-time Memory Report at c_bands before calling an iterative solver
            89 MiB given to the printing process from OS
            42 MiB allocation reported by mallinfo(arena+hblkhd)
        486445 MiB available memory on the node where the printing process lives
------------------
     ethr =  8.78E-07,  avg # of iterations =  3.7

     negative rho (up, down):  1.098E-04 2.674E-03

     total cpu time spent up to now is      500.3 secs

     total energy              =    -577.45091091 Ry
     estimated scf accuracy    <       0.00197188 Ry

     total magnetization       =     2.14 Bohr mag/cell
     absolute magnetization    =     2.59 Bohr mag/cell

     iteration #499     ecut=    50.00 Ry     beta= 0.40
     Davidson diagonalization with overlap

---- Real-time Memory Report at c_bands before calling an iterative solver
            89 MiB given to the printing process from OS
            42 MiB allocation reported by mallinfo(arena+hblkhd)
        486445 MiB available memory on the node where the printing process lives
------------------
     ethr =  8.78E-07,  avg # of iterations =  8.7

     negative rho (up, down):  6.625E-05 3.117E-03

     total cpu time spent up to now is      501.5 secs

     total energy              =    -577.45009499 Ry
     estimated scf accuracy    <       0.00086641 Ry

     total magnetization       =     2.87 Bohr mag/cell
     absolute magnetization    =     3.07 Bohr mag/cell

     iteration #500     ecut=    50.00 Ry     beta= 0.40
     Davidson diagonalization with overlap

---- Real-time Memory Report at c_bands before calling an iterative solver
            89 MiB given to the printing process from OS
            42 MiB allocation reported by mallinfo(arena+hblkhd)
        486445 MiB available memory on the node where the printing process lives
------------------
     ethr =  8.78E-07,  avg # of iterations =  8.6

     negative rho (up, down):  3.868E-05 3.458E-03

     total cpu time spent up to now is      502.7 secs

     total energy              =    -577.44942175 Ry
     estimated scf accuracy    <       0.00119207 Ry

     total magnetization       =     3.37 Bohr mag/cell
     absolute magnetization    =     3.53 Bohr mag/cell

     End of self-consistent calculation

     convergence NOT achieved after 500 iterations: stopping

     Writing config to output data dir ./out/aiida.save/ :
     XML data file, charge density

     init_run     :      1.30s CPU      1.34s WALL (       1 calls)
     electrons    :    480.98s CPU    500.86s WALL (       1 calls)

     Called by init_run:
     wfcinit      :      0.22s CPU      0.24s WALL (       1 calls)
     wfcinit:atom :      0.00s CPU      0.00s WALL (      18 calls)
     wfcinit:wfcr :      0.20s CPU      0.21s WALL (      18 calls)
     potinit      :      0.36s CPU      0.37s WALL (       1 calls)
     hinit0       :      0.65s CPU      0.66s WALL (       1 calls)

     Called by electrons:
     c_bands      :    413.54s CPU    428.25s WALL (     500 calls)
     sum_band     :     42.13s CPU     44.53s WALL (     500 calls)
     v_of_rho     :     16.45s CPU     18.02s WALL (     501 calls)
     v_h          :      0.58s CPU      0.67s WALL (     501 calls)
     v_xc         :     15.86s CPU     17.34s WALL (     501 calls)
     newd         :      4.29s CPU      4.89s WALL (     501 calls)
     mix_rho      :      1.63s CPU      1.71s WALL (     500 calls)

     Called by c_bands:
     init_us_2    :      4.34s CPU      4.53s WALL (   18018 calls)
     init_us_2:cp :      4.29s CPU      4.48s WALL (   18018 calls)
     cegterg      :    262.18s CPU    272.70s WALL (    9000 calls)

     Called by sum_band:
     sum_band:wei :      0.66s CPU      0.68s WALL (     500 calls)
     sum_band:loo :     32.68s CPU     34.34s WALL (     500 calls)
     sum_band:buf :      0.32s CPU      0.33s WALL (    9000 calls)
     sum_band:ini :      2.09s CPU      2.16s WALL (    9000 calls)
     sum_band:cal :      3.64s CPU      3.76s WALL (    9000 calls)
     sum_band:bec :      0.13s CPU      0.14s WALL (    9000 calls)
     addusdens    :      7.10s CPU      7.21s WALL (     500 calls)
                                        0.00s GPU  (     500 calls)
     addusd:skk   :      0.02s CPU      0.01s WALL (    1500 calls)
                                        0.00s GPU  (    1500 calls)

     Called by *egterg:
     cdiaghg      :     50.24s CPU     50.77s WALL (   47410 calls)
     cegterg:over :      9.78s CPU     10.13s WALL (   38410 calls)
     cegterg:upda :      5.72s CPU      5.80s WALL (   38410 calls)
     cegterg:last :     11.05s CPU     11.13s WALL (   22119 calls)
     h_psi        :    170.81s CPU    179.67s WALL (   47428 calls)
     s_psi        :      9.40s CPU      9.75s WALL (   47428 calls)
     g_psi        :      0.63s CPU      0.64s WALL (   38410 calls)

     Called by h_psi:
     h_psi:calbec :     12.21s CPU     12.88s WALL (   47428 calls)
     vloc_psi     :    147.84s CPU    155.49s WALL (   47428 calls)
     add_vuspsi   :     10.04s CPU     10.41s WALL (   47428 calls)

     General routines
     calbec       :     15.74s CPU     16.48s WALL (   56428 calls)
     fft          :      5.20s CPU      6.00s WALL (   12523 calls)
     ffts         :      0.57s CPU      0.62s WALL (    2002 calls)
     fftw         :    139.99s CPU    146.56s WALL ( 1900872 calls)
     interpolate  :      0.88s CPU      0.98s WALL (    1002 calls)
     davcio       :      0.00s CPU      0.01s WALL (      36 calls)

     Parallel routines

     PWSCF        :   8m 2.63s CPU   8m22.82s WALL


   This run was terminated on:  19:11:25  28Nov2023            

=------------------------------------------------------------------------------=
   JOB DONE.
=------------------------------------------------------------------------------=
