
     Program PWSCF v.7.2 starts on 23Oct2023 at 21:49:28 

     This program is part of the open-source Quantum ESPRESSO suite
     for quantum simulation of materials; please cite
         "P. Giannozzi et al., J. Phys.:Condens. Matter 21 395502 (2009);
         "P. Giannozzi et al., J. Phys.:Condens. Matter 29 465901 (2017);
         "P. Giannozzi et al., J. Chem. Phys. 152 154105 (2020);
          URL http://www.quantum-espresso.org", 
     in publications or presentations arising from this work. More details at
     http://www.quantum-espresso.org/quote

     Parallel version (MPI & OpenMP), running on      12 processor cores
     Number of MPI processes:                 1
     Threads/MPI process:                    12

     MPI processes distributed on     1 nodes
     60499 MiB available memory on the printing compute node when the environment starts
 
     Reading input from aiida.in

     Current dimensions of program PWSCF are:
     Max number of different atomic species (ntypx) = 10
     Max number of k-points (npk) =  40000
     Max angular momentum in pseudopotentials (lmaxx) =  4
     file Ba.pbesol-spn-kjpaw_psl.1.0.0.UPF: wavefunction(s)  5S 6S renormalized
     file Cd.pbesol-dn-rrkjus_psl.0.3.1.UPF: wavefunction(s)  4D renormalized
     Message from routine setup:
     using ibrav=0 with symmetry is DISCOURAGED, use correct ibrav instead
 
     Subspace diagonalization in iterative solution of the eigenvalue problem:
     a serial algorithm will be used

 
     G-vector sticks info
     --------------------
     sticks:   dense  smooth     PW     G-vecs:    dense   smooth      PW
     Sum        5457    2725    819               385727   136307   22463
 
     Using Slab Decomposition
 


     bravais-lattice index     =            0
     lattice parameter (alat)  =      17.0078  a.u.
     unit-cell volume          =    2171.6512 (a.u.)^3
     number of atoms/cell      =           10
     number of atomic types    =            3
     number of electrons       =        84.00
     number of Kohn-Sham states=           50
     kinetic-energy cutoff     =      60.0000  Ry
     charge density cutoff     =     480.0000  Ry
     scf convergence threshold =      2.0E-09
     mixing beta               =       0.1000
     number of iterations used =            8  plain     mixing
     Exchange-correlation= PBESOL
                           (   1   4  10   8   0   0   0)

     GPU acceleration is ACTIVE.


     GPU used by master process:

        Device Number: 0
        Device name: Tesla P100-PCIE-16GB
        Compute capability : 60
        Ratio of single to double precision performance  : 2
        Memory Clock Rate (KHz): 715000
        Memory Bus Width (bits): 4096
        Peak Memory Bandwidth (GB/s): 732.16

     celldm(1)=  17.007847  celldm(2)=   0.000000  celldm(3)=   0.000000
     celldm(4)=   0.000000  celldm(5)=   0.000000  celldm(6)=   0.000000

     crystal axes: (cart. coord. in units of alat)
               a(1) = (   0.255118  -0.966910   0.000000 )  
               a(2) = (   0.255118   0.966910   0.000000 )  
               a(3) = (   0.000000   0.000000   0.894717 )  

     reciprocal axes: (cart. coord. in units 2 pi/alat)
               b(1) = (  1.959881 -0.517111  0.000000 )  
               b(2) = (  1.959881  0.517111 -0.000000 )  
               b(3) = ( -0.000000  0.000000  1.117672 )  


     PseudoPot. # 1 for As read from file:
     ./pseudo/As.pbesol-n-rrkjus_psl.0.2.UPF
     MD5 check sum: 1aa86e6aa4f77befd3aa87cac6788838
     Pseudo is Ultrasoft + core correction, Zval =  5.0
     Generated using "atomic" code by A. Dal Corso  v.6.0 svn rev. 13079
     Using radial grid of 1209 points,  4 beta functions with: 
                l(1) =   0
                l(2) =   0
                l(3) =   1
                l(4) =   1
     Q(r) pseudized with 0 coefficients 


     PseudoPot. # 2 for Ba read from file:
     ./pseudo/Ba.pbesol-spn-kjpaw_psl.1.0.0.UPF
     MD5 check sum: f28c4a63d325c1a0d00fd3a4f19b8d73
     Pseudo is Projector augmented-wave + core cor, Zval = 10.0
     Generated using "atomic" code by A. Dal Corso  v.6.0 svn rev. 13079
     Shape of augmentation charge: PSQ
     Using radial grid of 1251 points,  7 beta functions with: 
                l(1) =   0
                l(2) =   0
                l(3) =   0
                l(4) =   1
                l(5) =   1
                l(6) =   2
                l(7) =   2
     Q(r) pseudized with 0 coefficients 


     PseudoPot. # 3 for Cd read from file:
     ./pseudo/Cd.pbesol-dn-rrkjus_psl.0.3.1.UPF
     MD5 check sum: 1f02951eb1ebb2be2329879281757063
     Pseudo is Ultrasoft + core correction, Zval = 12.0
     Generated using "atomic" code by A. Dal Corso  v.6.0 svn rev. 13079
     Using radial grid of 1239 points,  6 beta functions with: 
                l(1) =   0
                l(2) =   0
                l(3) =   1
                l(4) =   1
                l(5) =   2
                l(6) =   2
     Q(r) pseudized with 0 coefficients 


     atomic species   valence    mass     pseudopotential
        As             5.00    74.92160     As( 1.00)
        Ba            10.00   137.32700     Ba( 1.00)
        Cd            12.00   112.41100     Cd( 1.00)

     Starting magnetic structure 
     atomic species   magnetization
        As           0.100
        Ba           0.100
        Cd           0.100

      4 Sym. Ops. (no inversion) found ( 2 have fractional translation)


                                    s                        frac. trans.

      isym =  1     identity                                     

 cryst.   s( 1) = (     1          0          0      )
                  (     0          1          0      )
                  (     0          0          1      )

 cart.    s( 1) = (  1.0000000 -0.0000000  0.0000000 )
                  (  0.0000000  1.0000000  0.0000000 )
                  (  0.0000000  0.0000000  1.0000000 )


      isym =  2     180 deg rotation - cart. axis [0,0,1]        

 cryst.   s( 2) = (    -1          0          0      )    f =(  0.0000000 )
                  (     0         -1          0      )       ( -0.0000000 )
                  (     0          0          1      )       ( -0.5000000 )

 cart.    s( 2) = ( -1.0000000  0.0000000  0.0000000 )    f =( -0.0000000 )
                  ( -0.0000000 -1.0000000  0.0000000 )       ( -0.0000000 )
                  (  0.0000000  0.0000000  1.0000000 )       ( -0.4473585 )


      isym =  3     inv. 180 deg rotation - cart. axis [0,1,0]   

 cryst.   s( 3) = (     0          1          0      )    f =(  0.0000000 )
                  (     1          0          0      )       ( -0.0000000 )
                  (     0          0          1      )       ( -0.5000000 )

 cart.    s( 3) = (  1.0000000  0.0000000  0.0000000 )    f =(  0.0000000 )
                  (  0.0000000 -1.0000000  0.0000000 )       ( -0.0000000 )
                  (  0.0000000  0.0000000  1.0000000 )       ( -0.4473585 )


      isym =  4     inv. 180 deg rotation - cart. axis [1,0,0]   

 cryst.   s( 4) = (     0         -1          0      )
                  (    -1          0          0      )
                  (     0          0          1      )

 cart.    s( 4) = ( -1.0000000 -0.0000000  0.0000000 )
                  ( -0.0000000  1.0000000  0.0000000 )
                  (  0.0000000  0.0000000  1.0000000 )


   Cartesian axes

     site n.     atom                  positions (alat units)
         1           Ba  tau(   1) = (  -0.0000000   1.3619895   0.8632229  )
         2           Ba  tau(   2) = (   0.2551175   1.5387406   0.4158644  )
         3           Ba  tau(   3) = (   0.0000000   1.0403952   0.2680572  )
         4           Ba  tau(   4) = (   0.2551175   1.8603349   0.7154157  )
         5           Cd  tau(   5) = (   0.0000000   1.7516542   0.1346549  )
         6           Cd  tau(   6) = (   0.2551175   1.1490759   0.5820134  )
         7           As  tau(   7) = (  -0.0000000   1.8174041   0.4473585  )
         8           As  tau(   8) = (   0.2551175   1.0833260   0.0000000  )
         9           As  tau(   9) = (   0.0000000   1.2975933   0.5100781  )
        10           As  tau(  10) = (   0.2551175   1.6031369   0.0627197  )

   Crystallographic axes

     site n.     atom                  positions (cryst. coord.)
         1           Ba  tau(   1) = ( -0.7043000  0.7043000  0.9648000  )
         2           Ba  tau(   2) = ( -0.2957000  1.2957000  0.4648000  )
         3           Ba  tau(   3) = ( -0.5380000  0.5380000  0.2996000  )
         4           Ba  tau(   4) = ( -0.4620000  1.4620000  0.7996000  )
         5           Cd  tau(   5) = ( -0.9058000  0.9058000  0.1505000  )
         6           Cd  tau(   6) = ( -0.0942000  1.0942000  0.6505000  )
         7           As  tau(   7) = ( -0.9398000  0.9398000  0.5000000  )
         8           As  tau(   8) = ( -0.0602000  1.0602000  0.0000000  )
         9           As  tau(   9) = ( -0.6710000  0.6710000  0.5701000  )
        10           As  tau(  10) = ( -0.3290000  1.3290000  0.0701000  )

     number of k points=   124  Marzari-Vanderbilt smearing, width (Ry)=  0.0100
                       cart. coord. in units 2pi/alat
        k(    1) = (   0.0000000   0.0000000   0.0000000), wk =   0.0016667
        k(    2) = (   0.0000000   0.0000000   0.1862787), wk =   0.0033333
        k(    3) = (   0.0000000   0.0000000   0.3725573), wk =   0.0033333
        k(    4) = (   0.0000000   0.0000000  -0.5588360), wk =   0.0016667
        k(    5) = (   0.1959881   0.0517111   0.0000000), wk =   0.0066667
        k(    6) = (   0.1959881   0.0517111   0.1862787), wk =   0.0133333
        k(    7) = (   0.1959881   0.0517111   0.3725573), wk =   0.0133333
        k(    8) = (   0.1959881   0.0517111  -0.5588360), wk =   0.0066667
        k(    9) = (   0.3919762   0.1034222   0.0000000), wk =   0.0066667
        k(   10) = (   0.3919762   0.1034222   0.1862787), wk =   0.0133333
        k(   11) = (   0.3919762   0.1034222   0.3725573), wk =   0.0133333
        k(   12) = (   0.3919762   0.1034222  -0.5588360), wk =   0.0066667
        k(   13) = (   0.5879643   0.1551334   0.0000000), wk =   0.0066667
        k(   14) = (   0.5879643   0.1551334   0.1862787), wk =   0.0133333
        k(   15) = (   0.5879643   0.1551334   0.3725573), wk =   0.0133333
        k(   16) = (   0.5879643   0.1551334  -0.5588360), wk =   0.0066667
        k(   17) = (   0.7839524   0.2068445   0.0000000), wk =   0.0066667
        k(   18) = (   0.7839524   0.2068445   0.1862787), wk =   0.0133333
        k(   19) = (   0.7839524   0.2068445   0.3725573), wk =   0.0133333
        k(   20) = (   0.7839524   0.2068445  -0.5588360), wk =   0.0066667
        k(   21) = (  -0.9799404  -0.2585556   0.0000000), wk =   0.0033333
        k(   22) = (  -0.9799404  -0.2585556   0.1862787), wk =   0.0066667
        k(   23) = (  -0.9799404  -0.2585556   0.3725573), wk =   0.0066667
        k(   24) = (  -0.9799404  -0.2585556  -0.5588360), wk =   0.0033333
        k(   25) = (   0.3919762   0.0000000   0.0000000), wk =   0.0033333
        k(   26) = (   0.3919762   0.0000000   0.1862787), wk =   0.0066667
        k(   27) = (   0.3919762   0.0000000   0.3725573), wk =   0.0066667
        k(   28) = (   0.3919762   0.0000000  -0.5588360), wk =   0.0033333
        k(   29) = (   0.5879643   0.0517111   0.0000000), wk =   0.0066667
        k(   30) = (   0.5879643   0.0517111   0.1862787), wk =   0.0133333
        k(   31) = (   0.5879643   0.0517111   0.3725573), wk =   0.0133333
        k(   32) = (   0.5879643   0.0517111  -0.5588360), wk =   0.0066667
        k(   33) = (   0.7839524   0.1034222   0.0000000), wk =   0.0066667
        k(   34) = (   0.7839524   0.1034222   0.1862787), wk =   0.0133333
        k(   35) = (   0.7839524   0.1034222   0.3725573), wk =   0.0133333
        k(   36) = (   0.7839524   0.1034222  -0.5588360), wk =   0.0066667
        k(   37) = (   0.9799404   0.1551334   0.0000000), wk =   0.0066667
        k(   38) = (   0.9799404   0.1551334   0.1862787), wk =   0.0133333
        k(   39) = (   0.9799404   0.1551334   0.3725573), wk =   0.0133333
        k(   40) = (   0.9799404   0.1551334  -0.5588360), wk =   0.0066667
        k(   41) = (  -0.7839524  -0.3102667   0.0000000), wk =   0.0066667
        k(   42) = (  -0.7839524  -0.3102667   0.1862787), wk =   0.0133333
        k(   43) = (  -0.7839524  -0.3102667   0.3725573), wk =   0.0133333
        k(   44) = (  -0.7839524  -0.3102667  -0.5588360), wk =   0.0066667
        k(   45) = (  -0.5879643  -0.2585556   0.0000000), wk =   0.0066667
        k(   46) = (  -0.5879643  -0.2585556   0.1862787), wk =   0.0133333
        k(   47) = (  -0.5879643  -0.2585556   0.3725573), wk =   0.0133333
        k(   48) = (  -0.5879643  -0.2585556  -0.5588360), wk =   0.0066667
        k(   49) = (  -0.3919762  -0.2068445   0.0000000), wk =   0.0066667
        k(   50) = (  -0.3919762  -0.2068445   0.1862787), wk =   0.0133333
        k(   51) = (  -0.3919762  -0.2068445   0.3725573), wk =   0.0133333
        k(   52) = (  -0.3919762  -0.2068445  -0.5588360), wk =   0.0066667
        k(   53) = (  -0.1959881  -0.1551334   0.0000000), wk =   0.0066667
        k(   54) = (  -0.1959881  -0.1551334   0.1862787), wk =   0.0133333
        k(   55) = (  -0.1959881  -0.1551334   0.3725573), wk =   0.0133333
        k(   56) = (  -0.1959881  -0.1551334  -0.5588360), wk =   0.0066667
        k(   57) = (   0.0000000  -0.1034222   0.0000000), wk =   0.0033333
        k(   58) = (   0.0000000  -0.1034222   0.1862787), wk =   0.0066667
        k(   59) = (   0.0000000  -0.1034222   0.3725573), wk =   0.0066667
        k(   60) = (   0.0000000  -0.1034222  -0.5588360), wk =   0.0033333
        k(   61) = (   0.7839524   0.0000000   0.0000000), wk =   0.0033333
        k(   62) = (   0.7839524   0.0000000   0.1862787), wk =   0.0066667
        k(   63) = (   0.7839524   0.0000000   0.3725573), wk =   0.0066667
        k(   64) = (   0.7839524   0.0000000  -0.5588360), wk =   0.0033333
        k(   65) = (   0.9799404   0.0517111   0.0000000), wk =   0.0066667
        k(   66) = (   0.9799404   0.0517111   0.1862787), wk =   0.0133333
        k(   67) = (   0.9799404   0.0517111   0.3725573), wk =   0.0133333
        k(   68) = (   0.9799404   0.0517111  -0.5588360), wk =   0.0066667
        k(   69) = (   1.1759285   0.1034222   0.0000000), wk =   0.0066667
        k(   70) = (   1.1759285   0.1034222   0.1862787), wk =   0.0133333
        k(   71) = (   1.1759285   0.1034222   0.3725573), wk =   0.0133333
        k(   72) = (   1.1759285   0.1034222  -0.5588360), wk =   0.0066667
        k(   73) = (  -0.5879643  -0.3619778   0.0000000), wk =   0.0066667
        k(   74) = (  -0.5879643  -0.3619778   0.1862787), wk =   0.0133333
        k(   75) = (  -0.5879643  -0.3619778   0.3725573), wk =   0.0133333
        k(   76) = (  -0.5879643  -0.3619778  -0.5588360), wk =   0.0066667
        k(   77) = (  -0.3919762  -0.3102667   0.0000000), wk =   0.0066667
        k(   78) = (  -0.3919762  -0.3102667   0.1862787), wk =   0.0133333
        k(   79) = (  -0.3919762  -0.3102667   0.3725573), wk =   0.0133333
        k(   80) = (  -0.3919762  -0.3102667  -0.5588360), wk =   0.0066667
        k(   81) = (  -0.1959881  -0.2585556   0.0000000), wk =   0.0066667
        k(   82) = (  -0.1959881  -0.2585556   0.1862787), wk =   0.0133333
        k(   83) = (  -0.1959881  -0.2585556   0.3725573), wk =   0.0133333
        k(   84) = (  -0.1959881  -0.2585556  -0.5588360), wk =   0.0066667
        k(   85) = (   0.0000000  -0.2068445   0.0000000), wk =   0.0033333
        k(   86) = (   0.0000000  -0.2068445   0.1862787), wk =   0.0066667
        k(   87) = (   0.0000000  -0.2068445   0.3725573), wk =   0.0066667
        k(   88) = (   0.0000000  -0.2068445  -0.5588360), wk =   0.0033333
        k(   89) = (   1.1759285   0.0000000   0.0000000), wk =   0.0033333
        k(   90) = (   1.1759285   0.0000000   0.1862787), wk =   0.0066667
        k(   91) = (   1.1759285   0.0000000   0.3725573), wk =   0.0066667
        k(   92) = (   1.1759285   0.0000000  -0.5588360), wk =   0.0033333
        k(   93) = (   1.3719166   0.0517111   0.0000000), wk =   0.0066667
        k(   94) = (   1.3719166   0.0517111   0.1862787), wk =   0.0133333
        k(   95) = (   1.3719166   0.0517111   0.3725573), wk =   0.0133333
        k(   96) = (   1.3719166   0.0517111  -0.5588360), wk =   0.0066667
        k(   97) = (  -0.3919762  -0.4136889   0.0000000), wk =   0.0066667
        k(   98) = (  -0.3919762  -0.4136889   0.1862787), wk =   0.0133333
        k(   99) = (  -0.3919762  -0.4136889   0.3725573), wk =   0.0133333
        k(  100) = (  -0.3919762  -0.4136889  -0.5588360), wk =   0.0066667
        k(  101) = (  -0.1959881  -0.3619778   0.0000000), wk =   0.0066667
        k(  102) = (  -0.1959881  -0.3619778   0.1862787), wk =   0.0133333
        k(  103) = (  -0.1959881  -0.3619778   0.3725573), wk =   0.0133333
        k(  104) = (  -0.1959881  -0.3619778  -0.5588360), wk =   0.0066667
        k(  105) = (  -0.0000000  -0.3102667   0.0000000), wk =   0.0033333
        k(  106) = (  -0.0000000  -0.3102667   0.1862787), wk =   0.0066667
        k(  107) = (  -0.0000000  -0.3102667   0.3725573), wk =   0.0066667
        k(  108) = (  -0.0000000  -0.3102667  -0.5588360), wk =   0.0033333
        k(  109) = (   1.5679047   0.0000000   0.0000000), wk =   0.0033333
        k(  110) = (   1.5679047   0.0000000   0.1862787), wk =   0.0066667
        k(  111) = (   1.5679047   0.0000000   0.3725573), wk =   0.0066667
        k(  112) = (   1.5679047   0.0000000  -0.5588360), wk =   0.0033333
        k(  113) = (  -0.1959881  -0.4654001   0.0000000), wk =   0.0066667
        k(  114) = (  -0.1959881  -0.4654001   0.1862787), wk =   0.0133333
        k(  115) = (  -0.1959881  -0.4654001   0.3725573), wk =   0.0133333
        k(  116) = (  -0.1959881  -0.4654001  -0.5588360), wk =   0.0066667
        k(  117) = (  -0.0000000  -0.4136889   0.0000000), wk =   0.0033333
        k(  118) = (  -0.0000000  -0.4136889   0.1862787), wk =   0.0066667
        k(  119) = (  -0.0000000  -0.4136889   0.3725573), wk =   0.0066667
        k(  120) = (  -0.0000000  -0.4136889  -0.5588360), wk =   0.0033333
        k(  121) = (  -1.9598809   0.0000000   0.0000000), wk =   0.0016667
        k(  122) = (  -1.9598809   0.0000000   0.1862787), wk =   0.0033333
        k(  123) = (  -1.9598809   0.0000000   0.3725573), wk =   0.0033333
        k(  124) = (  -1.9598809   0.0000000  -0.5588360), wk =   0.0016667

                       cryst. coord.
        k(    1) = (   0.0000000   0.0000000   0.0000000), wk =   0.0016667
        k(    2) = (   0.0000000   0.0000000   0.1666667), wk =   0.0033333
        k(    3) = (   0.0000000   0.0000000   0.3333333), wk =   0.0033333
        k(    4) = (   0.0000000   0.0000000  -0.5000000), wk =   0.0016667
        k(    5) = (  -0.0000000   0.1000000   0.0000000), wk =   0.0066667
        k(    6) = (  -0.0000000   0.1000000   0.1666667), wk =   0.0133333
        k(    7) = (  -0.0000000   0.1000000   0.3333333), wk =   0.0133333
        k(    8) = (  -0.0000000   0.1000000  -0.5000000), wk =   0.0066667
        k(    9) = (  -0.0000000   0.2000000   0.0000000), wk =   0.0066667
        k(   10) = (  -0.0000000   0.2000000   0.1666667), wk =   0.0133333
        k(   11) = (  -0.0000000   0.2000000   0.3333333), wk =   0.0133333
        k(   12) = (  -0.0000000   0.2000000  -0.5000000), wk =   0.0066667
        k(   13) = (  -0.0000000   0.3000000   0.0000000), wk =   0.0066667
        k(   14) = (  -0.0000000   0.3000000   0.1666667), wk =   0.0133333
        k(   15) = (  -0.0000000   0.3000000   0.3333333), wk =   0.0133333
        k(   16) = (  -0.0000000   0.3000000  -0.5000000), wk =   0.0066667
        k(   17) = (  -0.0000000   0.4000000   0.0000000), wk =   0.0066667
        k(   18) = (  -0.0000000   0.4000000   0.1666667), wk =   0.0133333
        k(   19) = (  -0.0000000   0.4000000   0.3333333), wk =   0.0133333
        k(   20) = (  -0.0000000   0.4000000  -0.5000000), wk =   0.0066667
        k(   21) = (   0.0000000  -0.5000000   0.0000000), wk =   0.0033333
        k(   22) = (   0.0000000  -0.5000000   0.1666667), wk =   0.0066667
        k(   23) = (   0.0000000  -0.5000000   0.3333333), wk =   0.0066667
        k(   24) = (   0.0000000  -0.5000000  -0.5000000), wk =   0.0033333
        k(   25) = (   0.1000000   0.1000000   0.0000000), wk =   0.0033333
        k(   26) = (   0.1000000   0.1000000   0.1666667), wk =   0.0066667
        k(   27) = (   0.1000000   0.1000000   0.3333333), wk =   0.0066667
        k(   28) = (   0.1000000   0.1000000  -0.5000000), wk =   0.0033333
        k(   29) = (   0.1000000   0.2000000   0.0000000), wk =   0.0066667
        k(   30) = (   0.1000000   0.2000000   0.1666667), wk =   0.0133333
        k(   31) = (   0.1000000   0.2000000   0.3333333), wk =   0.0133333
        k(   32) = (   0.1000000   0.2000000  -0.5000000), wk =   0.0066667
        k(   33) = (   0.1000000   0.3000000   0.0000000), wk =   0.0066667
        k(   34) = (   0.1000000   0.3000000   0.1666667), wk =   0.0133333
        k(   35) = (   0.1000000   0.3000000   0.3333333), wk =   0.0133333
        k(   36) = (   0.1000000   0.3000000  -0.5000000), wk =   0.0066667
        k(   37) = (   0.1000000   0.4000000   0.0000000), wk =   0.0066667
        k(   38) = (   0.1000000   0.4000000   0.1666667), wk =   0.0133333
        k(   39) = (   0.1000000   0.4000000   0.3333333), wk =   0.0133333
        k(   40) = (   0.1000000   0.4000000  -0.5000000), wk =   0.0066667
        k(   41) = (   0.1000000  -0.5000000   0.0000000), wk =   0.0066667
        k(   42) = (   0.1000000  -0.5000000   0.1666667), wk =   0.0133333
        k(   43) = (   0.1000000  -0.5000000   0.3333333), wk =   0.0133333
        k(   44) = (   0.1000000  -0.5000000  -0.5000000), wk =   0.0066667
        k(   45) = (   0.1000000  -0.4000000   0.0000000), wk =   0.0066667
        k(   46) = (   0.1000000  -0.4000000   0.1666667), wk =   0.0133333
        k(   47) = (   0.1000000  -0.4000000   0.3333333), wk =   0.0133333
        k(   48) = (   0.1000000  -0.4000000  -0.5000000), wk =   0.0066667
        k(   49) = (   0.1000000  -0.3000000   0.0000000), wk =   0.0066667
        k(   50) = (   0.1000000  -0.3000000   0.1666667), wk =   0.0133333
        k(   51) = (   0.1000000  -0.3000000   0.3333333), wk =   0.0133333
        k(   52) = (   0.1000000  -0.3000000  -0.5000000), wk =   0.0066667
        k(   53) = (   0.1000000  -0.2000000   0.0000000), wk =   0.0066667
        k(   54) = (   0.1000000  -0.2000000   0.1666667), wk =   0.0133333
        k(   55) = (   0.1000000  -0.2000000   0.3333333), wk =   0.0133333
        k(   56) = (   0.1000000  -0.2000000  -0.5000000), wk =   0.0066667
        k(   57) = (   0.1000000  -0.1000000   0.0000000), wk =   0.0033333
        k(   58) = (   0.1000000  -0.1000000   0.1666667), wk =   0.0066667
        k(   59) = (   0.1000000  -0.1000000   0.3333333), wk =   0.0066667
        k(   60) = (   0.1000000  -0.1000000  -0.5000000), wk =   0.0033333
        k(   61) = (   0.2000000   0.2000000   0.0000000), wk =   0.0033333
        k(   62) = (   0.2000000   0.2000000   0.1666667), wk =   0.0066667
        k(   63) = (   0.2000000   0.2000000   0.3333333), wk =   0.0066667
        k(   64) = (   0.2000000   0.2000000  -0.5000000), wk =   0.0033333
        k(   65) = (   0.2000000   0.3000000   0.0000000), wk =   0.0066667
        k(   66) = (   0.2000000   0.3000000   0.1666667), wk =   0.0133333
        k(   67) = (   0.2000000   0.3000000   0.3333333), wk =   0.0133333
        k(   68) = (   0.2000000   0.3000000  -0.5000000), wk =   0.0066667
        k(   69) = (   0.2000000   0.4000000   0.0000000), wk =   0.0066667
        k(   70) = (   0.2000000   0.4000000   0.1666667), wk =   0.0133333
        k(   71) = (   0.2000000   0.4000000   0.3333333), wk =   0.0133333
        k(   72) = (   0.2000000   0.4000000  -0.5000000), wk =   0.0066667
        k(   73) = (   0.2000000  -0.5000000   0.0000000), wk =   0.0066667
        k(   74) = (   0.2000000  -0.5000000   0.1666667), wk =   0.0133333
        k(   75) = (   0.2000000  -0.5000000   0.3333333), wk =   0.0133333
        k(   76) = (   0.2000000  -0.5000000  -0.5000000), wk =   0.0066667
        k(   77) = (   0.2000000  -0.4000000   0.0000000), wk =   0.0066667
        k(   78) = (   0.2000000  -0.4000000   0.1666667), wk =   0.0133333
        k(   79) = (   0.2000000  -0.4000000   0.3333333), wk =   0.0133333
        k(   80) = (   0.2000000  -0.4000000  -0.5000000), wk =   0.0066667
        k(   81) = (   0.2000000  -0.3000000   0.0000000), wk =   0.0066667
        k(   82) = (   0.2000000  -0.3000000   0.1666667), wk =   0.0133333
        k(   83) = (   0.2000000  -0.3000000   0.3333333), wk =   0.0133333
        k(   84) = (   0.2000000  -0.3000000  -0.5000000), wk =   0.0066667
        k(   85) = (   0.2000000  -0.2000000   0.0000000), wk =   0.0033333
        k(   86) = (   0.2000000  -0.2000000   0.1666667), wk =   0.0066667
        k(   87) = (   0.2000000  -0.2000000   0.3333333), wk =   0.0066667
        k(   88) = (   0.2000000  -0.2000000  -0.5000000), wk =   0.0033333
        k(   89) = (   0.3000000   0.3000000   0.0000000), wk =   0.0033333
        k(   90) = (   0.3000000   0.3000000   0.1666667), wk =   0.0066667
        k(   91) = (   0.3000000   0.3000000   0.3333333), wk =   0.0066667
        k(   92) = (   0.3000000   0.3000000  -0.5000000), wk =   0.0033333
        k(   93) = (   0.3000000   0.4000000   0.0000000), wk =   0.0066667
        k(   94) = (   0.3000000   0.4000000   0.1666667), wk =   0.0133333
        k(   95) = (   0.3000000   0.4000000   0.3333333), wk =   0.0133333
        k(   96) = (   0.3000000   0.4000000  -0.5000000), wk =   0.0066667
        k(   97) = (   0.3000000  -0.5000000   0.0000000), wk =   0.0066667
        k(   98) = (   0.3000000  -0.5000000   0.1666667), wk =   0.0133333
        k(   99) = (   0.3000000  -0.5000000   0.3333333), wk =   0.0133333
        k(  100) = (   0.3000000  -0.5000000  -0.5000000), wk =   0.0066667
        k(  101) = (   0.3000000  -0.4000000   0.0000000), wk =   0.0066667
        k(  102) = (   0.3000000  -0.4000000   0.1666667), wk =   0.0133333
        k(  103) = (   0.3000000  -0.4000000   0.3333333), wk =   0.0133333
        k(  104) = (   0.3000000  -0.4000000  -0.5000000), wk =   0.0066667
        k(  105) = (   0.3000000  -0.3000000   0.0000000), wk =   0.0033333
        k(  106) = (   0.3000000  -0.3000000   0.1666667), wk =   0.0066667
        k(  107) = (   0.3000000  -0.3000000   0.3333333), wk =   0.0066667
        k(  108) = (   0.3000000  -0.3000000  -0.5000000), wk =   0.0033333
        k(  109) = (   0.4000000   0.4000000   0.0000000), wk =   0.0033333
        k(  110) = (   0.4000000   0.4000000   0.1666667), wk =   0.0066667
        k(  111) = (   0.4000000   0.4000000   0.3333333), wk =   0.0066667
        k(  112) = (   0.4000000   0.4000000  -0.5000000), wk =   0.0033333
        k(  113) = (   0.4000000  -0.5000000   0.0000000), wk =   0.0066667
        k(  114) = (   0.4000000  -0.5000000   0.1666667), wk =   0.0133333
        k(  115) = (   0.4000000  -0.5000000   0.3333333), wk =   0.0133333
        k(  116) = (   0.4000000  -0.5000000  -0.5000000), wk =   0.0066667
        k(  117) = (   0.4000000  -0.4000000   0.0000000), wk =   0.0033333
        k(  118) = (   0.4000000  -0.4000000   0.1666667), wk =   0.0066667
        k(  119) = (   0.4000000  -0.4000000   0.3333333), wk =   0.0066667
        k(  120) = (   0.4000000  -0.4000000  -0.5000000), wk =   0.0033333
        k(  121) = (  -0.5000000  -0.5000000   0.0000000), wk =   0.0016667
        k(  122) = (  -0.5000000  -0.5000000   0.1666667), wk =   0.0033333
        k(  123) = (  -0.5000000  -0.5000000   0.3333333), wk =   0.0033333
        k(  124) = (  -0.5000000  -0.5000000  -0.5000000), wk =   0.0016667

     Dense  grid:   385727 G-vectors     FFT dimensions: ( 120, 120, 108)

     Smooth grid:   136307 G-vectors     FFT dimensions: (  90,  90,  80)

     Dynamical RAM for                 wfc:      13.00 MB

     Dynamical RAM for     wfc (w. buffer):    3237.88 MB

     Dynamical RAM for           str. fact:      17.66 MB

     Dynamical RAM for           local pot:       0.00 MB

     Dynamical RAM for          nlocal pot:      37.45 MB

     Dynamical RAM for                qrad:       7.03 MB

     Dynamical RAM for          rho,v,vnew:     106.51 MB

     Dynamical RAM for               rhoin:      35.50 MB

     Dynamical RAM for            rho*nmix:     188.34 MB

     Dynamical RAM for           G-vectors:      23.11 MB

     Dynamical RAM for          h,s,v(r/c):       0.46 MB

     Dynamical RAM for          <psi|beta>:       0.11 MB

     Dynamical RAM for                 psi:      26.01 MB

     Dynamical RAM for                hpsi:      26.01 MB

     Dynamical RAM for                spsi:      26.01 MB

     Dynamical RAM for      wfcinit/wfcrot:      26.06 MB

     Dynamical RAM for           addusdens:    1236.00 MB

     Dynamical RAM for          addusforce:    1271.35 MB

     Dynamical RAM for         addusstress:    1303.69 MB

     Estimated static dynamical RAM per process >       3.48 GB

     Estimated max dynamical RAM per process >       4.93 GB

     Atomic positions and unit cell read from directory:
     ./out/aiida.save/
 
     Generating pointlists ...
     new r_m :   0.1253 (alat units)  2.1316 (a.u.) for type    1
     new r_m :   0.1457 (alat units)  2.4777 (a.u.) for type    2
     new r_m :   0.1253 (alat units)  2.1316 (a.u.) for type    3

     The initial density is read from file :
     ./out/aiida.save/charge-density


     starting charge      84.0007, renormalised to      84.0000

     negative rho (up, down):  9.072E-01 1.641E+00
     Starting wfcs from file
     Checking if some PAW data can be deallocated... 

     total cpu time spent up to now is        8.8 secs

     per-process dynamical memory:   675.7 Mb

     Self-consistent Calculation
[tb_dev] Currently allocated     7.63E-05 Mbytes, locked:    0 /   2
[tb_pin] Currently allocated     0.00E+00 Mbytes, locked:    0 /   0

     iteration #  1     ecut=    60.00 Ry     beta= 0.10
     Davidson diagonalization with overlap

---- Real-time Memory Report at c_bands before calling an iterative solver
          1090 MiB given to the printing process from OS
           693 MiB allocation reported by mallinfo(arena+hblkhd)
         58797 MiB available memory on the node where the printing process lives
     GPU memory used/free/total (MiB): 2004 / 14276 / 16280
------------------
     ethr =  1.00E-05,  avg # of iterations =  4.3

     negative rho (up, down):  8.998E-01 1.631E+00

     total cpu time spent up to now is       42.7 secs

     WARNING: integrated charge=    84.00007026, expected=    84.00000000

     total energy              =   -2035.49608571 Ry
     estimated scf accuracy    <       0.01652832 Ry

     total magnetization       =    -0.00 Bohr mag/cell
     absolute magnetization    =     2.64 Bohr mag/cell
[tb_dev] Currently allocated     2.97E+01 Mbytes, locked:    0 /  17
[tb_pin] Currently allocated     0.00E+00 Mbytes, locked:    0 /   0

     iteration #  2     ecut=    60.00 Ry     beta= 0.10
     Davidson diagonalization with overlap

---- Real-time Memory Report at c_bands before calling an iterative solver
          5015 MiB given to the printing process from OS
           205 MiB allocation reported by mallinfo(arena+hblkhd)
         51108 MiB available memory on the node where the printing process lives
     GPU memory used/free/total (MiB): 5174 / 11106 / 16280
------------------
     ethr =  1.97E-05,  avg # of iterations =  4.1

     negative rho (up, down):  9.011E-01 1.636E+00

     total cpu time spent up to now is       71.2 secs

     WARNING: integrated charge=    84.00010180, expected=    84.00000000

     total energy              =   -2035.49164935 Ry
     estimated scf accuracy    <       0.01710256 Ry

     total magnetization       =    -0.00 Bohr mag/cell
     absolute magnetization    =     2.74 Bohr mag/cell
[tb_dev] Currently allocated     2.97E+01 Mbytes, locked:    0 /  17
[tb_pin] Currently allocated     0.00E+00 Mbytes, locked:    0 /   0

     iteration #  3     ecut=    60.00 Ry     beta= 0.10
     Davidson diagonalization with overlap

---- Real-time Memory Report at c_bands before calling an iterative solver
          5123 MiB given to the printing process from OS
           230 MiB allocation reported by mallinfo(arena+hblkhd)
         51082 MiB available memory on the node where the printing process lives
     GPU memory used/free/total (MiB): 5174 / 11106 / 16280
------------------
     ethr =  1.97E-05,  avg # of iterations =  2.0

     negative rho (up, down):  9.019E-01 1.636E+00

     total cpu time spent up to now is       95.1 secs

     WARNING: integrated charge=    84.00011976, expected=    84.00000000

     total energy              =   -2035.49196976 Ry
     estimated scf accuracy    <       0.00931701 Ry

     total magnetization       =    -0.00 Bohr mag/cell
     absolute magnetization    =     2.80 Bohr mag/cell
[tb_dev] Currently allocated     2.97E+01 Mbytes, locked:    0 /  17
[tb_pin] Currently allocated     0.00E+00 Mbytes, locked:    0 /   0

     iteration #  4     ecut=    60.00 Ry     beta= 0.10
     Davidson diagonalization with overlap

---- Real-time Memory Report at c_bands before calling an iterative solver
          5229 MiB given to the printing process from OS
           251 MiB allocation reported by mallinfo(arena+hblkhd)
         51062 MiB available memory on the node where the printing process lives
     GPU memory used/free/total (MiB): 5174 / 11106 / 16280
------------------
     ethr =  1.11E-05,  avg # of iterations =  1.9

     negative rho (up, down):  9.032E-01 1.635E+00

     total cpu time spent up to now is      118.9 secs

     WARNING: integrated charge=    84.00014870, expected=    84.00000000

     total energy              =   -2035.49219417 Ry
     estimated scf accuracy    <       0.00148552 Ry

     total magnetization       =    -0.00 Bohr mag/cell
     absolute magnetization    =     2.76 Bohr mag/cell
[tb_dev] Currently allocated     2.97E+01 Mbytes, locked:    0 /  17
[tb_pin] Currently allocated     0.00E+00 Mbytes, locked:    0 /   0

     iteration #  5     ecut=    60.00 Ry     beta= 0.10
     Davidson diagonalization with overlap

---- Real-time Memory Report at c_bands before calling an iterative solver
          5301 MiB given to the printing process from OS
           272 MiB allocation reported by mallinfo(arena+hblkhd)
         51045 MiB available memory on the node where the printing process lives
     GPU memory used/free/total (MiB): 5174 / 11106 / 16280
------------------
     ethr =  1.77E-06,  avg # of iterations =  1.9

     negative rho (up, down):  9.017E-01 1.638E+00

     total cpu time spent up to now is      142.4 secs

     WARNING: integrated charge=    84.00009944, expected=    84.00000000

     total energy              =   -2035.49191518 Ry
     estimated scf accuracy    <       0.00142772 Ry

     total magnetization       =    -0.00 Bohr mag/cell
     absolute magnetization    =     2.71 Bohr mag/cell
[tb_dev] Currently allocated     2.97E+01 Mbytes, locked:    0 /  17
[tb_pin] Currently allocated     0.00E+00 Mbytes, locked:    0 /   0

     iteration #  6     ecut=    60.00 Ry     beta= 0.10
     Davidson diagonalization with overlap

---- Real-time Memory Report at c_bands before calling an iterative solver
          5334 MiB given to the printing process from OS
           289 MiB allocation reported by mallinfo(arena+hblkhd)
         51029 MiB available memory on the node where the printing process lives
     GPU memory used/free/total (MiB): 5174 / 11106 / 16280
------------------
     ethr =  1.70E-06,  avg # of iterations =  1.5

     negative rho (up, down):  9.014E-01 1.639E+00

     total cpu time spent up to now is      166.1 secs

     WARNING: integrated charge=    84.00008870, expected=    84.00000000

     total energy              =   -2035.49207795 Ry
     estimated scf accuracy    <       0.00089948 Ry

     total magnetization       =    -0.00 Bohr mag/cell
     absolute magnetization    =     2.76 Bohr mag/cell
[tb_dev] Currently allocated     2.97E+01 Mbytes, locked:    0 /  17
[tb_pin] Currently allocated     0.00E+00 Mbytes, locked:    0 /   0

     iteration #  7     ecut=    60.00 Ry     beta= 0.10
     Davidson diagonalization with overlap

---- Real-time Memory Report at c_bands before calling an iterative solver
          5354 MiB given to the printing process from OS
           310 MiB allocation reported by mallinfo(arena+hblkhd)
         51007 MiB available memory on the node where the printing process lives
     GPU memory used/free/total (MiB): 5174 / 11106 / 16280
------------------
     ethr =  1.07E-06,  avg # of iterations =  3.5

     negative rho (up, down):  9.021E-01 1.638E+00

     total cpu time spent up to now is      192.7 secs

     WARNING: integrated charge=    84.00010928, expected=    84.00000000

     total energy              =   -2035.49228989 Ry
     estimated scf accuracy    <       0.00685777 Ry

     total magnetization       =    -0.00 Bohr mag/cell
     absolute magnetization    =     2.65 Bohr mag/cell
[tb_dev] Currently allocated     2.97E+01 Mbytes, locked:    0 /  17
[tb_pin] Currently allocated     0.00E+00 Mbytes, locked:    0 /   0

     iteration #  8     ecut=    60.00 Ry     beta= 0.10
     Davidson diagonalization with overlap

---- Real-time Memory Report at c_bands before calling an iterative solver
          5375 MiB given to the printing process from OS
           331 MiB allocation reported by mallinfo(arena+hblkhd)
         50987 MiB available memory on the node where the printing process lives
     GPU memory used/free/total (MiB): 5174 / 11106 / 16280
------------------
     ethr =  1.07E-06,  avg # of iterations =  1.0

     negative rho (up, down):  9.027E-01 1.635E+00

     total cpu time spent up to now is      215.0 secs

     WARNING: integrated charge=    84.00017642, expected=    84.00000000

     total energy              =   -2035.49226330 Ry
     estimated scf accuracy    <       0.00625418 Ry

     total magnetization       =    -0.00 Bohr mag/cell
     absolute magnetization    =     2.65 Bohr mag/cell
[tb_dev] Currently allocated     2.97E+01 Mbytes, locked:    0 /  17
[tb_pin] Currently allocated     0.00E+00 Mbytes, locked:    0 /   0

     iteration #  9     ecut=    60.00 Ry     beta= 0.10
     Davidson diagonalization with overlap

---- Real-time Memory Report at c_bands before calling an iterative solver
          5396 MiB given to the printing process from OS
           352 MiB allocation reported by mallinfo(arena+hblkhd)
         50966 MiB available memory on the node where the printing process lives
     GPU memory used/free/total (MiB): 5174 / 11106 / 16280
------------------
     ethr =  1.07E-06,  avg # of iterations =  1.8

     negative rho (up, down):  9.023E-01 1.637E+00

     total cpu time spent up to now is      238.5 secs

     WARNING: integrated charge=    84.00014086, expected=    84.00000000

     total energy              =   -2035.49228565 Ry
     estimated scf accuracy    <       0.00826206 Ry

     total magnetization       =    -0.00 Bohr mag/cell
     absolute magnetization    =     2.62 Bohr mag/cell
[tb_dev] Currently allocated     2.97E+01 Mbytes, locked:    0 /  17
[tb_pin] Currently allocated     0.00E+00 Mbytes, locked:    0 /   0

     iteration # 10     ecut=    60.00 Ry     beta= 0.10
     Davidson diagonalization with overlap

---- Real-time Memory Report at c_bands before calling an iterative solver
          5418 MiB given to the printing process from OS
           373 MiB allocation reported by mallinfo(arena+hblkhd)
         50947 MiB available memory on the node where the printing process lives
     GPU memory used/free/total (MiB): 5174 / 11106 / 16280
------------------
     ethr =  1.07E-06,  avg # of iterations =  1.5

     negative rho (up, down):  8.946E-01 1.664E+00

     total cpu time spent up to now is      262.0 secs

     WARNING: integrated charge=    83.99980174, expected=    84.00000000

     total energy              =   -2035.49004554 Ry
     estimated scf accuracy    <       0.00561209 Ry

     total magnetization       =    -0.00 Bohr mag/cell
     absolute magnetization    =     2.65 Bohr mag/cell
[tb_dev] Currently allocated     2.97E+01 Mbytes, locked:    0 /  17
[tb_pin] Currently allocated     0.00E+00 Mbytes, locked:    0 /   0

     iteration # 11     ecut=    60.00 Ry     beta= 0.10
     Davidson diagonalization with overlap

---- Real-time Memory Report at c_bands before calling an iterative solver
          5426 MiB given to the printing process from OS
           382 MiB allocation reported by mallinfo(arena+hblkhd)
         50933 MiB available memory on the node where the printing process lives
     GPU memory used/free/total (MiB): 5174 / 11106 / 16280
------------------
     ethr =  1.07E-06,  avg # of iterations =  5.9

     negative rho (up, down):  8.953E-01 1.664E+00

     total cpu time spent up to now is      298.8 secs

     WARNING: integrated charge=    83.99977670, expected=    84.00000000

     total energy              =   -2035.49307660 Ry
     estimated scf accuracy    <       0.11015912 Ry

     total magnetization       =    -0.00 Bohr mag/cell
     absolute magnetization    =     3.40 Bohr mag/cell
[tb_dev] Currently allocated     2.97E+01 Mbytes, locked:    0 /  17
[tb_pin] Currently allocated     0.00E+00 Mbytes, locked:    0 /   0

     iteration # 12     ecut=    60.00 Ry     beta= 0.10
     Davidson diagonalization with overlap

---- Real-time Memory Report at c_bands before calling an iterative solver
          5434 MiB given to the printing process from OS
           390 MiB allocation reported by mallinfo(arena+hblkhd)
         50930 MiB available memory on the node where the printing process lives
     GPU memory used/free/total (MiB): 5174 / 11106 / 16280
------------------
     ethr =  1.07E-06,  avg # of iterations =  2.7

     negative rho (up, down):  9.037E-01 1.633E+00

     total cpu time spent up to now is      323.8 secs

     WARNING: integrated charge=    84.00026871, expected=    84.00000000

     total energy              =   -2035.48903753 Ry
     estimated scf accuracy    <       0.14075434 Ry

     total magnetization       =    -0.00 Bohr mag/cell
     absolute magnetization    =     3.47 Bohr mag/cell
[tb_dev] Currently allocated     2.97E+01 Mbytes, locked:    0 /  17
[tb_pin] Currently allocated     0.00E+00 Mbytes, locked:    0 /   0

     iteration # 13     ecut=    60.00 Ry     beta= 0.10
     Davidson diagonalization with overlap

---- Real-time Memory Report at c_bands before calling an iterative solver
          5446 MiB given to the printing process from OS
           398 MiB allocation reported by mallinfo(arena+hblkhd)
         50919 MiB available memory on the node where the printing process lives
     GPU memory used/free/total (MiB): 5174 / 11106 / 16280
------------------
     ethr =  1.07E-06,  avg # of iterations =  6.4

     negative rho (up, down):  8.967E-01 1.653E+00

     total cpu time spent up to now is      362.1 secs

     WARNING: integrated charge=    84.00006517, expected=    84.00000000

     total energy              =   -2035.49084670 Ry
     estimated scf accuracy    <       0.01046389 Ry

     total magnetization       =    -0.00 Bohr mag/cell
     absolute magnetization    =     2.62 Bohr mag/cell
[tb_dev] Currently allocated     2.97E+01 Mbytes, locked:    0 /  17
[tb_pin] Currently allocated     0.00E+00 Mbytes, locked:    0 /   0

     iteration # 14     ecut=    60.00 Ry     beta= 0.10
     Davidson diagonalization with overlap

---- Real-time Memory Report at c_bands before calling an iterative solver
          5455 MiB given to the printing process from OS
           407 MiB allocation reported by mallinfo(arena+hblkhd)
         50911 MiB available memory on the node where the printing process lives
     GPU memory used/free/total (MiB): 5174 / 11106 / 16280
------------------
     ethr =  1.07E-06,  avg # of iterations =  5.3

     negative rho (up, down):  8.969E-01 1.654E+00

     total cpu time spent up to now is      396.2 secs

     WARNING: integrated charge=    84.00005057, expected=    84.00000000

     total energy              =   -2035.49212106 Ry
     estimated scf accuracy    <       0.03901998 Ry

     total magnetization       =    -0.00 Bohr mag/cell
     absolute magnetization    =     3.08 Bohr mag/cell
[tb_dev] Currently allocated     2.97E+01 Mbytes, locked:    0 /  17
[tb_pin] Currently allocated     0.00E+00 Mbytes, locked:    0 /   0

     iteration # 15     ecut=    60.00 Ry     beta= 0.10
     Davidson diagonalization with overlap

---- Real-time Memory Report at c_bands before calling an iterative solver
          5463 MiB given to the printing process from OS
           415 MiB allocation reported by mallinfo(arena+hblkhd)
         50904 MiB available memory on the node where the printing process lives
     GPU memory used/free/total (MiB): 5174 / 11106 / 16280
------------------
     ethr =  1.07E-06,  avg # of iterations =  1.0

     negative rho (up, down):  8.972E-01 1.647E+00

     total cpu time spent up to now is      418.3 secs

     WARNING: integrated charge=    84.00017443, expected=    84.00000000

     total energy              =   -2035.49187264 Ry
     estimated scf accuracy    <       0.03925610 Ry

     total magnetization       =    -0.00 Bohr mag/cell
     absolute magnetization    =     3.07 Bohr mag/cell
[tb_dev] Currently allocated     2.97E+01 Mbytes, locked:    0 /  17
[tb_pin] Currently allocated     0.00E+00 Mbytes, locked:    0 /   0

     iteration # 16     ecut=    60.00 Ry     beta= 0.10
     Davidson diagonalization with overlap

---- Real-time Memory Report at c_bands before calling an iterative solver
          5472 MiB given to the printing process from OS
           424 MiB allocation reported by mallinfo(arena+hblkhd)
         50893 MiB available memory on the node where the printing process lives
     GPU memory used/free/total (MiB): 5174 / 11106 / 16280
------------------
     ethr =  1.07E-06,  avg # of iterations =  4.5

     negative rho (up, down):  9.004E-01 1.650E+00

     total cpu time spent up to now is      446.5 secs

     WARNING: integrated charge=    83.99993842, expected=    84.00000000

     total energy              =   -2035.49147671 Ry
     estimated scf accuracy    <       0.01632329 Ry

     total magnetization       =    -0.00 Bohr mag/cell
     absolute magnetization    =     3.07 Bohr mag/cell
[tb_dev] Currently allocated     2.97E+01 Mbytes, locked:    0 /  17
[tb_pin] Currently allocated     0.00E+00 Mbytes, locked:    0 /   0

     iteration # 17     ecut=    60.00 Ry     beta= 0.10
     Davidson diagonalization with overlap

---- Real-time Memory Report at c_bands before calling an iterative solver
          5480 MiB given to the printing process from OS
           432 MiB allocation reported by mallinfo(arena+hblkhd)
         50888 MiB available memory on the node where the printing process lives
     GPU memory used/free/total (MiB): 5174 / 11106 / 16280
------------------
     ethr =  1.07E-06,  avg # of iterations =  3.7

     negative rho (up, down):  8.987E-01 1.644E+00

     total cpu time spent up to now is      473.4 secs

     WARNING: integrated charge=    84.00008702, expected=    84.00000000

     total energy              =   -2035.49157139 Ry
     estimated scf accuracy    <       0.00499538 Ry

     total magnetization       =    -0.00 Bohr mag/cell
     absolute magnetization    =     2.94 Bohr mag/cell
[tb_dev] Currently allocated     2.97E+01 Mbytes, locked:    0 /  17
[tb_pin] Currently allocated     0.00E+00 Mbytes, locked:    0 /   0

     iteration # 18     ecut=    60.00 Ry     beta= 0.10
     Davidson diagonalization with overlap

---- Real-time Memory Report at c_bands before calling an iterative solver
          5488 MiB given to the printing process from OS
           441 MiB allocation reported by mallinfo(arena+hblkhd)
         50877 MiB available memory on the node where the printing process lives
     GPU memory used/free/total (MiB): 5174 / 11106 / 16280
------------------
     ethr =  1.07E-06,  avg # of iterations =  2.9

     negative rho (up, down):  8.973E-01 1.639E+00

     total cpu time spent up to now is      498.6 secs

     WARNING: integrated charge=    84.00012044, expected=    84.00000000

     total energy              =   -2035.49129655 Ry
     estimated scf accuracy    <       0.00332522 Ry

     total magnetization       =    -0.00 Bohr mag/cell
     absolute magnetization    =     2.91 Bohr mag/cell
[tb_dev] Currently allocated     2.97E+01 Mbytes, locked:    0 /  17
[tb_pin] Currently allocated     0.00E+00 Mbytes, locked:    0 /   0

     iteration # 19     ecut=    60.00 Ry     beta= 0.10
     Davidson diagonalization with overlap

---- Real-time Memory Report at c_bands before calling an iterative solver
          5497 MiB given to the printing process from OS
           449 MiB allocation reported by mallinfo(arena+hblkhd)
         50873 MiB available memory on the node where the printing process lives
     GPU memory used/free/total (MiB): 5174 / 11106 / 16280
------------------
     ethr =  1.07E-06,  avg # of iterations =  5.1

     negative rho (up, down):  8.991E-01 1.645E+00

     total cpu time spent up to now is      529.4 secs

     WARNING: integrated charge=    84.00022180, expected=    84.00000000

     total energy              =   -2035.49100965 Ry
     estimated scf accuracy    <       0.03240822 Ry

     total magnetization       =    -0.00 Bohr mag/cell
     absolute magnetization    =     2.71 Bohr mag/cell
[tb_dev] Currently allocated     2.97E+01 Mbytes, locked:    0 /  17
[tb_pin] Currently allocated     0.00E+00 Mbytes, locked:    0 /   0

     iteration # 20     ecut=    60.00 Ry     beta= 0.10
     Davidson diagonalization with overlap

---- Real-time Memory Report at c_bands before calling an iterative solver
          5505 MiB given to the printing process from OS
           457 MiB allocation reported by mallinfo(arena+hblkhd)
         50862 MiB available memory on the node where the printing process lives
     GPU memory used/free/total (MiB): 5174 / 11106 / 16280
------------------
     ethr =  1.07E-06,  avg # of iterations =  5.0

     negative rho (up, down):  8.932E-01 1.648E+00

     total cpu time spent up to now is      563.0 secs

     WARNING: integrated charge=    84.00027993, expected=    84.00000000

     total energy              =   -2035.49114676 Ry
     estimated scf accuracy    <       0.01600772 Ry

     total magnetization       =    -0.00 Bohr mag/cell
     absolute magnetization    =     2.80 Bohr mag/cell
[tb_dev] Currently allocated     2.97E+01 Mbytes, locked:    0 /  17
[tb_pin] Currently allocated     0.00E+00 Mbytes, locked:    0 /   0

     iteration # 21     ecut=    60.00 Ry     beta= 0.10
     Davidson diagonalization with overlap

---- Real-time Memory Report at c_bands before calling an iterative solver
          5514 MiB given to the printing process from OS
           466 MiB allocation reported by mallinfo(arena+hblkhd)
         50851 MiB available memory on the node where the printing process lives
     GPU memory used/free/total (MiB): 5174 / 11106 / 16280
------------------
     ethr =  1.07E-06,  avg # of iterations =  5.3

     negative rho (up, down):  8.922E-01 1.649E+00

     total cpu time spent up to now is      593.9 secs

     WARNING: integrated charge=    84.00030177, expected=    84.00000000

     total energy              =   -2035.49127959 Ry
     estimated scf accuracy    <       0.00199433 Ry

     total magnetization       =    -0.00 Bohr mag/cell
     absolute magnetization    =     2.89 Bohr mag/cell
[tb_dev] Currently allocated     2.97E+01 Mbytes, locked:    0 /  17
[tb_pin] Currently allocated     0.00E+00 Mbytes, locked:    0 /   0

     iteration # 22     ecut=    60.00 Ry     beta= 0.10
     Davidson diagonalization with overlap

---- Real-time Memory Report at c_bands before calling an iterative solver
          5523 MiB given to the printing process from OS
           498 MiB allocation reported by mallinfo(arena+hblkhd)
         50846 MiB available memory on the node where the printing process lives
     GPU memory used/free/total (MiB): 5174 / 11106 / 16280
------------------
     ethr =  1.07E-06,  avg # of iterations =  1.0

     negative rho (up, down):  8.935E-01 1.648E+00

     total cpu time spent up to now is      616.0 secs

     WARNING: integrated charge=    84.00034153, expected=    84.00000000

     total energy              =   -2035.49154552 Ry
     estimated scf accuracy    <       0.00228778 Ry

     total magnetization       =    -0.00 Bohr mag/cell
     absolute magnetization    =     2.90 Bohr mag/cell
[tb_dev] Currently allocated     2.97E+01 Mbytes, locked:    0 /  17
[tb_pin] Currently allocated     0.00E+00 Mbytes, locked:    0 /   0

     iteration # 23     ecut=    60.00 Ry     beta= 0.10
     Davidson diagonalization with overlap

---- Real-time Memory Report at c_bands before calling an iterative solver
          5531 MiB given to the printing process from OS
           506 MiB allocation reported by mallinfo(arena+hblkhd)
         50835 MiB available memory on the node where the printing process lives
     GPU memory used/free/total (MiB): 5174 / 11106 / 16280
------------------
     ethr =  1.07E-06,  avg # of iterations =  1.5

     negative rho (up, down):  8.982E-01 1.647E+00

     total cpu time spent up to now is      639.3 secs

     WARNING: integrated charge=    84.00025930, expected=    84.00000000

     total energy              =   -2035.49178394 Ry
     estimated scf accuracy    <       0.00173719 Ry

     total magnetization       =    -0.00 Bohr mag/cell
     absolute magnetization    =     2.92 Bohr mag/cell
[tb_dev] Currently allocated     2.97E+01 Mbytes, locked:    0 /  17
[tb_pin] Currently allocated     0.00E+00 Mbytes, locked:    0 /   0

     iteration # 24     ecut=    60.00 Ry     beta= 0.10
     Davidson diagonalization with overlap

---- Real-time Memory Report at c_bands before calling an iterative solver
          5540 MiB given to the printing process from OS
           515 MiB allocation reported by mallinfo(arena+hblkhd)
         50825 MiB available memory on the node where the printing process lives
     GPU memory used/free/total (MiB): 5174 / 11106 / 16280
------------------
     ethr =  1.07E-06,  avg # of iterations =  4.7

     negative rho (up, down):  8.960E-01 1.646E+00

     total cpu time spent up to now is      668.3 secs

     WARNING: integrated charge=    84.00026292, expected=    84.00000000

     total energy              =   -2035.49178019 Ry
     estimated scf accuracy    <       0.01022688 Ry

     total magnetization       =    -0.00 Bohr mag/cell
     absolute magnetization    =     2.91 Bohr mag/cell
[tb_dev] Currently allocated     2.97E+01 Mbytes, locked:    0 /  17
[tb_pin] Currently allocated     0.00E+00 Mbytes, locked:    0 /   0

     iteration # 25     ecut=    60.00 Ry     beta= 0.10
     Davidson diagonalization with overlap

---- Real-time Memory Report at c_bands before calling an iterative solver
          5548 MiB given to the printing process from OS
           523 MiB allocation reported by mallinfo(arena+hblkhd)
         50819 MiB available memory on the node where the printing process lives
     GPU memory used/free/total (MiB): 5174 / 11106 / 16280
------------------
     ethr =  1.07E-06,  avg # of iterations =  1.5

     negative rho (up, down):  8.940E-01 1.650E+00

     total cpu time spent up to now is      691.3 secs

     WARNING: integrated charge=    84.00026906, expected=    84.00000000

     total energy              =   -2035.49143918 Ry
     estimated scf accuracy    <       0.00687007 Ry

     total magnetization       =    -0.00 Bohr mag/cell
     absolute magnetization    =     2.90 Bohr mag/cell
[tb_dev] Currently allocated     2.97E+01 Mbytes, locked:    0 /  17
[tb_pin] Currently allocated     0.00E+00 Mbytes, locked:    0 /   0

     iteration # 26     ecut=    60.00 Ry     beta= 0.10
     Davidson diagonalization with overlap

---- Real-time Memory Report at c_bands before calling an iterative solver
          5557 MiB given to the printing process from OS
           532 MiB allocation reported by mallinfo(arena+hblkhd)
         50808 MiB available memory on the node where the printing process lives
     GPU memory used/free/total (MiB): 5174 / 11106 / 16280
------------------
     ethr =  1.07E-06,  avg # of iterations =  3.8

     negative rho (up, down):  8.908E-01 1.648E+00

     total cpu time spent up to now is      719.4 secs

     WARNING: integrated charge=    84.00040985, expected=    84.00000000

     total energy              =   -2035.49137704 Ry
     estimated scf accuracy    <       0.00367000 Ry

     total magnetization       =    -0.00 Bohr mag/cell
     absolute magnetization    =     2.96 Bohr mag/cell
[tb_dev] Currently allocated     2.97E+01 Mbytes, locked:    0 /  17
[tb_pin] Currently allocated     0.00E+00 Mbytes, locked:    0 /   0

     iteration # 27     ecut=    60.00 Ry     beta= 0.10
     Davidson diagonalization with overlap

---- Real-time Memory Report at c_bands before calling an iterative solver
          5569 MiB given to the printing process from OS
           540 MiB allocation reported by mallinfo(arena+hblkhd)
         50796 MiB available memory on the node where the printing process lives
     GPU memory used/free/total (MiB): 5174 / 11106 / 16280
------------------
     ethr =  1.07E-06,  avg # of iterations =  2.8

     negative rho (up, down):  8.967E-01 1.645E+00

     total cpu time spent up to now is      744.7 secs

     WARNING: integrated charge=    84.00024601, expected=    84.00000000

     total energy              =   -2035.49165632 Ry
     estimated scf accuracy    <       0.00179321 Ry

     total magnetization       =    -0.00 Bohr mag/cell
     absolute magnetization    =     2.91 Bohr mag/cell
[tb_dev] Currently allocated     2.97E+01 Mbytes, locked:    0 /  17
[tb_pin] Currently allocated     0.00E+00 Mbytes, locked:    0 /   0

     iteration # 28     ecut=    60.00 Ry     beta= 0.10
     Davidson diagonalization with overlap

---- Real-time Memory Report at c_bands before calling an iterative solver
          5578 MiB given to the printing process from OS
           548 MiB allocation reported by mallinfo(arena+hblkhd)
         50795 MiB available memory on the node where the printing process lives
     GPU memory used/free/total (MiB): 5174 / 11106 / 16280
------------------
     ethr =  1.07E-06,  avg # of iterations =  3.1

     negative rho (up, down):  8.956E-01 1.647E+00

     total cpu time spent up to now is      770.7 secs

     WARNING: integrated charge=    84.00019281, expected=    84.00000000

     total energy              =   -2035.49152626 Ry
     estimated scf accuracy    <       0.00296985 Ry

     total magnetization       =    -0.00 Bohr mag/cell
     absolute magnetization    =     2.93 Bohr mag/cell
[tb_dev] Currently allocated     2.97E+01 Mbytes, locked:    0 /  17
[tb_pin] Currently allocated     0.00E+00 Mbytes, locked:    0 /   0

     iteration # 29     ecut=    60.00 Ry     beta= 0.10
     Davidson diagonalization with overlap

---- Real-time Memory Report at c_bands before calling an iterative solver
          5586 MiB given to the printing process from OS
           557 MiB allocation reported by mallinfo(arena+hblkhd)
         50784 MiB available memory on the node where the printing process lives
     GPU memory used/free/total (MiB): 5174 / 11106 / 16280
------------------
     ethr =  1.07E-06,  avg # of iterations =  1.5

     negative rho (up, down):  8.992E-01 1.651E+00

     total cpu time spent up to now is      793.6 secs

     WARNING: integrated charge=    84.00012239, expected=    84.00000000

     total energy              =   -2035.49129409 Ry
     estimated scf accuracy    <       0.00193379 Ry

     total magnetization       =    -0.00 Bohr mag/cell
     absolute magnetization    =     2.92 Bohr mag/cell
[tb_dev] Currently allocated     2.97E+01 Mbytes, locked:    0 /  17
[tb_pin] Currently allocated     0.00E+00 Mbytes, locked:    0 /   0

     iteration # 30     ecut=    60.00 Ry     beta= 0.10
     Davidson diagonalization with overlap

---- Real-time Memory Report at c_bands before calling an iterative solver
          5595 MiB given to the printing process from OS
           565 MiB allocation reported by mallinfo(arena+hblkhd)
         50778 MiB available memory on the node where the printing process lives
     GPU memory used/free/total (MiB): 5174 / 11106 / 16280
------------------
     ethr =  1.07E-06,  avg # of iterations =  3.0

     negative rho (up, down):  9.036E-01 1.649E+00

     total cpu time spent up to now is      819.3 secs

     WARNING: integrated charge=    84.00001137, expected=    84.00000000

     total energy              =   -2035.49170048 Ry
     estimated scf accuracy    <       0.00267347 Ry

     total magnetization       =    -0.00 Bohr mag/cell
     absolute magnetization    =     2.88 Bohr mag/cell
[tb_dev] Currently allocated     2.97E+01 Mbytes, locked:    0 /  17
[tb_pin] Currently allocated     0.00E+00 Mbytes, locked:    0 /   0

     iteration # 31     ecut=    60.00 Ry     beta= 0.10
     Davidson diagonalization with overlap

---- Real-time Memory Report at c_bands before calling an iterative solver
          5603 MiB given to the printing process from OS
           574 MiB allocation reported by mallinfo(arena+hblkhd)
         50765 MiB available memory on the node where the printing process lives
     GPU memory used/free/total (MiB): 5174 / 11106 / 16280
------------------
     ethr =  1.07E-06,  avg # of iterations =  2.4

     negative rho (up, down):  9.042E-01 1.645E+00

     total cpu time spent up to now is      843.8 secs

     WARNING: integrated charge=    84.00004472, expected=    84.00000000

     total energy              =   -2035.49192385 Ry
     estimated scf accuracy    <       0.00731825 Ry

     total magnetization       =    -0.00 Bohr mag/cell
     absolute magnetization    =     2.86 Bohr mag/cell
[tb_dev] Currently allocated     2.97E+01 Mbytes, locked:    0 /  17
[tb_pin] Currently allocated     0.00E+00 Mbytes, locked:    0 /   0

     iteration # 32     ecut=    60.00 Ry     beta= 0.10
     Davidson diagonalization with overlap

---- Real-time Memory Report at c_bands before calling an iterative solver
          5612 MiB given to the printing process from OS
           582 MiB allocation reported by mallinfo(arena+hblkhd)
         50761 MiB available memory on the node where the printing process lives
     GPU memory used/free/total (MiB): 5174 / 11106 / 16280
------------------
     ethr =  1.07E-06,  avg # of iterations =  2.5

     negative rho (up, down):  9.049E-01 1.635E+00

     total cpu time spent up to now is      868.8 secs

     WARNING: integrated charge=    84.00001299, expected=    84.00000000

     total energy              =   -2035.49264870 Ry
     estimated scf accuracy    <       0.00672655 Ry

     total magnetization       =    -0.00 Bohr mag/cell
     absolute magnetization    =     2.77 Bohr mag/cell
[tb_dev] Currently allocated     2.97E+01 Mbytes, locked:    0 /  17
[tb_pin] Currently allocated     0.00E+00 Mbytes, locked:    0 /   0

     iteration # 33     ecut=    60.00 Ry     beta= 0.10
     Davidson diagonalization with overlap

---- Real-time Memory Report at c_bands before calling an iterative solver
          5620 MiB given to the printing process from OS
           591 MiB allocation reported by mallinfo(arena+hblkhd)
         50754 MiB available memory on the node where the printing process lives
     GPU memory used/free/total (MiB): 5174 / 11106 / 16280
------------------
     ethr =  1.07E-06,  avg # of iterations =  3.5

     negative rho (up, down):  8.894E-01 1.652E+00

     total cpu time spent up to now is      895.4 secs

     WARNING: integrated charge=    84.00028992, expected=    84.00000000

     total energy              =   -2035.49065372 Ry
     estimated scf accuracy    <       0.00648065 Ry

     total magnetization       =    -0.00 Bohr mag/cell
     absolute magnetization    =     2.69 Bohr mag/cell
[tb_dev] Currently allocated     2.97E+01 Mbytes, locked:    0 /  17
[tb_pin] Currently allocated     0.00E+00 Mbytes, locked:    0 /   0

     iteration # 34     ecut=    60.00 Ry     beta= 0.10
     Davidson diagonalization with overlap

---- Real-time Memory Report at c_bands before calling an iterative solver
          5629 MiB given to the printing process from OS
           599 MiB allocation reported by mallinfo(arena+hblkhd)
         50741 MiB available memory on the node where the printing process lives
     GPU memory used/free/total (MiB): 5174 / 11106 / 16280
------------------
     ethr =  1.07E-06,  avg # of iterations =  4.8

     negative rho (up, down):  8.919E-01 1.658E+00

     total cpu time spent up to now is      925.6 secs

     WARNING: integrated charge=    84.00028724, expected=    84.00000000

     total energy              =   -2035.49056255 Ry
     estimated scf accuracy    <       0.00984598 Ry

     total magnetization       =    -0.00 Bohr mag/cell
     absolute magnetization    =     2.90 Bohr mag/cell
[tb_dev] Currently allocated     2.97E+01 Mbytes, locked:    0 /  17
[tb_pin] Currently allocated     0.00E+00 Mbytes, locked:    0 /   0

     iteration # 35     ecut=    60.00 Ry     beta= 0.10
     Davidson diagonalization with overlap

---- Real-time Memory Report at c_bands before calling an iterative solver
          5637 MiB given to the printing process from OS
           607 MiB allocation reported by mallinfo(arena+hblkhd)
         50737 MiB available memory on the node where the printing process lives
     GPU memory used/free/total (MiB): 5174 / 11106 / 16280
------------------
     ethr =  1.07E-06,  avg # of iterations =  4.2

     negative rho (up, down):  8.966E-01 1.665E+00

     total cpu time spent up to now is      954.2 secs

     WARNING: integrated charge=    84.00011996, expected=    84.00000000

     total energy              =   -2035.49098111 Ry
     estimated scf accuracy    <       0.00887747 Ry

     total magnetization       =    -0.00 Bohr mag/cell
     absolute magnetization    =     3.05 Bohr mag/cell
[tb_dev] Currently allocated     2.97E+01 Mbytes, locked:    0 /  17
[tb_pin] Currently allocated     0.00E+00 Mbytes, locked:    0 /   0

     iteration # 36     ecut=    60.00 Ry     beta= 0.10
     Davidson diagonalization with overlap

---- Real-time Memory Report at c_bands before calling an iterative solver
          5646 MiB given to the printing process from OS
           616 MiB allocation reported by mallinfo(arena+hblkhd)
         50716 MiB available memory on the node where the printing process lives
     GPU memory used/free/total (MiB): 5174 / 11106 / 16280
------------------
     ethr =  1.07E-06,  avg # of iterations =  4.5

     negative rho (up, down):  8.849E-01 1.667E+00

     total cpu time spent up to now is      983.0 secs

     WARNING: integrated charge=    84.00031876, expected=    84.00000000

     total energy              =   -2035.49075540 Ry
     estimated scf accuracy    <       0.01771841 Ry

     total magnetization       =    -0.00 Bohr mag/cell
     absolute magnetization    =     2.94 Bohr mag/cell
[tb_dev] Currently allocated     2.97E+01 Mbytes, locked:    0 /  17
[tb_pin] Currently allocated     0.00E+00 Mbytes, locked:    0 /   0

     iteration # 37     ecut=    60.00 Ry     beta= 0.10
     Davidson diagonalization with overlap

---- Real-time Memory Report at c_bands before calling an iterative solver
          5654 MiB given to the printing process from OS
           624 MiB allocation reported by mallinfo(arena+hblkhd)
         50703 MiB available memory on the node where the printing process lives
     GPU memory used/free/total (MiB): 5174 / 11106 / 16280
------------------
     ethr =  1.07E-06,  avg # of iterations =  4.6

     negative rho (up, down):  8.933E-01 1.666E+00

     total cpu time spent up to now is     1013.3 secs

     WARNING: integrated charge=    84.00014059, expected=    84.00000000

     total energy              =   -2035.49035205 Ry
     estimated scf accuracy    <       0.06777073 Ry

     total magnetization       =    -0.00 Bohr mag/cell
     absolute magnetization    =     3.28 Bohr mag/cell
[tb_dev] Currently allocated     2.97E+01 Mbytes, locked:    0 /  17
[tb_pin] Currently allocated     0.00E+00 Mbytes, locked:    0 /   0

     iteration # 38     ecut=    60.00 Ry     beta= 0.10
     Davidson diagonalization with overlap

---- Real-time Memory Report at c_bands before calling an iterative solver
          5662 MiB given to the printing process from OS
           633 MiB allocation reported by mallinfo(arena+hblkhd)
         50701 MiB available memory on the node where the printing process lives
     GPU memory used/free/total (MiB): 5174 / 11106 / 16280
------------------
     ethr =  1.07E-06,  avg # of iterations =  5.0

     negative rho (up, down):  8.933E-01 1.666E+00

     total cpu time spent up to now is     1044.7 secs

     WARNING: integrated charge=    84.00013774, expected=    84.00000000

     total energy              =   -2035.49095093 Ry
     estimated scf accuracy    <       0.01113100 Ry

     total magnetization       =    -0.00 Bohr mag/cell
     absolute magnetization    =     2.99 Bohr mag/cell
[tb_dev] Currently allocated     2.97E+01 Mbytes, locked:    0 /  17
[tb_pin] Currently allocated     0.00E+00 Mbytes, locked:    0 /   0

     iteration # 39     ecut=    60.00 Ry     beta= 0.10
     Davidson diagonalization with overlap

---- Real-time Memory Report at c_bands before calling an iterative solver
          5670 MiB given to the printing process from OS
           641 MiB allocation reported by mallinfo(arena+hblkhd)
         50694 MiB available memory on the node where the printing process lives
     GPU memory used/free/total (MiB): 5174 / 11106 / 16280
------------------
     ethr =  1.07E-06,  avg # of iterations =  1.0

     negative rho (up, down):  9.035E-01 1.662E+00

     total cpu time spent up to now is     1066.8 secs

     WARNING: integrated charge=    83.99998862, expected=    84.00000000

     total energy              =   -2035.49120154 Ry
     estimated scf accuracy    <       0.01130111 Ry

     total magnetization       =    -0.00 Bohr mag/cell
     absolute magnetization    =     2.99 Bohr mag/cell
[tb_dev] Currently allocated     2.97E+01 Mbytes, locked:    0 /  17
[tb_pin] Currently allocated     0.00E+00 Mbytes, locked:    0 /   0

     iteration # 40     ecut=    60.00 Ry     beta= 0.10
     Davidson diagonalization with overlap

---- Real-time Memory Report at c_bands before calling an iterative solver
          5678 MiB given to the printing process from OS
           650 MiB allocation reported by mallinfo(arena+hblkhd)
         50688 MiB available memory on the node where the printing process lives
     GPU memory used/free/total (MiB): 5174 / 11106 / 16280
------------------
     ethr =  1.07E-06,  avg # of iterations =  4.1

     negative rho (up, down):  9.009E-01 1.659E+00

     total cpu time spent up to now is     1094.4 secs

     WARNING: integrated charge=    84.00021967, expected=    84.00000000

     total energy              =   -2035.49103429 Ry
     estimated scf accuracy    <       0.01836935 Ry

     total magnetization       =    -0.00 Bohr mag/cell
     absolute magnetization    =     2.87 Bohr mag/cell
[tb_dev] Currently allocated     2.97E+01 Mbytes, locked:    0 /  17
[tb_pin] Currently allocated     0.00E+00 Mbytes, locked:    0 /   0

     iteration # 41     ecut=    60.00 Ry     beta= 0.10
     Davidson diagonalization with overlap

---- Real-time Memory Report at c_bands before calling an iterative solver
          5687 MiB given to the printing process from OS
           658 MiB allocation reported by mallinfo(arena+hblkhd)
         50680 MiB available memory on the node where the printing process lives
     GPU memory used/free/total (MiB): 5174 / 11106 / 16280
------------------
     ethr =  1.07E-06,  avg # of iterations =  1.7

     negative rho (up, down):  8.877E-01 1.660E+00

     total cpu time spent up to now is     1117.9 secs

     WARNING: integrated charge=    84.00056198, expected=    84.00000000

     total energy              =   -2035.49049996 Ry
     estimated scf accuracy    <       0.01544690 Ry

     total magnetization       =    -0.00 Bohr mag/cell
     absolute magnetization    =     2.89 Bohr mag/cell
[tb_dev] Currently allocated     2.97E+01 Mbytes, locked:    0 /  17
[tb_pin] Currently allocated     0.00E+00 Mbytes, locked:    0 /   0

     iteration # 42     ecut=    60.00 Ry     beta= 0.10
     Davidson diagonalization with overlap

---- Real-time Memory Report at c_bands before calling an iterative solver
          5695 MiB given to the printing process from OS
           666 MiB allocation reported by mallinfo(arena+hblkhd)
         50669 MiB available memory on the node where the printing process lives
     GPU memory used/free/total (MiB): 5174 / 11106 / 16280
------------------
     ethr =  1.07E-06,  avg # of iterations =  3.3

     negative rho (up, down):  8.779E-01 1.667E+00

     total cpu time spent up to now is     1144.2 secs

     WARNING: integrated charge=    84.00078650, expected=    84.00000000

     total energy              =   -2035.49001815 Ry
     estimated scf accuracy    <       0.01611374 Ry

     total magnetization       =    -0.00 Bohr mag/cell
     absolute magnetization    =     2.87 Bohr mag/cell
[tb_dev] Currently allocated     2.97E+01 Mbytes, locked:    0 /  17
[tb_pin] Currently allocated     0.00E+00 Mbytes, locked:    0 /   0

     iteration # 43     ecut=    60.00 Ry     beta= 0.10
     Davidson diagonalization with overlap

---- Real-time Memory Report at c_bands before calling an iterative solver
          5704 MiB given to the printing process from OS
           675 MiB allocation reported by mallinfo(arena+hblkhd)
         50663 MiB available memory on the node where the printing process lives
     GPU memory used/free/total (MiB): 5174 / 11106 / 16280
------------------
     ethr =  1.07E-06,  avg # of iterations =  4.8

     negative rho (up, down):  8.871E-01 1.678E+00

     total cpu time spent up to now is     1175.2 secs

     WARNING: integrated charge=    84.00049828, expected=    84.00000000

     total energy              =   -2035.48969917 Ry
     estimated scf accuracy    <       0.05418281 Ry

     total magnetization       =    -0.00 Bohr mag/cell
     absolute magnetization    =     3.07 Bohr mag/cell
[tb_dev] Currently allocated     2.97E+01 Mbytes, locked:    0 /  17
[tb_pin] Currently allocated     0.00E+00 Mbytes, locked:    0 /   0

     iteration # 44     ecut=    60.00 Ry     beta= 0.10
     Davidson diagonalization with overlap

---- Real-time Memory Report at c_bands before calling an iterative solver
          5712 MiB given to the printing process from OS
           683 MiB allocation reported by mallinfo(arena+hblkhd)
         50654 MiB available memory on the node where the printing process lives
     GPU memory used/free/total (MiB): 5174 / 11106 / 16280
------------------
     ethr =  1.07E-06,  avg # of iterations =  5.3

     negative rho (up, down):  8.868E-01 1.654E+00

     total cpu time spent up to now is     1207.1 secs

     WARNING: integrated charge=    84.00059789, expected=    84.00000000

     total energy              =   -2035.49061139 Ry
     estimated scf accuracy    <       0.04466987 Ry

     total magnetization       =    -0.00 Bohr mag/cell
     absolute magnetization    =     3.06 Bohr mag/cell
[tb_dev] Currently allocated     2.97E+01 Mbytes, locked:    0 /  17
[tb_pin] Currently allocated     0.00E+00 Mbytes, locked:    0 /   0

     iteration # 45     ecut=    60.00 Ry     beta= 0.10
     Davidson diagonalization with overlap

---- Real-time Memory Report at c_bands before calling an iterative solver
          5721 MiB given to the printing process from OS
           692 MiB allocation reported by mallinfo(arena+hblkhd)
         50647 MiB available memory on the node where the printing process lives
     GPU memory used/free/total (MiB): 5174 / 11106 / 16280
------------------
     ethr =  1.07E-06,  avg # of iterations =  4.6

     negative rho (up, down):  8.856E-01 1.696E+00

     total cpu time spent up to now is     1237.7 secs

     WARNING: integrated charge=    84.00031128, expected=    84.00000000

     total energy              =   -2035.48997383 Ry
     estimated scf accuracy    <       0.01390879 Ry

     total magnetization       =    -0.00 Bohr mag/cell
     absolute magnetization    =     2.86 Bohr mag/cell
[tb_dev] Currently allocated     2.97E+01 Mbytes, locked:    0 /  17
[tb_pin] Currently allocated     0.00E+00 Mbytes, locked:    0 /   0

     iteration # 46     ecut=    60.00 Ry     beta= 0.10
     Davidson diagonalization with overlap

---- Real-time Memory Report at c_bands before calling an iterative solver
          5733 MiB given to the printing process from OS
           700 MiB allocation reported by mallinfo(arena+hblkhd)
         50641 MiB available memory on the node where the printing process lives
     GPU memory used/free/total (MiB): 5174 / 11106 / 16280
------------------
     ethr =  1.07E-06,  avg # of iterations =  5.2

     negative rho (up, down):  9.035E-01 1.656E+00

     total cpu time spent up to now is     1271.3 secs

     WARNING: integrated charge=    83.99996786, expected=    84.00000000

     total energy              =   -2035.49083232 Ry
     estimated scf accuracy    <       0.07908608 Ry

     total magnetization       =    -0.00 Bohr mag/cell
     absolute magnetization    =     3.20 Bohr mag/cell
[tb_dev] Currently allocated     2.97E+01 Mbytes, locked:    0 /  17
[tb_pin] Currently allocated     0.00E+00 Mbytes, locked:    0 /   0

     iteration # 47     ecut=    60.00 Ry     beta= 0.10
     Davidson diagonalization with overlap

---- Real-time Memory Report at c_bands before calling an iterative solver
          5741 MiB given to the printing process from OS
           709 MiB allocation reported by mallinfo(arena+hblkhd)
         50628 MiB available memory on the node where the printing process lives
     GPU memory used/free/total (MiB): 5174 / 11106 / 16280
------------------
     ethr =  1.07E-06,  avg # of iterations =  5.1

     negative rho (up, down):  9.072E-01 1.650E+00

     total cpu time spent up to now is     1303.8 secs

     WARNING: integrated charge=    83.99986781, expected=    84.00000000

     total energy              =   -2035.49177875 Ry
     estimated scf accuracy    <       0.01936564 Ry

     total magnetization       =    -0.00 Bohr mag/cell
     absolute magnetization    =     2.87 Bohr mag/cell
[tb_dev] Currently allocated     2.97E+01 Mbytes, locked:    0 /  17
[tb_pin] Currently allocated     0.00E+00 Mbytes, locked:    0 /   0

     iteration # 48     ecut=    60.00 Ry     beta= 0.10
     Davidson diagonalization with overlap

---- Real-time Memory Report at c_bands before calling an iterative solver
[...]

     total cpu time spent up to now is     1787.5 secs

     WARNING: integrated charge=    84.00048533, expected=    84.00000000

     total energy              =   -2035.49060241 Ry
     estimated scf accuracy    <       0.00137196 Ry

     total magnetization       =    -0.00 Bohr mag/cell
     absolute magnetization    =     2.89 Bohr mag/cell
[tb_dev] Currently allocated     2.97E+01 Mbytes, locked:    0 /  17
[tb_pin] Currently allocated     0.00E+00 Mbytes, locked:    0 /   0

     iteration # 67     ecut=    60.00 Ry     beta= 0.10
     Davidson diagonalization with overlap

---- Real-time Memory Report at c_bands before calling an iterative solver
          5919 MiB given to the printing process from OS
           877 MiB allocation reported by mallinfo(arena+hblkhd)
         50462 MiB available memory on the node where the printing process lives
     GPU memory used/free/total (MiB): 5174 / 11106 / 16280
------------------
     ethr =  1.07E-06,  avg # of iterations =  1.4

     negative rho (up, down):  8.918E-01 1.653E+00

     total cpu time spent up to now is     1810.3 secs

     WARNING: integrated charge=    84.00044507, expected=    84.00000000

     total energy              =   -2035.49076550 Ry
     estimated scf accuracy    <       0.00190350 Ry

     total magnetization       =    -0.00 Bohr mag/cell
     absolute magnetization    =     2.92 Bohr mag/cell
[tb_dev] Currently allocated     2.97E+01 Mbytes, locked:    0 /  17
[tb_pin] Currently allocated     0.00E+00 Mbytes, locked:    0 /   0

     iteration # 68     ecut=    60.00 Ry     beta= 0.10
     Davidson diagonalization with overlap

---- Real-time Memory Report at c_bands before calling an iterative solver
          5928 MiB given to the printing process from OS
           885 MiB allocation reported by mallinfo(arena+hblkhd)
         50451 MiB available memory on the node where the printing process lives
     GPU memory used/free/total (MiB): 5174 / 11106 / 16280
------------------
     ethr =  1.07E-06,  avg # of iterations =  1.5

     negative rho (up, down):  8.948E-01 1.649E+00

     total cpu time spent up to now is     1833.3 secs

     WARNING: integrated charge=    84.00043486, expected=    84.00000000

     total energy              =   -2035.49108214 Ry
     estimated scf accuracy    <       0.00136531 Ry

     total magnetization       =    -0.00 Bohr mag/cell
     absolute magnetization    =     2.89 Bohr mag/cell
[tb_dev] Currently allocated     2.97E+01 Mbytes, locked:    0 /  17
[tb_pin] Currently allocated     0.00E+00 Mbytes, locked:    0 /   0

     iteration # 69     ecut=    60.00 Ry     beta= 0.10
     Davidson diagonalization with overlap

---- Real-time Memory Report at c_bands before calling an iterative solver
          5940 MiB given to the printing process from OS
           894 MiB allocation reported by mallinfo(arena+hblkhd)
         50445 MiB available memory on the node where the printing process lives
     GPU memory used/free/total (MiB): 5174 / 11106 / 16280
------------------
     ethr =  1.07E-06,  avg # of iterations =  1.8

     negative rho (up, down):  8.967E-01 1.650E+00

     total cpu time spent up to now is     1856.8 secs

     WARNING: integrated charge=    84.00043043, expected=    84.00000000

     total energy              =   -2035.49120714 Ry
     estimated scf accuracy    <       0.00242983 Ry

     total magnetization       =    -0.00 Bohr mag/cell
     absolute magnetization    =     2.83 Bohr mag/cell
[tb_dev] Currently allocated     2.97E+01 Mbytes, locked:    0 /  17
[tb_pin] Currently allocated     0.00E+00 Mbytes, locked:    0 /   0

     iteration # 70     ecut=    60.00 Ry     beta= 0.10
     Davidson diagonalization with overlap

---- Real-time Memory Report at c_bands before calling an iterative solver
          5948 MiB given to the printing process from OS
           902 MiB allocation reported by mallinfo(arena+hblkhd)
         50437 MiB available memory on the node where the printing process lives
     GPU memory used/free/total (MiB): 5174 / 11106 / 16280
------------------
     ethr =  1.07E-06,  avg # of iterations =  1.5

     negative rho (up, down):  8.998E-01 1.648E+00

     total cpu time spent up to now is     1879.8 secs

     WARNING: integrated charge=    84.00037358, expected=    84.00000000

     total energy              =   -2035.49153314 Ry
     estimated scf accuracy    <       0.00305452 Ry

     total magnetization       =    -0.00 Bohr mag/cell
     absolute magnetization    =     2.83 Bohr mag/cell
[tb_dev] Currently allocated     2.97E+01 Mbytes, locked:    0 /  17
[tb_pin] Currently allocated     0.00E+00 Mbytes, locked:    0 /   0

     iteration # 71     ecut=    60.00 Ry     beta= 0.10
     Davidson diagonalization with overlap

---- Real-time Memory Report at c_bands before calling an iterative solver
          5957 MiB given to the printing process from OS
           911 MiB allocation reported by mallinfo(arena+hblkhd)
         50427 MiB available memory on the node where the printing process lives
     GPU memory used/free/total (MiB): 5174 / 11106 / 16280
------------------
     ethr =  1.07E-06,  avg # of iterations =  2.9

     negative rho (up, down):  9.032E-01 1.645E+00

     total cpu time spent up to now is     1905.3 secs

     WARNING: integrated charge=    84.00026179, expected=    84.00000000

     total energy              =   -2035.49198043 Ry
     estimated scf accuracy    <       0.01033946 Ry

     total magnetization       =    -0.00 Bohr mag/cell
     absolute magnetization    =     2.82 Bohr mag/cell
[tb_dev] Currently allocated     2.97E+01 Mbytes, locked:    0 /  17
[tb_pin] Currently allocated     0.00E+00 Mbytes, locked:    0 /   0

     iteration # 72     ecut=    60.00 Ry     beta= 0.10
     Davidson diagonalization with overlap

---- Real-time Memory Report at c_bands before calling an iterative solver
          5969 MiB given to the printing process from OS
           919 MiB allocation reported by mallinfo(arena+hblkhd)
         50420 MiB available memory on the node where the printing process lives
     GPU memory used/free/total (MiB): 5174 / 11106 / 16280
------------------
     ethr =  1.07E-06,  avg # of iterations =  2.9

     negative rho (up, down):  8.955E-01 1.644E+00

     total cpu time spent up to now is     1930.6 secs

     WARNING: integrated charge=    84.00026991, expected=    84.00000000

     total energy              =   -2035.49132049 Ry
     estimated scf accuracy    <       0.01567798 Ry

     total magnetization       =    -0.00 Bohr mag/cell
     absolute magnetization    =     2.86 Bohr mag/cell
[tb_dev] Currently allocated     2.97E+01 Mbytes, locked:    0 /  17
[tb_pin] Currently allocated     0.00E+00 Mbytes, locked:    0 /   0

     iteration # 73     ecut=    60.00 Ry     beta= 0.10
     Davidson diagonalization with overlap

---- Real-time Memory Report at c_bands before calling an iterative solver
          5977 MiB given to the printing process from OS
           927 MiB allocation reported by mallinfo(arena+hblkhd)
         50412 MiB available memory on the node where the printing process lives
     GPU memory used/free/total (MiB): 5174 / 11106 / 16280
------------------
     ethr =  1.07E-06,  avg # of iterations =  4.9

     negative rho (up, down):  8.966E-01 1.653E+00

     total cpu time spent up to now is     1959.8 secs

     WARNING: integrated charge=    84.00049485, expected=    84.00000000

     total energy              =   -2035.49092912 Ry
     estimated scf accuracy    <       0.00995956 Ry

     total magnetization       =    -0.00 Bohr mag/cell
     absolute magnetization    =     2.84 Bohr mag/cell
[tb_dev] Currently allocated     2.97E+01 Mbytes, locked:    0 /  17
[tb_pin] Currently allocated     0.00E+00 Mbytes, locked:    0 /   0

     iteration # 74     ecut=    60.00 Ry     beta= 0.10
     Davidson diagonalization with overlap

---- Real-time Memory Report at c_bands before calling an iterative solver
          5986 MiB given to the printing process from OS
           936 MiB allocation reported by mallinfo(arena+hblkhd)
         50405 MiB available memory on the node where the printing process lives
     GPU memory used/free/total (MiB): 5174 / 11106 / 16280
------------------
     ethr =  1.07E-06,  avg # of iterations =  3.7

     negative rho (up, down):  8.928E-01 1.659E+00

     total cpu time spent up to now is     1986.9 secs

     WARNING: integrated charge=    84.00065653, expected=    84.00000000

     total energy              =   -2035.49072795 Ry
     estimated scf accuracy    <       0.00231338 Ry

     total magnetization       =    -0.00 Bohr mag/cell
     absolute magnetization    =     2.85 Bohr mag/cell
[tb_dev] Currently allocated     2.97E+01 Mbytes, locked:    0 /  17
[tb_pin] Currently allocated     0.00E+00 Mbytes, locked:    0 /   0

     iteration # 75     ecut=    60.00 Ry     beta= 0.10
     Davidson diagonalization with overlap

---- Real-time Memory Report at c_bands before calling an iterative solver
          5994 MiB given to the printing process from OS
           944 MiB allocation reported by mallinfo(arena+hblkhd)
         50395 MiB available memory on the node where the printing process lives
     GPU memory used/free/total (MiB): 5174 / 11106 / 16280
------------------
     ethr =  1.07E-06,  avg # of iterations =  3.0

     negative rho (up, down):  8.932E-01 1.658E+00

     total cpu time spent up to now is     2012.2 secs

     WARNING: integrated charge=    84.00059910, expected=    84.00000000

     total energy              =   -2035.49072273 Ry
     estimated scf accuracy    <       0.00663899 Ry

     total magnetization       =    -0.00 Bohr mag/cell
     absolute magnetization    =     2.84 Bohr mag/cell
[tb_dev] Currently allocated     2.97E+01 Mbytes, locked:    0 /  17
[tb_pin] Currently allocated     0.00E+00 Mbytes, locked:    0 /   0

     iteration # 76     ecut=    60.00 Ry     beta= 0.10
     Davidson diagonalization with overlap

---- Real-time Memory Report at c_bands before calling an iterative solver
          6003 MiB given to the printing process from OS
           953 MiB allocation reported by mallinfo(arena+hblkhd)
         50383 MiB available memory on the node where the printing process lives
     GPU memory used/free/total (MiB): 5174 / 11106 / 16280
------------------
     ethr =  1.07E-06,  avg # of iterations =  2.7

     negative rho (up, down):  9.037E-01 1.650E+00

     total cpu time spent up to now is     2037.3 secs

     WARNING: integrated charge=    84.00041478, expected=    84.00000000

     total energy              =   -2035.49147573 Ry
     estimated scf accuracy    <       0.00175312 Ry

     total magnetization       =    -0.00 Bohr mag/cell
     absolute magnetization    =     2.88 Bohr mag/cell
[tb_dev] Currently allocated     2.97E+01 Mbytes, locked:    0 /  17
[tb_pin] Currently allocated     0.00E+00 Mbytes, locked:    0 /   0

     iteration # 77     ecut=    60.00 Ry     beta= 0.10
     Davidson diagonalization with overlap

---- Real-time Memory Report at c_bands before calling an iterative solver
          6011 MiB given to the printing process from OS
           961 MiB allocation reported by mallinfo(arena+hblkhd)
         50373 MiB available memory on the node where the printing process lives
     GPU memory used/free/total (MiB): 5174 / 11106 / 16280
------------------
     ethr =  1.07E-06,  avg # of iterations =  3.6

     negative rho (up, down):  8.983E-01 1.655E+00

     total cpu time spent up to now is     2064.6 secs

     WARNING: integrated charge=    84.00049316, expected=    84.00000000

     total energy              =   -2035.49102778 Ry
     estimated scf accuracy    <       0.01909400 Ry

     total magnetization       =    -0.00 Bohr mag/cell
     absolute magnetization    =     2.80 Bohr mag/cell
[tb_dev] Currently allocated     2.97E+01 Mbytes, locked:    0 /  17
[tb_pin] Currently allocated     0.00E+00 Mbytes, locked:    0 /   0

     iteration # 78     ecut=    60.00 Ry     beta= 0.10
     Davidson diagonalization with overlap

---- Real-time Memory Report at c_bands before calling an iterative solver
          6020 MiB given to the printing process from OS
           970 MiB allocation reported by mallinfo(arena+hblkhd)
         50361 MiB available memory on the node where the printing process lives
     GPU memory used/free/total (MiB): 5174 / 11106 / 16280
------------------
     ethr =  1.07E-06,  avg # of iterations =  2.8

     negative rho (up, down):  8.870E-01 1.664E+00

     total cpu time spent up to now is     2089.8 secs

     WARNING: integrated charge=    84.00070565, expected=    84.00000000

     total energy              =   -2035.49034470 Ry
     estimated scf accuracy    <       0.00997563 Ry

     total magnetization       =    -0.00 Bohr mag/cell
     absolute magnetization    =     2.85 Bohr mag/cell
[tb_dev] Currently allocated     2.97E+01 Mbytes, locked:    0 /  17
[tb_pin] Currently allocated     0.00E+00 Mbytes, locked:    0 /   0

     iteration # 79     ecut=    60.00 Ry     beta= 0.10
     Davidson diagonalization with overlap

---- Real-time Memory Report at c_bands before calling an iterative solver
          6031 MiB given to the printing process from OS
           978 MiB allocation reported by mallinfo(arena+hblkhd)
         50358 MiB available memory on the node where the printing process lives
     GPU memory used/free/total (MiB): 5174 / 11106 / 16280
------------------
     ethr =  1.07E-06,  avg # of iterations =  3.3

     negative rho (up, down):  8.816E-01 1.666E+00

     total cpu time spent up to now is     2115.6 secs

     WARNING: integrated charge=    84.00076621, expected=    84.00000000

     total energy              =   -2035.49002295 Ry
     estimated scf accuracy    <       0.01511508 Ry

     total magnetization       =    -0.00 Bohr mag/cell
     absolute magnetization    =     2.83 Bohr mag/cell
[tb_dev] Currently allocated     2.97E+01 Mbytes, locked:    0 /  17
[tb_pin] Currently allocated     0.00E+00 Mbytes, locked:    0 /   0

     iteration # 80     ecut=    60.00 Ry     beta= 0.10
     Davidson diagonalization with overlap

---- Real-time Memory Report at c_bands before calling an iterative solver
          6040 MiB given to the printing process from OS
           986 MiB allocation reported by mallinfo(arena+hblkhd)
         50351 MiB available memory on the node where the printing process lives
     GPU memory used/free/total (MiB): 5174 / 11106 / 16280
------------------
     ethr =  1.07E-06,  avg # of iterations =  3.4

     negative rho (up, down):  8.854E-01 1.661E+00

     total cpu time spent up to now is     2142.0 secs

     WARNING: integrated charge=    84.00067095, expected=    84.00000000

     total energy              =   -2035.49051990 Ry
     estimated scf accuracy    <       0.01292432 Ry

     total magnetization       =    -0.00 Bohr mag/cell
     absolute magnetization    =     2.84 Bohr mag/cell

     End of self-consistent calculation

     convergence NOT achieved after  80 iterations: stopping

     Writing config to output data dir ./out/aiida.save/
 
     init_run     :     37.91s CPU      7.74s WALL (       1 calls)
     electrons    :   3490.04s CPU   2133.33s WALL (       1 calls)

     Called by init_run:
     wfcinit      :      0.90s CPU      0.90s WALL (       1 calls)
                                        0.90s GPU  (       1 calls)
     potinit      :     20.54s CPU      2.10s WALL (       1 calls)
     hinit0       :      9.45s CPU      3.51s WALL (       1 calls)

     Called by electrons:
     c_bands      :   1593.76s CPU   1646.72s WALL (      80 calls)
     sum_band     :    329.01s CPU    343.61s WALL (      80 calls)
     v_of_rho     :     91.38s CPU      8.36s WALL (      81 calls)
     v_h          :     12.72s CPU      1.13s WALL (      81 calls)
     v_xc         :     78.64s CPU      7.23s WALL (      81 calls)
     newd         :    106.70s CPU     10.06s WALL (      81 calls)
                                       10.06s GPU  (      81 calls)
     PAW_pot      :   1269.74s CPU    114.72s WALL (      81 calls)
     mix_rho      :     77.27s CPU      7.81s WALL (      80 calls)

     Called by c_bands:
     init_us_2    :     59.38s CPU     74.53s WALL (   39680 calls)
     init_us_2:gp :     58.67s CPU     73.83s WALL (   39680 calls)
     cegterg      :   1374.04s CPU   1404.33s WALL (   19840 calls)

     Called by sum_band:
     sum_band:wei :      1.00s CPU      1.01s WALL (      80 calls)
                                        1.00s GPU  (      80 calls)
     sum_band:loo :    312.74s CPU    327.13s WALL (      80 calls)
                                      327.13s GPU  (      80 calls)
     sum_band:buf :     75.25s CPU     77.09s WALL (   19840 calls)
                                       76.96s GPU  (   19840 calls)
     sum_band:ini :     28.08s CPU     32.62s WALL (   19840 calls)
                                       32.51s GPU  (   19840 calls)
     sum_band:cal :      0.65s CPU      9.11s WALL (   19840 calls)
                                        7.64s GPU  (   19840 calls)
     sum_band:bec :      5.59s CPU      5.99s WALL (   19840 calls)
                                        5.86s GPU  (   19840 calls)
     addusdens    :      9.72s CPU      9.93s WALL (      80 calls)
                                        9.92s GPU  (      80 calls)
     addusd:skk   :      0.05s CPU      0.05s WALL (     240 calls)
                                        0.05s GPU  (     240 calls)

     Called by *egterg:
     cdiaghg      :    258.52s CPU    296.79s WALL (   82104 calls)
                                      296.23s GPU  (   82104 calls)
     cegterg:over :     25.73s CPU     26.71s WALL (   62512 calls)
     cegterg:upda :     28.52s CPU     30.60s WALL (   62512 calls)
     cegterg:last :     18.36s CPU     18.95s WALL (   35960 calls)
     h_psi        :    967.75s CPU    955.66s WALL (   82352 calls)
                                      954.24s GPU  (   82352 calls)
     s_psi        :     12.39s CPU     34.66s WALL (   82352 calls)
                                       31.82s GPU  (   82352 calls)
     g_psi        :      0.44s CPU      3.37s WALL (   62512 calls)
                                        2.96s GPU  (   62512 calls)

     Called by h_psi:
     h_psi:calbec :      3.04s CPU     27.41s WALL (   82352 calls)
                                       26.88s GPU  (   82352 calls)
     vloc_psi     :    891.40s CPU    880.19s WALL (   82352 calls)
                                      879.67s GPU  (   82352 calls)
     add_vuspsi   :     20.07s CPU     39.60s WALL (   82352 calls)
                                       39.08s GPU  (   82352 calls)

     General routines
     calbec       :      2.72s CPU      2.78s WALL (  102192 calls)
     fft          :      4.32s CPU      1.08s WALL (    2023 calls)
                                        0.82s GPU  (    1861 calls)
     ffts         :      0.46s CPU      0.14s WALL (     322 calls)
                                        0.03s GPU  (     160 calls)
     fftw         :      9.85s CPU    771.40s WALL (  487182 calls)
                                      766.76s GPU  (  487182 calls)
     interpolate  :     15.38s CPU      1.34s WALL (     162 calls)
     davcio       :      0.23s CPU      4.10s WALL (     514 calls)
 
     Parallel routines

     PAW routines
     PAW_pot      :   1269.74s CPU    114.72s WALL (      81 calls)
     PAW_symme    :      0.27s CPU      0.04s WALL (     160 calls)
 
     PWSCF        :  58m51.21s CPU  35m45.12s WALL

 
   This run was terminated on:  22:25:13  23Oct2023            

=------------------------------------------------------------------------------=
   JOB DONE.
=------------------------------------------------------------------------------=
