
     Program PWSCF v.7.2 starts on 22Oct2023 at 17:45:19 

     This program is part of the open-source Quantum ESPRESSO suite
     for quantum simulation of materials; please cite
         "P. Giannozzi et al., J. Phys.:Condens. Matter 21 395502 (2009);
         "P. Giannozzi et al., J. Phys.:Condens. Matter 29 465901 (2017);
         "P. Giannozzi et al., J. Chem. Phys. 152 154105 (2020);
          URL http://www.quantum-espresso.org", 
     in publications or presentations arising from this work. More details at
     http://www.quantum-espresso.org/quote

     Parallel version (MPI & OpenMP), running on      12 processor cores
     Number of MPI processes:                 1
     Threads/MPI process:                    12

     MPI processes distributed on     1 nodes
     60319 MiB available memory on the printing compute node when the environment starts
 
     Reading input from aiida.in

     Current dimensions of program PWSCF are:
     Max number of different atomic species (ntypx) = 10
     Max number of k-points (npk) =  40000
     Max angular momentum in pseudopotentials (lmaxx) =  4
     file Al.pbesol-n-kjpaw_psl.1.0.0.UPF: wavefunction(s)  3S 3P renormalized
     file O.pbesol-n-kjpaw_psl.0.1.UPF: wavefunction(s)  2P renormalized
     Message from routine setup:
     using ibrav=0 with symmetry is DISCOURAGED, use correct ibrav instead
 
     Subspace diagonalization in iterative solution of the eigenvalue problem:
     a serial algorithm will be used

 
     G-vector sticks info
     --------------------
     sticks:   dense  smooth     PW     G-vecs:    dense   smooth      PW
     Sum        2839    1417    385               210441    74479   10817
 
     Using Slab Decomposition
 


     bravais-lattice index     =            0
     lattice parameter (alat)  =       9.2445  a.u.
     unit-cell volume          =    1184.6322 (a.u.)^3
     number of atoms/cell      =           12
     number of atomic types    =            4
     number of electrons       =        68.00
     number of Kohn-Sham states=           41
     kinetic-energy cutoff     =      60.0000  Ry
     charge density cutoff     =     480.0000  Ry
     scf convergence threshold =      2.4E-09
     mixing beta               =       0.4000
     number of iterations used =            8  plain     mixing
     Exchange-correlation= SLA  PW   PSX  PSC
                           (   1   4  10   8   0   0   0)

     GPU acceleration is ACTIVE.


     GPU used by master process:

        Device Number: 0
        Device name: Tesla P100-PCIE-16GB
        Compute capability : 60
        Ratio of single to double precision performance  : 2
        Memory Clock Rate (KHz): 715000
        Memory Bus Width (bits): 4096
        Peak Memory Bandwidth (GB/s): 732.16

     celldm(1)=   9.244540  celldm(2)=   0.000000  celldm(3)=   0.000000
     celldm(4)=   0.000000  celldm(5)=   0.000000  celldm(6)=   0.000000

     crystal axes: (cart. coord. in units of alat)
               a(1) = (   1.000000   0.000000   0.000000 )  
               a(2) = (  -0.500000   0.866025   0.000000 )  
               a(3) = (   0.000000   0.000000   1.731398 )  

     reciprocal axes: (cart. coord. in units 2 pi/alat)
               b(1) = (  1.000000  0.577350 -0.000000 )  
               b(2) = (  0.000000  1.154701  0.000000 )  
               b(3) = (  0.000000 -0.000000  0.577568 )  


     PseudoPot. # 1 for Al read from file:
     ./pseudo/Al.pbesol-n-kjpaw_psl.1.0.0.UPF
     MD5 check sum: 3401bcfaaf5f9b08e46a00870a1ef39d
     Pseudo is Projector augmented-wave + core cor, Zval =  3.0
     Generated using "atomic" code by A. Dal Corso  v.6.0 svn rev. 13079
     Shape of augmentation charge: PSQ
     Using radial grid of 1135 points,  6 beta functions with: 
                l(1) =   0
                l(2) =   0
                l(3) =   1
                l(4) =   1
                l(5) =   2
                l(6) =   2
     Q(r) pseudized with 0 coefficients 


     PseudoPot. # 2 for N  read from file:
     ./pseudo/N.pbesol-theos.UPF
     MD5 check sum: 1b64827339d390a5a22afef3ff345c9d
     Pseudo is Ultrasoft + core correction, Zval =  5.0
     Generated using "atomic" code by A. Dal Corso  v.5.1
     Using radial grid of 1085 points,  4 beta functions with: 
                l(1) =   0
                l(2) =   0
                l(3) =   1
                l(4) =   1
     Q(r) pseudized with 0 coefficients 


     PseudoPot. # 3 for O  read from file:
     ./pseudo/O.pbesol-n-kjpaw_psl.0.1.UPF
     MD5 check sum: 81d73d1479e654e5638b0319f0d6c2c7
     Pseudo is Projector augmented-wave + core cor, Zval =  6.0
     Generated using "atomic" code by A. Dal Corso  v.6.0 svn rev. 13079
     Shape of augmentation charge: BESSEL
     Using radial grid of 1095 points,  4 beta functions with: 
                l(1) =   0
                l(2) =   0
                l(3) =   1
                l(4) =   1
     Q(r) pseudized with 0 coefficients 


     PseudoPot. # 4 for Se read from file:
     ./pseudo/se_pbesol_v1.uspp.F.UPF
     MD5 check sum: a3b4745ad650bb7419ce2e0d5f176975
     Pseudo is Ultrasoft + core correction, Zval =  6.0
     Generated by new atomic code, or converted to UPF format
     Using radial grid of  877 points,  6 beta functions with: 
                l(1) =   0
                l(2) =   0
                l(3) =   1
                l(4) =   1
                l(5) =   2
                l(6) =   2
     Q(r) pseudized with  8 coefficients,  rinner =    1.300   1.300   1.300
                                                       1.300   1.300

     atomic species   valence    mass     pseudopotential
        Al             3.00    26.98154     Al( 1.00)
        N              5.00    14.00670     N ( 1.00)
        O              6.00    15.99940     O ( 1.00)
        Se             6.00    78.96000     Se( 1.00)

     Starting magnetic structure 
     atomic species   magnetization
        Al           0.100
        N            0.100
        O            0.100
        Se           0.100

      6 Sym. Ops. (no inversion) found


                                    s                        frac. trans.

      isym =  1     identity                                     

 cryst.   s( 1) = (     1          0          0      )
                  (     0          1          0      )
                  (     0          0          1      )

 cart.    s( 1) = (  1.0000000  0.0000000  0.0000000 )
                  (  0.0000000  1.0000000  0.0000000 )
                  (  0.0000000  0.0000000  1.0000000 )


      isym =  2     180 deg rotation - cart. axis [1,0,0]        

 cryst.   s( 2) = (     1          0          0      )
                  (    -1         -1          0      )
                  (     0          0         -1      )

 cart.    s( 2) = (  1.0000000  0.0000000  0.0000000 )
                  (  0.0000000 -1.0000000  0.0000000 )
                  (  0.0000000  0.0000000 -1.0000000 )


      isym =  3     120 deg rotation - cryst. axis [0,0,1]       

 cryst.   s( 3) = (     0          1          0      )
                  (    -1         -1          0      )
                  (     0          0          1      )

 cart.    s( 3) = ( -0.5000000 -0.8660254  0.0000000 )
                  (  0.8660254 -0.5000000  0.0000000 )
                  (  0.0000000  0.0000000  1.0000000 )


      isym =  4     120 deg rotation - cryst. axis [0,0,-1]      

 cryst.   s( 4) = (    -1         -1          0      )
                  (     1          0          0      )
                  (     0          0          1      )

 cart.    s( 4) = ( -0.5000000  0.8660254  0.0000000 )
                  ( -0.8660254 -0.5000000  0.0000000 )
                  (  0.0000000  0.0000000  1.0000000 )


      isym =  5     180 deg rotation - cryst. axis [0,1,0]       

 cryst.   s( 5) = (    -1         -1          0      )
                  (     0          1          0      )
                  (     0          0         -1      )

 cart.    s( 5) = ( -0.5000000 -0.8660254  0.0000000 )
                  ( -0.8660254  0.5000000  0.0000000 )
                  (  0.0000000  0.0000000 -1.0000000 )


      isym =  6     180 deg rotation - cryst. axis [1,1,0]       

 cryst.   s( 6) = (     0          1          0      )
                  (     1          0          0      )
                  (     0          0         -1      )

 cart.    s( 6) = ( -0.5000000  0.8660254  0.0000000 )
                  (  0.8660254  0.5000000  0.0000000 )
                  (  0.0000000  0.0000000 -1.0000000 )


   Cartesian axes

     site n.     atom                  positions (alat units)
         1           Al  tau(   1) = (   0.0000000   0.0000000   0.0000000  )
         2           Se  tau(   2) = (   0.0000000   0.5773503   0.3497424  )
         3           Se  tau(   3) = (   0.5000000   0.2886751   1.3816558  )
         4           N   tau(   4) = (   0.0000000   0.0000000   0.8656991  )
         5           O   tau(   5) = (  -0.1845000   0.7976094   0.2493213  )
         6           O   tau(   6) = (   0.7830000   0.2390230   1.4820769  )
         7           O   tau(   7) = (   0.2830000   0.6270024   0.2493213  )
         8           O   tau(   8) = (  -0.0985000   0.3074390   0.2493213  )
         9           O   tau(   9) = (   0.4015000   0.5585864   1.4820769  )
        10           O   tau(  10) = (   0.3155000   0.0684160   1.4820769  )
        11           O   tau(  11) = (   0.0000000   0.5773503   0.6613941  )
        12           O   tau(  12) = (   0.5000000   0.2886751   1.0700041  )

   Crystallographic axes

     site n.     atom                  positions (cryst. coord.)
         1           Al  tau(   1) = (  0.0000000  0.0000000  0.0000000  )
         2           Se  tau(   2) = (  0.3333333  0.6666667  0.2020000  )
         3           Se  tau(   3) = (  0.6666667  0.3333333  0.7980000  )
         4           N   tau(   4) = (  0.0000000  0.0000000  0.5000000  )
         5           O   tau(   5) = (  0.2760000  0.9210000  0.1440000  )
         6           O   tau(   6) = (  0.9210000  0.2760000  0.8560000  )
         7           O   tau(   7) = (  0.6450000  0.7240000  0.1440000  )
         8           O   tau(   8) = (  0.0790000  0.3550000  0.1440000  )
         9           O   tau(   9) = (  0.7240000  0.6450000  0.8560000  )
        10           O   tau(  10) = (  0.3550000  0.0790000  0.8560000  )
        11           O   tau(  11) = (  0.3333333  0.6666667  0.3820000  )
        12           O   tau(  12) = (  0.6666667  0.3333333  0.6180000  )

     number of k points=    58  Marzari-Vanderbilt smearing, width (Ry)=  0.0100
                       cart. coord. in units 2pi/alat
        k(    1) = (   0.0000000   0.0000000   0.0000000), wk =   0.0020000
        k(    2) = (   0.0000000   0.0000000   0.1155136), wk =   0.0040000
        k(    3) = (   0.0000000   0.0000000   0.2310272), wk =   0.0040000
        k(    4) = (   0.0000000   0.1154701   0.0000000), wk =   0.0120000
        k(    5) = (   0.0000000   0.1154701   0.1155136), wk =   0.0120000
        k(    6) = (   0.0000000   0.1154701   0.2310272), wk =   0.0120000
        k(    7) = (   0.0000000   0.2309401   0.0000000), wk =   0.0120000
        k(    8) = (   0.0000000   0.2309401   0.1155136), wk =   0.0120000
        k(    9) = (   0.0000000   0.2309401   0.2310272), wk =   0.0120000
        k(   10) = (   0.0000000   0.3464102   0.0000000), wk =   0.0120000
        k(   11) = (   0.0000000   0.3464102   0.1155136), wk =   0.0120000
        k(   12) = (   0.0000000   0.3464102   0.2310272), wk =   0.0120000
        k(   13) = (   0.0000000   0.4618802   0.0000000), wk =   0.0120000
        k(   14) = (   0.0000000   0.4618802   0.1155136), wk =   0.0120000
        k(   15) = (   0.0000000   0.4618802   0.2310272), wk =   0.0120000
        k(   16) = (   0.0000000  -0.5773503   0.0000000), wk =   0.0060000
        k(   17) = (   0.0000000  -0.5773503   0.1155136), wk =   0.0120000
        k(   18) = (   0.0000000  -0.5773503   0.2310272), wk =   0.0120000
        k(   19) = (   0.1000000   0.1732051   0.0000000), wk =   0.0120000
        k(   20) = (   0.1000000   0.1732051   0.1155136), wk =   0.0240000
        k(   21) = (   0.1000000   0.1732051   0.2310272), wk =   0.0240000
        k(   22) = (   0.1000000   0.2886751   0.0000000), wk =   0.0240000
        k(   23) = (   0.1000000   0.2886751   0.1155136), wk =   0.0240000
        k(   24) = (   0.1000000   0.2886751   0.2310272), wk =   0.0240000
        k(   25) = (   0.1000000   0.4041452   0.0000000), wk =   0.0240000
        k(   26) = (   0.1000000   0.4041452   0.1155136), wk =   0.0240000
        k(   27) = (   0.1000000   0.4041452   0.2310272), wk =   0.0240000
        k(   28) = (   0.1000000   0.5196152   0.0000000), wk =   0.0240000
        k(   29) = (   0.1000000   0.5196152   0.1155136), wk =   0.0240000
        k(   30) = (   0.1000000   0.5196152   0.2310272), wk =   0.0240000
        k(   31) = (   0.2000000   0.3464102   0.0000000), wk =   0.0120000
        k(   32) = (   0.2000000   0.3464102   0.1155136), wk =   0.0240000
        k(   33) = (   0.2000000   0.3464102   0.2310272), wk =   0.0240000
        k(   34) = (   0.2000000   0.4618802   0.0000000), wk =   0.0240000
        k(   35) = (   0.2000000   0.4618802   0.1155136), wk =   0.0240000
        k(   36) = (   0.2000000   0.4618802   0.2310272), wk =   0.0240000
        k(   37) = (   0.2000000   0.5773503   0.0000000), wk =   0.0120000
        k(   38) = (   0.2000000   0.5773503   0.1155136), wk =   0.0240000
        k(   39) = (   0.2000000   0.5773503   0.2310272), wk =   0.0240000
        k(   40) = (   0.3000000   0.5196152   0.0000000), wk =   0.0120000
        k(   41) = (   0.3000000   0.5196152   0.1155136), wk =   0.0240000
        k(   42) = (   0.3000000   0.5196152   0.2310272), wk =   0.0240000
        k(   43) = (   0.0000000   0.1154701  -0.1155136), wk =   0.0120000
        k(   44) = (   0.0000000   0.1154701  -0.2310272), wk =   0.0120000
        k(   45) = (   0.0000000   0.2309401  -0.1155136), wk =   0.0120000
        k(   46) = (   0.0000000   0.2309401  -0.2310272), wk =   0.0120000
        k(   47) = (   0.0000000   0.3464102  -0.1155136), wk =   0.0120000
        k(   48) = (   0.0000000   0.3464102  -0.2310272), wk =   0.0120000
        k(   49) = (   0.0000000   0.4618802  -0.1155136), wk =   0.0120000
        k(   50) = (   0.0000000   0.4618802  -0.2310272), wk =   0.0120000
        k(   51) = (  -0.1000000   0.2886751  -0.1155136), wk =   0.0240000
        k(   52) = (  -0.1000000   0.2886751  -0.2310272), wk =   0.0240000
        k(   53) = (  -0.1000000   0.4041452  -0.1155136), wk =   0.0240000
        k(   54) = (  -0.1000000   0.4041452  -0.2310272), wk =   0.0240000
        k(   55) = (  -0.1000000   0.5196152  -0.1155136), wk =   0.0240000
        k(   56) = (  -0.1000000   0.5196152  -0.2310272), wk =   0.0240000
        k(   57) = (  -0.2000000   0.4618802  -0.1155136), wk =   0.0240000
        k(   58) = (  -0.2000000   0.4618802  -0.2310272), wk =   0.0240000

                       cryst. coord.
        k(    1) = (   0.0000000   0.0000000   0.0000000), wk =   0.0020000
        k(    2) = (   0.0000000   0.0000000   0.2000000), wk =   0.0040000
        k(    3) = (   0.0000000   0.0000000   0.4000000), wk =   0.0040000
        k(    4) = (   0.0000000   0.1000000   0.0000000), wk =   0.0120000
        k(    5) = (   0.0000000   0.1000000   0.2000000), wk =   0.0120000
        k(    6) = (   0.0000000   0.1000000   0.4000000), wk =   0.0120000
        k(    7) = (   0.0000000   0.2000000   0.0000000), wk =   0.0120000
        k(    8) = (   0.0000000   0.2000000   0.2000000), wk =   0.0120000
        k(    9) = (   0.0000000   0.2000000   0.4000000), wk =   0.0120000
        k(   10) = (   0.0000000   0.3000000   0.0000000), wk =   0.0120000
        k(   11) = (   0.0000000   0.3000000   0.2000000), wk =   0.0120000
        k(   12) = (   0.0000000   0.3000000   0.4000000), wk =   0.0120000
        k(   13) = (   0.0000000   0.4000000   0.0000000), wk =   0.0120000
        k(   14) = (   0.0000000   0.4000000   0.2000000), wk =   0.0120000
        k(   15) = (   0.0000000   0.4000000   0.4000000), wk =   0.0120000
        k(   16) = (   0.0000000  -0.5000000   0.0000000), wk =   0.0060000
        k(   17) = (   0.0000000  -0.5000000   0.2000000), wk =   0.0120000
        k(   18) = (   0.0000000  -0.5000000   0.4000000), wk =   0.0120000
        k(   19) = (   0.1000000   0.1000000   0.0000000), wk =   0.0120000
        k(   20) = (   0.1000000   0.1000000   0.2000000), wk =   0.0240000
        k(   21) = (   0.1000000   0.1000000   0.4000000), wk =   0.0240000
        k(   22) = (   0.1000000   0.2000000   0.0000000), wk =   0.0240000
        k(   23) = (   0.1000000   0.2000000   0.2000000), wk =   0.0240000
        k(   24) = (   0.1000000   0.2000000   0.4000000), wk =   0.0240000
        k(   25) = (   0.1000000   0.3000000   0.0000000), wk =   0.0240000
        k(   26) = (   0.1000000   0.3000000   0.2000000), wk =   0.0240000
        k(   27) = (   0.1000000   0.3000000   0.4000000), wk =   0.0240000
        k(   28) = (   0.1000000   0.4000000   0.0000000), wk =   0.0240000
        k(   29) = (   0.1000000   0.4000000   0.2000000), wk =   0.0240000
        k(   30) = (   0.1000000   0.4000000   0.4000000), wk =   0.0240000
        k(   31) = (   0.2000000   0.2000000   0.0000000), wk =   0.0120000
        k(   32) = (   0.2000000   0.2000000   0.2000000), wk =   0.0240000
        k(   33) = (   0.2000000   0.2000000   0.4000000), wk =   0.0240000
        k(   34) = (   0.2000000   0.3000000   0.0000000), wk =   0.0240000
        k(   35) = (   0.2000000   0.3000000   0.2000000), wk =   0.0240000
        k(   36) = (   0.2000000   0.3000000   0.4000000), wk =   0.0240000
        k(   37) = (   0.2000000   0.4000000   0.0000000), wk =   0.0120000
        k(   38) = (   0.2000000   0.4000000   0.2000000), wk =   0.0240000
        k(   39) = (   0.2000000   0.4000000   0.4000000), wk =   0.0240000
        k(   40) = (   0.3000000   0.3000000   0.0000000), wk =   0.0120000
        k(   41) = (   0.3000000   0.3000000   0.2000000), wk =   0.0240000
        k(   42) = (   0.3000000   0.3000000   0.4000000), wk =   0.0240000
        k(   43) = (   0.0000000   0.1000000  -0.2000000), wk =   0.0120000
        k(   44) = (   0.0000000   0.1000000  -0.4000000), wk =   0.0120000
        k(   45) = (   0.0000000   0.2000000  -0.2000000), wk =   0.0120000
        k(   46) = (   0.0000000   0.2000000  -0.4000000), wk =   0.0120000
        k(   47) = (   0.0000000   0.3000000  -0.2000000), wk =   0.0120000
        k(   48) = (   0.0000000   0.3000000  -0.4000000), wk =   0.0120000
        k(   49) = (   0.0000000   0.4000000  -0.2000000), wk =   0.0120000
        k(   50) = (   0.0000000   0.4000000  -0.4000000), wk =   0.0120000
        k(   51) = (  -0.1000000   0.3000000  -0.2000000), wk =   0.0240000
        k(   52) = (  -0.1000000   0.3000000  -0.4000000), wk =   0.0240000
        k(   53) = (  -0.1000000   0.4000000  -0.2000000), wk =   0.0240000
        k(   54) = (  -0.1000000   0.4000000  -0.4000000), wk =   0.0240000
        k(   55) = (  -0.1000000   0.5000000  -0.2000000), wk =   0.0240000
        k(   56) = (  -0.1000000   0.5000000  -0.4000000), wk =   0.0240000
        k(   57) = (  -0.2000000   0.5000000  -0.2000000), wk =   0.0240000
        k(   58) = (  -0.2000000   0.5000000  -0.4000000), wk =   0.0240000

     Dense  grid:   210441 G-vectors     FFT dimensions: (  72,  72, 120)

     Smooth grid:    74479 G-vectors     FFT dimensions: (  45,  45,  80)

     Dynamical RAM for                 wfc:       5.82 MB

     Dynamical RAM for     wfc (w. buffer):     680.51 MB

     Dynamical RAM for           str. fact:      12.84 MB

     Dynamical RAM for           local pot:       0.00 MB

     Dynamical RAM for          nlocal pot:      17.87 MB

     Dynamical RAM for                qrad:       7.03 MB

     Dynamical RAM for          rho,v,vnew:      47.74 MB

     Dynamical RAM for               rhoin:      15.91 MB

     Dynamical RAM for            rho*nmix:     102.75 MB

     Dynamical RAM for           G-vectors:      12.61 MB

     Dynamical RAM for          h,s,v(r/c):       0.31 MB

     Dynamical RAM for          <psi|beta>:       0.08 MB

     Dynamical RAM for                 psi:      11.63 MB

     Dynamical RAM for                hpsi:      11.63 MB

     Dynamical RAM for                spsi:      11.63 MB

     Dynamical RAM for      wfcinit/wfcrot:      13.67 MB

     Dynamical RAM for           addusdens:     626.16 MB

     Dynamical RAM for          addusforce:     671.18 MB

     Dynamical RAM for         addusstress:     650.24 MB

     Estimated static dynamical RAM per process >     839.06 MB

     Estimated max dynamical RAM per process >       1.58 GB
     Generating pointlists ...
     new r_m :   0.1683 (alat units)  1.5555 (a.u.) for type    1
     new r_m :   0.2526 (alat units)  2.3354 (a.u.) for type    2
     new r_m :   0.1256 (alat units)  1.1607 (a.u.) for type    3
     new r_m :   0.1256 (alat units)  1.1607 (a.u.) for type    4

     Initial potential from superposition of free atoms

     starting charge      67.9977, renormalised to      68.0000
     Starting wfcs are   48 randomized atomic wfcs
     Checking if some PAW data can be deallocated... 

     total cpu time spent up to now is        8.1 secs

     per-process dynamical memory:  1513.2 Mb

     Self-consistent Calculation
[tb_dev] Currently allocated     2.43E+00 Mbytes, locked:    0 /   8
[tb_pin] Currently allocated     0.00E+00 Mbytes, locked:    0 /   0

     iteration #  1     ecut=    60.00 Ry     beta= 0.40
     Davidson diagonalization with overlap

---- Real-time Memory Report at c_bands before calling an iterative solver
          1930 MiB given to the printing process from OS
          1495 MiB allocation reported by mallinfo(arena+hblkhd)
         57426 MiB available memory on the node where the printing process lives
     GPU memory used/free/total (MiB): 1134 / 15146 / 16280
------------------
     ethr =  1.00E-02,  avg # of iterations =  4.0

     total cpu time spent up to now is       15.6 secs

     total energy              =    -472.28022952 Ry
     estimated scf accuracy    <       3.69887067 Ry

     total magnetization       =     2.00 Bohr mag/cell
     absolute magnetization    =     2.43 Bohr mag/cell
[tb_dev] Currently allocated     2.43E+00 Mbytes, locked:    0 /   6
[tb_pin] Currently allocated     0.00E+00 Mbytes, locked:    0 /   0

     iteration #  2     ecut=    60.00 Ry     beta= 0.40
     Davidson diagonalization with overlap

---- Real-time Memory Report at c_bands before calling an iterative solver
          2227 MiB given to the printing process from OS
          1556 MiB allocation reported by mallinfo(arena+hblkhd)
         57367 MiB available memory on the node where the printing process lives
     GPU memory used/free/total (MiB): 1904 / 14376 / 16280
------------------
     ethr =  5.44E-03,  avg # of iterations =  2.0

     total cpu time spent up to now is       21.9 secs

     total energy              =    -472.01176620 Ry
     estimated scf accuracy    <       7.17877300 Ry

     total magnetization       =     3.18 Bohr mag/cell
     absolute magnetization    =     3.31 Bohr mag/cell
[tb_dev] Currently allocated     2.43E+00 Mbytes, locked:    0 /   6
[tb_pin] Currently allocated     0.00E+00 Mbytes, locked:    0 /   0

     iteration #  3     ecut=    60.00 Ry     beta= 0.40
     Davidson diagonalization with overlap

---- Real-time Memory Report at c_bands before calling an iterative solver
          2354 MiB given to the printing process from OS
          1580 MiB allocation reported by mallinfo(arena+hblkhd)
         57344 MiB available memory on the node where the printing process lives
     GPU memory used/free/total (MiB): 2032 / 14248 / 16280
------------------
     ethr =  5.44E-03,  avg # of iterations =  2.0

     total cpu time spent up to now is       27.5 secs

     total energy              =    -473.34818106 Ry
     estimated scf accuracy    <       0.88943210 Ry

     total magnetization       =     2.00 Bohr mag/cell
     absolute magnetization    =     2.29 Bohr mag/cell
[tb_dev] Currently allocated     2.43E+00 Mbytes, locked:    0 /   6
[tb_pin] Currently allocated     0.00E+00 Mbytes, locked:    0 /   0

     iteration #  4     ecut=    60.00 Ry     beta= 0.40
     Davidson diagonalization with overlap

---- Real-time Memory Report at c_bands before calling an iterative solver
          2449 MiB given to the printing process from OS
          1630 MiB allocation reported by mallinfo(arena+hblkhd)
         57320 MiB available memory on the node where the printing process lives
     GPU memory used/free/total (MiB): 2044 / 14236 / 16280
------------------
     ethr =  1.31E-03,  avg # of iterations =  1.0

     total cpu time spent up to now is       32.5 secs

     total energy              =    -473.17514898 Ry
     estimated scf accuracy    <       0.52295875 Ry

     total magnetization       =     2.00 Bohr mag/cell
     absolute magnetization    =     2.26 Bohr mag/cell
[tb_dev] Currently allocated     2.43E+00 Mbytes, locked:    0 /   6
[tb_pin] Currently allocated     0.00E+00 Mbytes, locked:    0 /   0

     iteration #  5     ecut=    60.00 Ry     beta= 0.40
     Davidson diagonalization with overlap

---- Real-time Memory Report at c_bands before calling an iterative solver
          2520 MiB given to the printing process from OS
          1655 MiB allocation reported by mallinfo(arena+hblkhd)
         57299 MiB available memory on the node where the printing process lives
     GPU memory used/free/total (MiB): 2044 / 14236 / 16280
------------------
     ethr =  7.69E-04,  avg # of iterations =  2.6

     total cpu time spent up to now is       38.5 secs

     total energy              =    -473.38004999 Ry
     estimated scf accuracy    <       0.92717829 Ry

     total magnetization       =     3.62 Bohr mag/cell
     absolute magnetization    =     3.65 Bohr mag/cell
[tb_dev] Currently allocated     2.43E+00 Mbytes, locked:    0 /   6
[tb_pin] Currently allocated     0.00E+00 Mbytes, locked:    0 /   0

     iteration #  6     ecut=    60.00 Ry     beta= 0.40
     Davidson diagonalization with overlap

---- Real-time Memory Report at c_bands before calling an iterative solver
          2552 MiB given to the printing process from OS
          1677 MiB allocation reported by mallinfo(arena+hblkhd)
         57275 MiB available memory on the node where the printing process lives
     GPU memory used/free/total (MiB): 2126 / 14154 / 16280
------------------
     ethr =  7.69E-04,  avg # of iterations =  1.0

     total cpu time spent up to now is       43.6 secs

     total energy              =    -473.37980914 Ry
     estimated scf accuracy    <       0.70870940 Ry

     total magnetization       =     3.74 Bohr mag/cell
     absolute magnetization    =     3.76 Bohr mag/cell
[tb_dev] Currently allocated     2.43E+00 Mbytes, locked:    0 /   6
[tb_pin] Currently allocated     0.00E+00 Mbytes, locked:    0 /   0

     iteration #  7     ecut=    60.00 Ry     beta= 0.40
     Davidson diagonalization with overlap

---- Real-time Memory Report at c_bands before calling an iterative solver
          2585 MiB given to the printing process from OS
          1673 MiB allocation reported by mallinfo(arena+hblkhd)
         57253 MiB available memory on the node where the printing process lives
     GPU memory used/free/total (MiB): 2126 / 14154 / 16280
------------------
     ethr =  7.69E-04,  avg # of iterations =  1.0

     total cpu time spent up to now is       48.6 secs

     total energy              =    -473.38950432 Ry
     estimated scf accuracy    <       0.76685620 Ry

     total magnetization       =     3.70 Bohr mag/cell
     absolute magnetization    =     3.73 Bohr mag/cell
[tb_dev] Currently allocated     2.43E+00 Mbytes, locked:    0 /   6
[tb_pin] Currently allocated     0.00E+00 Mbytes, locked:    0 /   0

     iteration #  8     ecut=    60.00 Ry     beta= 0.40
     Davidson diagonalization with overlap

---- Real-time Memory Report at c_bands before calling an iterative solver
          2605 MiB given to the printing process from OS
          1722 MiB allocation reported by mallinfo(arena+hblkhd)
         57231 MiB available memory on the node where the printing process lives
     GPU memory used/free/total (MiB): 2126 / 14154 / 16280
------------------
     ethr =  7.69E-04,  avg # of iterations =  1.0

     total cpu time spent up to now is       53.9 secs

     total energy              =    -473.40763205 Ry
     estimated scf accuracy    <       0.81887119 Ry

     total magnetization       =     3.72 Bohr mag/cell
     absolute magnetization    =     3.74 Bohr mag/cell
[tb_dev] Currently allocated     2.43E+00 Mbytes, locked:    0 /   6
[tb_pin] Currently allocated     0.00E+00 Mbytes, locked:    0 /   0

     iteration #  9     ecut=    60.00 Ry     beta= 0.40
     Davidson diagonalization with overlap

---- Real-time Memory Report at c_bands before calling an iterative solver
          2629 MiB given to the printing process from OS
          1746 MiB allocation reported by mallinfo(arena+hblkhd)
         57208 MiB available memory on the node where the printing process lives
     GPU memory used/free/total (MiB): 2126 / 14154 / 16280
------------------
     ethr =  7.69E-04,  avg # of iterations =  1.5

     negative rho (up, down):  0.000E+00 1.857E-02

     total cpu time spent up to now is       59.1 secs

     total energy              =    -473.36552028 Ry
     estimated scf accuracy    <       0.32870208 Ry

     total magnetization       =     4.19 Bohr mag/cell
     absolute magnetization    =     4.22 Bohr mag/cell
[tb_dev] Currently allocated     2.43E+00 Mbytes, locked:    0 /   6
[tb_pin] Currently allocated     0.00E+00 Mbytes, locked:    0 /   0

     iteration # 10     ecut=    60.00 Ry     beta= 0.40
     Davidson diagonalization with overlap

---- Real-time Memory Report at c_bands before calling an iterative solver
          2652 MiB given to the printing process from OS
          1769 MiB allocation reported by mallinfo(arena+hblkhd)
         57185 MiB available memory on the node where the printing process lives
     GPU memory used/free/total (MiB): 2126 / 14154 / 16280
------------------
     ethr =  4.83E-04,  avg # of iterations =  1.7

     negative rho (up, down):  0.000E+00 5.953E-02

     total cpu time spent up to now is       64.6 secs

     total energy              =    -473.29881428 Ry
     estimated scf accuracy    <       0.29095207 Ry

     total magnetization       =     4.02 Bohr mag/cell
     absolute magnetization    =     4.09 Bohr mag/cell
[tb_dev] Currently allocated     2.43E+00 Mbytes, locked:    0 /   6
[tb_pin] Currently allocated     0.00E+00 Mbytes, locked:    0 /   0

     iteration # 11     ecut=    60.00 Ry     beta= 0.40
     Davidson diagonalization with overlap

---- Real-time Memory Report at c_bands before calling an iterative solver
          2671 MiB given to the printing process from OS
          1786 MiB allocation reported by mallinfo(arena+hblkhd)
         57167 MiB available memory on the node where the printing process lives
     GPU memory used/free/total (MiB): 2126 / 14154 / 16280
------------------
     ethr =  4.28E-04,  avg # of iterations =  1.5

     negative rho (up, down):  0.000E+00 2.548E-03

     total cpu time spent up to now is       70.0 secs

     total energy              =    -473.35747023 Ry
     estimated scf accuracy    <       0.23970552 Ry

     total magnetization       =     4.04 Bohr mag/cell
     absolute magnetization    =     4.10 Bohr mag/cell
[tb_dev] Currently allocated     2.43E+00 Mbytes, locked:    0 /   6
[tb_pin] Currently allocated     0.00E+00 Mbytes, locked:    0 /   0

     iteration # 12     ecut=    60.00 Ry     beta= 0.40
     Davidson diagonalization with overlap

---- Real-time Memory Report at c_bands before calling an iterative solver
          2687 MiB given to the printing process from OS
          1803 MiB allocation reported by mallinfo(arena+hblkhd)
         57149 MiB available memory on the node where the printing process lives
     GPU memory used/free/total (MiB): 2126 / 14154 / 16280
------------------
     ethr =  3.53E-04,  avg # of iterations =  1.6

     negative rho (up, down):  0.000E+00 2.789E-03

     total cpu time spent up to now is       75.4 secs

     total energy              =    -473.35550712 Ry
     estimated scf accuracy    <       0.14373217 Ry

     total magnetization       =     4.12 Bohr mag/cell
     absolute magnetization    =     4.16 Bohr mag/cell
[tb_dev] Currently allocated     2.43E+00 Mbytes, locked:    0 /   6
[tb_pin] Currently allocated     0.00E+00 Mbytes, locked:    0 /   0

     iteration # 13     ecut=    60.00 Ry     beta= 0.40
     Davidson diagonalization with overlap

---- Real-time Memory Report at c_bands before calling an iterative solver
          2704 MiB given to the printing process from OS
          1820 MiB allocation reported by mallinfo(arena+hblkhd)
         57136 MiB available memory on the node where the printing process lives
     GPU memory used/free/total (MiB): 2126 / 14154 / 16280
------------------
     ethr =  2.11E-04,  avg # of iterations =  1.3

     negative rho (up, down):  0.000E+00 1.708E-03

     total cpu time spent up to now is       80.5 secs

     total energy              =    -473.34961956 Ry
     estimated scf accuracy    <       0.12720505 Ry

     total magnetization       =     4.09 Bohr mag/cell
     absolute magnetization    =     4.14 Bohr mag/cell
[tb_dev] Currently allocated     2.43E+00 Mbytes, locked:    0 /   6
[tb_pin] Currently allocated     0.00E+00 Mbytes, locked:    0 /   0

     iteration # 14     ecut=    60.00 Ry     beta= 0.40
     Davidson diagonalization with overlap

---- Real-time Memory Report at c_bands before calling an iterative solver
          2720 MiB given to the printing process from OS
          1836 MiB allocation reported by mallinfo(arena+hblkhd)
         57117 MiB available memory on the node where the printing process lives
     GPU memory used/free/total (MiB): 2126 / 14154 / 16280
------------------
     ethr =  1.87E-04,  avg # of iterations =  1.0

     total cpu time spent up to now is       85.6 secs

     total energy              =    -473.32281860 Ry
     estimated scf accuracy    <       0.10217660 Ry

     total magnetization       =     4.07 Bohr mag/cell
     absolute magnetization    =     4.12 Bohr mag/cell
[tb_dev] Currently allocated     2.43E+00 Mbytes, locked:    0 /   6
[tb_pin] Currently allocated     0.00E+00 Mbytes, locked:    0 /   0

     iteration # 15     ecut=    60.00 Ry     beta= 0.40
     Davidson diagonalization with overlap

---- Real-time Memory Report at c_bands before calling an iterative solver
          2740 MiB given to the printing process from OS
          1853 MiB allocation reported by mallinfo(arena+hblkhd)
         57099 MiB available memory on the node where the printing process lives
     GPU memory used/free/total (MiB): 2126 / 14154 / 16280
------------------
     ethr =  1.50E-04,  avg # of iterations =  5.6

     total cpu time spent up to now is       93.1 secs

     total energy              =    -473.34366591 Ry
     estimated scf accuracy    <       0.36086461 Ry

     total magnetization       =     1.80 Bohr mag/cell
     absolute magnetization    =     2.33 Bohr mag/cell
[tb_dev] Currently allocated     2.43E+00 Mbytes, locked:    0 /   6
[tb_pin] Currently allocated     0.00E+00 Mbytes, locked:    0 /   0

     iteration # 16     ecut=    60.00 Ry     beta= 0.40
     Davidson diagonalization with overlap

---- Real-time Memory Report at c_bands before calling an iterative solver
          2757 MiB given to the printing process from OS
          1869 MiB allocation reported by mallinfo(arena+hblkhd)
         57081 MiB available memory on the node where the printing process lives
     GPU memory used/free/total (MiB): 2146 / 14134 / 16280
------------------
     ethr =  1.50E-04,  avg # of iterations =  1.0

     total cpu time spent up to now is       98.2 secs

     total energy              =    -473.34141939 Ry
     estimated scf accuracy    <       0.11465178 Ry

     total magnetization       =     2.36 Bohr mag/cell
     absolute magnetization    =     2.57 Bohr mag/cell
[tb_dev] Currently allocated     2.43E+00 Mbytes, locked:    0 /   6
[tb_pin] Currently allocated     0.00E+00 Mbytes, locked:    0 /   0

     iteration # 17     ecut=    60.00 Ry     beta= 0.40
     Davidson diagonalization with overlap

---- Real-time Memory Report at c_bands before calling an iterative solver
          2774 MiB given to the printing process from OS
          1886 MiB allocation reported by mallinfo(arena+hblkhd)
         57063 MiB available memory on the node where the printing process lives
     GPU memory used/free/total (MiB): 2146 / 14134 / 16280
------------------
     ethr =  1.50E-04,  avg # of iterations =  1.0

     total cpu time spent up to now is      103.3 secs

     total energy              =    -473.34397667 Ry
     estimated scf accuracy    <       0.01044983 Ry

     total magnetization       =     3.04 Bohr mag/cell
     absolute magnetization    =     3.13 Bohr mag/cell
[tb_dev] Currently allocated     2.43E+00 Mbytes, locked:    0 /   6
[tb_pin] Currently allocated     0.00E+00 Mbytes, locked:    0 /   0

     iteration # 18     ecut=    60.00 Ry     beta= 0.40
     Davidson diagonalization with overlap

---- Real-time Memory Report at c_bands before calling an iterative solver
          2790 MiB given to the printing process from OS
          1903 MiB allocation reported by mallinfo(arena+hblkhd)
         57047 MiB available memory on the node where the printing process lives
     GPU memory used/free/total (MiB): 2146 / 14134 / 16280
------------------
     c_bands:  1 eigenvalues not converged
     c_bands:  1 eigenvalues not converged
     c_bands:  1 eigenvalues not converged
     c_bands:  1 eigenvalues not converged
     c_bands:  1 eigenvalues not converged
     c_bands:  1 eigenvalues not converged
     c_bands:  1 eigenvalues not converged
     c_bands:  1 eigenvalues not converged
     c_bands:  1 eigenvalues not converged
     c_bands:  1 eigenvalues not converged
     c_bands:  1 eigenvalues not converged
     c_bands:  1 eigenvalues not converged
     c_bands:  1 eigenvalues not converged
     ethr =  1.54E-05,  avg # of iterations = 11.3

     total cpu time spent up to now is      113.7 secs

     total energy              =    -473.34409930 Ry
     estimated scf accuracy    <       0.00844277 Ry

     total magnetization       =     2.96 Bohr mag/cell
     absolute magnetization    =     3.04 Bohr mag/cell
[tb_dev] Currently allocated     2.43E+00 Mbytes, locked:    0 /   6
[tb_pin] Currently allocated     0.00E+00 Mbytes, locked:    0 /   0

     iteration # 19     ecut=    60.00 Ry     beta= 0.40
     Davidson diagonalization with overlap

---- Real-time Memory Report at c_bands before calling an iterative solver
          2809 MiB given to the printing process from OS
          1919 MiB allocation reported by mallinfo(arena+hblkhd)
         57029 MiB available memory on the node where the printing process lives
     GPU memory used/free/total (MiB): 2146 / 14134 / 16280
------------------
     c_bands:  1 eigenvalues not converged
     ethr =  1.24E-05,  avg # of iterations =  1.8

     total cpu time spent up to now is      119.2 secs

     total energy              =    -473.34396924 Ry
     estimated scf accuracy    <       0.00460984 Ry

     total magnetization       =     3.03 Bohr mag/cell
     absolute magnetization    =     3.10 Bohr mag/cell
[tb_dev] Currently allocated     2.43E+00 Mbytes, locked:    0 /   6
[tb_pin] Currently allocated     0.00E+00 Mbytes, locked:    0 /   0

     iteration # 20     ecut=    60.00 Ry     beta= 0.40
     Davidson diagonalization with overlap

---- Real-time Memory Report at c_bands before calling an iterative solver
          2825 MiB given to the printing process from OS
          1936 MiB allocation reported by mallinfo(arena+hblkhd)
         57014 MiB available memory on the node where the printing process lives
     GPU memory used/free/total (MiB): 2146 / 14134 / 16280
------------------
     c_bands:  1 eigenvalues not converged
     c_bands:  1 eigenvalues not converged
     ethr =  6.78E-06,  avg # of iterations =  2.9

     total cpu time spent up to now is      125.4 secs

     total energy              =    -473.34508720 Ry
     estimated scf accuracy    <       0.00409544 Ry

     total magnetization       =     3.32 Bohr mag/cell
     absolute magnetization    =     3.36 Bohr mag/cell
[tb_dev] Currently allocated     2.43E+00 Mbytes, locked:    0 /   6
[tb_pin] Currently allocated     0.00E+00 Mbytes, locked:    0 /   0

     iteration # 21     ecut=    60.00 Ry     beta= 0.40
     Davidson diagonalization with overlap

---- Real-time Memory Report at c_bands before calling an iterative solver
          2846 MiB given to the printing process from OS
          1953 MiB allocation reported by mallinfo(arena+hblkhd)
         56991 MiB available memory on the node where the printing process lives
     GPU memory used/free/total (MiB): 2146 / 14134 / 16280
------------------
     ethr =  6.02E-06,  avg # of iterations =  1.2

     total cpu time spent up to now is      130.5 secs

     total energy              =    -473.34509076 Ry
     estimated scf accuracy    <       0.00174490 Ry

     total magnetization       =     3.05 Bohr mag/cell
     absolute magnetization    =     3.09 Bohr mag/cell
[tb_dev] Currently allocated     2.43E+00 Mbytes, locked:    0 /   6
[tb_pin] Currently allocated     0.00E+00 Mbytes, locked:    0 /   0

     iteration # 22     ecut=    60.00 Ry     beta= 0.40
     Davidson diagonalization with overlap

---- Real-time Memory Report at c_bands before calling an iterative solver
          2866 MiB given to the printing process from OS
          1969 MiB allocation reported by mallinfo(arena+hblkhd)
         56970 MiB available memory on the node where the printing process lives
     GPU memory used/free/total (MiB): 2146 / 14134 / 16280
------------------
     ethr =  2.57E-06,  avg # of iterations =  1.7

     total cpu time spent up to now is      135.8 secs

     total energy              =    -473.34563936 Ry
     estimated scf accuracy    <       0.00101563 Ry

     total magnetization       =     2.92 Bohr mag/cell
     absolute magnetization    =     2.97 Bohr mag/cell
[tb_dev] Currently allocated     2.43E+00 Mbytes, locked:    0 /   6
[tb_pin] Currently allocated     0.00E+00 Mbytes, locked:    0 /   0

     iteration # 23     ecut=    60.00 Ry     beta= 0.40
     Davidson diagonalization with overlap

---- Real-time Memory Report at c_bands before calling an iterative solver
          2882 MiB given to the printing process from OS
          1986 MiB allocation reported by mallinfo(arena+hblkhd)
         56955 MiB available memory on the node where the printing process lives
     GPU memory used/free/total (MiB): 2146 / 14134 / 16280
------------------
     c_bands:  1 eigenvalues not converged
     ethr =  1.49E-06,  avg # of iterations =  2.4

     total cpu time spent up to now is      141.7 secs

     total energy              =    -473.34582426 Ry
     estimated scf accuracy    <       0.00168798 Ry

     total magnetization       =     2.83 Bohr mag/cell
     absolute magnetization    =     2.88 Bohr mag/cell
[tb_dev] Currently allocated     2.43E+00 Mbytes, locked:    0 /   6
[tb_pin] Currently allocated     0.00E+00 Mbytes, locked:    0 /   0

     iteration # 24     ecut=    60.00 Ry     beta= 0.40
     Davidson diagonalization with overlap

---- Real-time Memory Report at c_bands before calling an iterative solver
          2901 MiB given to the printing process from OS
          2003 MiB allocation reported by mallinfo(arena+hblkhd)
         56937 MiB available memory on the node where the printing process lives
     GPU memory used/free/total (MiB): 2146 / 14134 / 16280
------------------
     ethr =  1.49E-06,  avg # of iterations =  1.4

     total cpu time spent up to now is      146.9 secs

     total energy              =    -473.34559633 Ry
     estimated scf accuracy    <       0.00327868 Ry

     total magnetization       =     2.97 Bohr mag/cell
     absolute magnetization    =     3.01 Bohr mag/cell
[tb_dev] Currently allocated     2.43E+00 Mbytes, locked:    0 /   6
[tb_pin] Currently allocated     0.00E+00 Mbytes, locked:    0 /   0

     iteration # 25     ecut=    60.00 Ry     beta= 0.40
     Davidson diagonalization with overlap

---- Real-time Memory Report at c_bands before calling an iterative solver
          2919 MiB given to the printing process from OS
          2019 MiB allocation reported by mallinfo(arena+hblkhd)
         56918 MiB available memory on the node where the printing process lives
     GPU memory used/free/total (MiB): 2146 / 14134 / 16280
------------------
     ethr =  1.49E-06,  avg # of iterations =  1.8

     total cpu time spent up to now is      152.5 secs

     total energy              =    -473.34210238 Ry
     estimated scf accuracy    <       0.01807706 Ry

     total magnetization       =     3.57 Bohr mag/cell
     absolute magnetization    =     3.59 Bohr mag/cell
[tb_dev] Currently allocated     2.43E+00 Mbytes, locked:    0 /   6
[tb_pin] Currently allocated     0.00E+00 Mbytes, locked:    0 /   0

     iteration # 26     ecut=    60.00 Ry     beta= 0.40
     Davidson diagonalization with overlap

---- Real-time Memory Report at c_bands before calling an iterative solver
          2938 MiB given to the printing process from OS
          2036 MiB allocation reported by mallinfo(arena+hblkhd)
         56902 MiB available memory on the node where the printing process lives
     GPU memory used/free/total (MiB): 2146 / 14134 / 16280
------------------
     ethr =  1.49E-06,  avg # of iterations =  3.1

     total cpu time spent up to now is      159.3 secs

     total energy              =    -473.34304415 Ry
     estimated scf accuracy    <       0.00257604 Ry

     total magnetization       =     3.53 Bohr mag/cell
     absolute magnetization    =     3.58 Bohr mag/cell
[tb_dev] Currently allocated     2.43E+00 Mbytes, locked:    0 /   6
[tb_pin] Currently allocated     0.00E+00 Mbytes, locked:    0 /   0

     iteration # 27     ecut=    60.00 Ry     beta= 0.40
     Davidson diagonalization with overlap

---- Real-time Memory Report at c_bands before calling an iterative solver
          2956 MiB given to the printing process from OS
         -2042 MiB allocation reported by mallinfo(arena+hblkhd)
         56880 MiB available memory on the node where the printing process lives
     GPU memory used/free/total (MiB): 2146 / 14134 / 16280
------------------
     ethr =  1.49E-06,  avg # of iterations =  1.0

     total cpu time spent up to now is      164.5 secs

     total energy              =    -473.34312009 Ry
     estimated scf accuracy    <       0.00282589 Ry

     total magnetization       =     3.57 Bohr mag/cell
     absolute magnetization    =     3.63 Bohr mag/cell
[tb_dev] Currently allocated     2.43E+00 Mbytes, locked:    0 /   6
[tb_pin] Currently allocated     0.00E+00 Mbytes, locked:    0 /   0

     iteration # 28     ecut=    60.00 Ry     beta= 0.40
     Davidson diagonalization with overlap

---- Real-time Memory Report at c_bands before calling an iterative solver
          2975 MiB given to the printing process from OS
         -2026 MiB allocation reported by mallinfo(arena+hblkhd)
         56864 MiB available memory on the node where the printing process lives
     GPU memory used/free/total (MiB): 2146 / 14134 / 16280
------------------
     ethr =  1.49E-06,  avg # of iterations =  1.0

     total cpu time spent up to now is      169.6 secs

     total energy              =    -473.34477498 Ry
     estimated scf accuracy    <       0.00176676 Ry

     total magnetization       =     3.51 Bohr mag/cell
     absolute magnetization    =     3.57 Bohr mag/cell
[tb_dev] Currently allocated     2.43E+00 Mbytes, locked:    0 /   6
[tb_pin] Currently allocated     0.00E+00 Mbytes, locked:    0 /   0

     iteration # 29     ecut=    60.00 Ry     beta= 0.40
     Davidson diagonalization with overlap

---- Real-time Memory Report at c_bands before calling an iterative solver
          2991 MiB given to the printing process from OS
         -2009 MiB allocation reported by mallinfo(arena+hblkhd)
         56841 MiB available memory on the node where the printing process lives
     GPU memory used/free/total (MiB): 2146 / 14134 / 16280
------------------
     ethr =  1.49E-06,  avg # of iterations =  2.8

     total cpu time spent up to now is      176.0 secs

     total energy              =    -473.34513573 Ry
     estimated scf accuracy    <       0.01347260 Ry

     total magnetization       =     3.53 Bohr mag/cell
     absolute magnetization    =     3.56 Bohr mag/cell
[tb_dev] Currently allocated     2.43E+00 Mbytes, locked:    0 /   6
[tb_pin] Currently allocated     0.00E+00 Mbytes, locked:    0 /   0

     iteration # 30     ecut=    60.00 Ry     beta= 0.40
     Davidson diagonalization with overlap

---- Real-time Memory Report at c_bands before calling an iterative solver
          3010 MiB given to the printing process from OS
         -1992 MiB allocation reported by mallinfo(arena+hblkhd)
         56825 MiB available memory on the node where the printing process lives
     GPU memory used/free/total (MiB): 2146 / 14134 / 16280
------------------
     ethr =  1.49E-06,  avg # of iterations =  2.0

     total cpu time spent up to now is      181.6 secs

     total energy              =    -473.34640992 Ry
     estimated scf accuracy    <       0.00357522 Ry

     total magnetization       =     2.96 Bohr mag/cell
     absolute magnetization    =     3.00 Bohr mag/cell
[tb_dev] Currently allocated     2.43E+00 Mbytes, locked:    0 /   6
[tb_pin] Currently allocated     0.00E+00 Mbytes, locked:    0 /   0

     iteration # 31     ecut=    60.00 Ry     beta= 0.40
     Davidson diagonalization with overlap

---- Real-time Memory Report at c_bands before calling an iterative solver
          3029 MiB given to the printing process from OS
         -1976 MiB allocation reported by mallinfo(arena+hblkhd)
         56805 MiB available memory on the node where the printing process lives
     GPU memory used/free/total (MiB): 2146 / 14134 / 16280
------------------
     ethr =  1.49E-06,  avg # of iterations =  1.0

     total cpu time spent up to now is      186.6 secs

     total energy              =    -473.34627817 Ry
     estimated scf accuracy    <       0.00374337 Ry

     total magnetization       =     2.83 Bohr mag/cell
     absolute magnetization    =     2.89 Bohr mag/cell
[tb_dev] Currently allocated     2.43E+00 Mbytes, locked:    0 /   6
[tb_pin] Currently allocated     0.00E+00 Mbytes, locked:    0 /   0

     iteration # 32     ecut=    60.00 Ry     beta= 0.40
     Davidson diagonalization with overlap

---- Real-time Memory Report at c_bands before calling an iterative solver
          3046 MiB given to the printing process from OS
         -1959 MiB allocation reported by mallinfo(arena+hblkhd)
         56791 MiB available memory on the node where the printing process lives
     GPU memory used/free/total (MiB): 2146 / 14134 / 16280
------------------
     ethr =  1.49E-06,  avg # of iterations =  1.0

     total cpu time spent up to now is      191.7 secs

     total energy              =    -473.34547297 Ry
     estimated scf accuracy    <       0.00157583 Ry

     total magnetization       =     2.72 Bohr mag/cell
     absolute magnetization    =     2.83 Bohr mag/cell
[tb_dev] Currently allocated     2.43E+00 Mbytes, locked:    0 /   6
[tb_pin] Currently allocated     0.00E+00 Mbytes, locked:    0 /   0

     iteration # 33     ecut=    60.00 Ry     beta= 0.40
     Davidson diagonalization with overlap

---- Real-time Memory Report at c_bands before calling an iterative solver
          3063 MiB given to the printing process from OS
         -1942 MiB allocation reported by mallinfo(arena+hblkhd)
         56773 MiB available memory on the node where the printing process lives
     GPU memory used/free/total (MiB): 2146 / 14134 / 16280
------------------
     ethr =  1.49E-06,  avg # of iterations =  1.5

     total cpu time spent up to now is      196.9 secs

     total energy              =    -473.34517338 Ry
     estimated scf accuracy    <       0.00091342 Ry

     total magnetization       =     2.90 Bohr mag/cell
     absolute magnetization    =     2.95 Bohr mag/cell
[tb_dev] Currently allocated     2.43E+00 Mbytes, locked:    0 /   6
[tb_pin] Currently allocated     0.00E+00 Mbytes, locked:    0 /   0

     iteration # 34     ecut=    60.00 Ry     beta= 0.40
     Davidson diagonalization with overlap

---- Real-time Memory Report at c_bands before calling an iterative solver
          3083 MiB given to the printing process from OS
         -1926 MiB allocation reported by mallinfo(arena+hblkhd)
         56757 MiB available memory on the node where the printing process lives
     GPU memory used/free/total (MiB): 2146 / 14134 / 16280
------------------
     ethr =  1.34E-06,  avg # of iterations =  1.0

     total cpu time spent up to now is      201.9 secs

     total energy              =    -473.34598570 Ry
     estimated scf accuracy    <       0.00131157 Ry

     total magnetization       =     3.07 Bohr mag/cell
     absolute magnetization    =     3.12 Bohr mag/cell
[tb_dev] Currently allocated     2.43E+00 Mbytes, locked:    0 /   6
[tb_pin] Currently allocated     0.00E+00 Mbytes, locked:    0 /   0

     iteration # 35     ecut=    60.00 Ry     beta= 0.40
     Davidson diagonalization with overlap

---- Real-time Memory Report at c_bands before calling an iterative solver
          3101 MiB given to the printing process from OS
         -1904 MiB allocation reported by mallinfo(arena+hblkhd)
         56736 MiB available memory on the node where the printing process lives
     GPU memory used/free/total (MiB): 2146 / 14134 / 16280
------------------
     ethr =  1.34E-06,  avg # of iterations =  2.0

     total cpu time spent up to now is      207.7 secs

     total energy              =    -473.34210504 Ry
     estimated scf accuracy    <       0.00302065 Ry

     total magnetization       =     2.62 Bohr mag/cell
     absolute magnetization    =     2.88 Bohr mag/cell
[tb_dev] Currently allocated     2.43E+00 Mbytes, locked:    0 /   6
[tb_pin] Currently allocated     0.00E+00 Mbytes, locked:    0 /   0

     iteration # 36     ecut=    60.00 Ry     beta= 0.40
     Davidson diagonalization with overlap

---- Real-time Memory Report at c_bands before calling an iterative solver
          3119 MiB given to the printing process from OS
         -1888 MiB allocation reported by mallinfo(arena+hblkhd)
         56720 MiB available memory on the node where the printing process lives
     GPU memory used/free/total (MiB): 2146 / 14134 / 16280
------------------
     ethr =  1.34E-06,  avg # of iterations =  2.5

     total cpu time spent up to now is      214.0 secs

     total energy              =    -473.34166729 Ry
     estimated scf accuracy    <       0.00063465 Ry

     total magnetization       =     3.20 Bohr mag/cell
     absolute magnetization    =     3.24 Bohr mag/cell
[tb_dev] Currently allocated     2.43E+00 Mbytes, locked:    0 /   6
[tb_pin] Currently allocated     0.00E+00 Mbytes, locked:    0 /   0

     iteration # 37     ecut=    60.00 Ry     beta= 0.40
     Davidson diagonalization with overlap

---- Real-time Memory Report at c_bands before calling an iterative solver
          3136 MiB given to the printing process from OS
         -1871 MiB allocation reported by mallinfo(arena+hblkhd)
         56700 MiB available memory on the node where the printing process lives
     GPU memory used/free/total (MiB): 2146 / 14134 / 16280
------------------
     c_bands:  1 eigenvalues not converged
     ethr =  9.33E-07,  avg # of iterations =  3.9

     total cpu time spent up to now is      221.4 secs

     total energy              =    -473.34242980 Ry
     estimated scf accuracy    <       0.00073202 Ry

     total magnetization       =     3.43 Bohr mag/cell
     absolute magnetization    =     3.51 Bohr mag/cell
[tb_dev] Currently allocated     2.43E+00 Mbytes, locked:    0 /   6
[tb_pin] Currently allocated     0.00E+00 Mbytes, locked:    0 /   0

     iteration # 38     ecut=    60.00 Ry     beta= 0.40
     Davidson diagonalization with overlap

---- Real-time Memory Report at c_bands before calling an iterative solver
          3155 MiB given to the printing process from OS
         -1854 MiB allocation reported by mallinfo(arena+hblkhd)
         56687 MiB available memory on the node where the printing process lives
     GPU memory used/free/total (MiB): 2146 / 14134 / 16280
------------------
     ethr =  9.33E-07,  avg # of iterations =  1.0

     total cpu time spent up to now is      226.5 secs

     total energy              =    -473.34308927 Ry
     estimated scf accuracy    <       0.00081178 Ry

     total magnetization       =     3.44 Bohr mag/cell
     absolute magnetization    =     3.52 Bohr mag/cell
[tb_dev] Currently allocated     2.43E+00 Mbytes, locked:    0 /   6
[tb_pin] Currently allocated     0.00E+00 Mbytes, locked:    0 /   0

     iteration # 39     ecut=    60.00 Ry     beta= 0.40
     Davidson diagonalization with overlap

---- Real-time Memory Report at c_bands before calling an iterative solver
          3172 MiB given to the printing process from OS
         -1838 MiB allocation reported by mallinfo(arena+hblkhd)
         56668 MiB available memory on the node where the printing process lives
     GPU memory used/free/total (MiB): 2146 / 14134 / 16280
------------------
     ethr =  9.33E-07,  avg # of iterations =  1.5

     total cpu time spent up to now is      231.7 secs

     total energy              =    -473.34375199 Ry
     estimated scf accuracy    <       0.00068557 Ry

     total magnetization       =     3.34 Bohr mag/cell
     absolute magnetization    =     3.42 Bohr mag/cell
[tb_dev] Currently allocated     2.43E+00 Mbytes, locked:    0 /   6
[tb_pin] Currently allocated     0.00E+00 Mbytes, locked:    0 /   0

     iteration # 40     ecut=    60.00 Ry     beta= 0.40
     Davidson diagonalization with overlap

---- Real-time Memory Report at c_bands before calling an iterative solver
          3191 MiB given to the printing process from OS
         -1816 MiB allocation reported by mallinfo(arena+hblkhd)
         56650 MiB available memory on the node where the printing process lives
     GPU memory used/free/total (MiB): 2146 / 14134 / 16280
------------------
     ethr =  9.33E-07,  avg # of iterations =  2.0

     total cpu time spent up to now is      237.4 secs

     total energy              =    -473.34390517 Ry
     estimated scf accuracy    <       0.00045765 Ry

     total magnetization       =     3.26 Bohr mag/cell
     absolute magnetization    =     3.32 Bohr mag/cell
[tb_dev] Currently allocated     2.43E+00 Mbytes, locked:    0 /   6
[tb_pin] Currently allocated     0.00E+00 Mbytes, locked:    0 /   0

     iteration # 41     ecut=    60.00 Ry     beta= 0.40
     Davidson diagonalization with overlap

---- Real-time Memory Report at c_bands before calling an iterative solver
          3210 MiB given to the printing process from OS
         -1800 MiB allocation reported by mallinfo(arena+hblkhd)
         56627 MiB available memory on the node where the printing process lives
     GPU memory used/free/total (MiB): 2146 / 14134 / 16280
------------------
     ethr =  6.73E-07,  avg # of iterations =  1.0

     total cpu time spent up to now is      242.4 secs

     total energy              =    -473.34382108 Ry
     estimated scf accuracy    <       0.00048253 Ry

     total magnetization       =     3.25 Bohr mag/cell
     absolute magnetization    =     3.31 Bohr mag/cell
[tb_dev] Currently allocated     2.43E+00 Mbytes, locked:    0 /   6
[tb_pin] Currently allocated     0.00E+00 Mbytes, locked:    0 /   0

     iteration # 42     ecut=    60.00 Ry     beta= 0.40
     Davidson diagonalization with overlap

---- Real-time Memory Report at c_bands before calling an iterative solver
          3227 MiB given to the printing process from OS
         -1783 MiB allocation reported by mallinfo(arena+hblkhd)
         56615 MiB available memory on the node where the printing process lives
     GPU memory used/free/total (MiB): 2146 / 14134 / 16280
------------------
     ethr =  6.73E-07,  avg # of iterations =  1.0

     total cpu time spent up to now is      247.5 secs

     total energy              =    -473.34401722 Ry
     estimated scf accuracy    <       0.00048374 Ry

     total magnetization       =     3.26 Bohr mag/cell
     absolute magnetization    =     3.33 Bohr mag/cell
[tb_dev] Currently allocated     2.43E+00 Mbytes, locked:    0 /   6
[tb_pin] Currently allocated     0.00E+00 Mbytes, locked:    0 /   0

     iteration # 43     ecut=    60.00 Ry     beta= 0.40
     Davidson diagonalization with overlap

---- Real-time Memory Report at c_bands before calling an iterative solver
          3246 MiB given to the printing process from OS
         -1761 MiB allocation reported by mallinfo(arena+hblkhd)
         56591 MiB available memory on the node where the printing process lives
     GPU memory used/free/total (MiB): 2146 / 14134 / 16280
------------------
     ethr =  6.73E-07,  avg # of iterations =  1.0

     total cpu time spent up to now is      252.5 secs

     total energy              =    -473.34457226 Ry
     estimated scf accuracy    <       0.00044042 Ry

     total magnetization       =     3.23 Bohr mag/cell
     absolute magnetization    =     3.29 Bohr mag/cell
[tb_dev] Currently allocated     2.43E+00 Mbytes, locked:    0 /   6
[tb_pin] Currently allocated     0.00E+00 Mbytes, locked:    0 /   0

     iteration # 44     ecut=    60.00 Ry     beta= 0.40
     Davidson diagonalization with overlap

---- Real-time Memory Report at c_bands before calling an iterative solver
          3265 MiB given to the printing process from OS
         -1744 MiB allocation reported by mallinfo(arena+hblkhd)
         56576 MiB available memory on the node where the printing process lives
     GPU memory used/free/total (MiB): 2146 / 14134 / 16280
------------------
     ethr =  6.48E-07,  avg # of iterations =  3.0

     total cpu time spent up to now is      259.3 secs

     total energy              =    -473.34604274 Ry
     estimated scf accuracy    <       0.00059800 Ry

     total magnetization       =     2.83 Bohr mag/cell
     absolute magnetization    =     2.89 Bohr mag/cell
[tb_dev] Currently allocated     2.43E+00 Mbytes, locked:    0 /   6
[tb_pin] Currently allocated     0.00E+00 Mbytes, locked:    0 /   0

     iteration # 45     ecut=    60.00 Ry     beta= 0.40
     Davidson diagonalization with overlap

---- Real-time Memory Report at c_bands before calling an iterative solver
          3282 MiB given to the printing process from OS
         -1728 MiB allocation reported by mallinfo(arena+hblkhd)
         56557 MiB available memory on the node where the printing process lives
     GPU memory used/free/total (MiB): 2146 / 14134 / 16280
------------------
     ethr =  6.48E-07,  avg # of iterations =  1.9

     total cpu time spent up to now is      265.1 secs

     total energy              =    -473.34676479 Ry
     estimated scf accuracy    <       0.00087522 Ry

     total magnetization       =     2.67 Bohr mag/cell
     absolute magnetization    =     2.81 Bohr mag/cell
[tb_dev] Currently allocated     2.43E+00 Mbytes, locked:    0 /   6
[tb_pin] Currently allocated     0.00E+00 Mbytes, locked:    0 /   0

     iteration # 46     ecut=    60.00 Ry     beta= 0.40
     Davidson diagonalization with overlap

---- Real-time Memory Report at c_bands before calling an iterative solver
          3301 MiB given to the printing process from OS
         -1707 MiB allocation reported by mallinfo(arena+hblkhd)
         56540 MiB available memory on the node where the printing process lives
     GPU memory used/free/total (MiB): 2146 / 14134 / 16280
------------------
     ethr =  6.48E-07,  avg # of iterations =  2.0

     total cpu time spent up to now is      270.8 secs

     total energy              =    -473.34760265 Ry
     estimated scf accuracy    <       0.00141472 Ry

     total magnetization       =     2.50 Bohr mag/cell
     absolute magnetization    =     2.94 Bohr mag/cell
[tb_dev] Currently allocated     2.43E+00 Mbytes, locked:    0 /   6
[tb_pin] Currently allocated     0.00E+00 Mbytes, locked:    0 /   0

     iteration # 47     ecut=    60.00 Ry     beta= 0.40
     Davidson diagonalization with overlap

---- Real-time Memory Report at c_bands before calling an iterative solver
          3320 MiB given to the printing process from OS
         -1690 MiB allocation reported by mallinfo(arena+hblkhd)
         56521 MiB available memory on the node where the printing process lives
     GPU memory used/free/total (MiB): 2146 / 14134 / 16280
------------------
     ethr =  6.48E-07,  avg # of iterations =  1.7

     total cpu time spent up to now is      276.3 secs

     total energy              =    -473.34469989 Ry
     estimated scf accuracy    <       0.00222702 Ry

     total magnetization       =     2.32 Bohr mag/cell
     absolute magnetization    =     3.11 Bohr mag/cell
[tb_dev] Currently allocated     2.43E+00 Mbytes, locked:    0 /   6
[tb_pin] Currently allocated     0.00E+00 Mbytes, locked:    0 /   0

     iteration # 48     ecut=    60.00 Ry     beta= 0.40
     Davidson diagonalization with overlap

---- Real-time Memory Report at c_bands before calling an iterative solver
          3335 MiB given to the printing process from OS
         -1673 MiB allocation reported by mallinfo(arena+hblkhd)
         56504 MiB available memory on the node where the printing process lives
     GPU memory used/free/total (MiB): 2146 / 14134 / 16280
------------------
     ethr =  6.48E-07,  avg # of iterations =  2.1

     total cpu time spent up to now is      282.2 secs

     total energy              =    -473.34650705 Ry
     estimated scf accuracy    <       0.00067877 Ry

     total magnetization       =     2.78 Bohr mag/cell
     absolute magnetization    =     2.85 Bohr mag/cell
[tb_dev] Currently allocated     2.43E+00 Mbytes, locked:    0 /   6
[tb_pin] Currently allocated     0.00E+00 Mbytes, locked:    0 /   0

     iteration # 49     ecut=    60.00 Ry     beta= 0.40
     Davidson diagonalization with overlap

---- Real-time Memory Report at c_bands before calling an iterative solver
          3354 MiB given to the printing process from OS
         -1652 MiB allocation reported by mallinfo(arena+hblkhd)
         56484 MiB available memory on the node where the printing process lives
     GPU memory used/free/total (MiB): 2146 / 14134 / 16280
------------------
     ethr =  6.48E-07,  avg # of iterations =  2.0

     total cpu time spent up to now is      287.7 secs

     total energy              =    -473.34664341 Ry
     estimated scf accuracy    <       0.00142841 Ry

     total magnetization       =     2.53 Bohr mag/cell
     absolute magnetization    =     2.91 Bohr mag/cell
[tb_dev] Currently allocated     2.43E+00 Mbytes, locked:    0 /   6
[tb_pin] Currently allocated     0.00E+00 Mbytes, locked:    0 /   0

     iteration # 50     ecut=    60.00 Ry     beta= 0.40
     Davidson diagonalization with overlap

---- Real-time Memory Report at c_bands before calling an iterative solver
          3374 MiB given to the printing process from OS
         -1636 MiB allocation reported by mallinfo(arena+hblkhd)
         56469 MiB available memory on the node where the printing process lives
     GPU memory used/free/total (MiB): 2146 / 14134 / 16280
------------------
     ethr =  6.48E-07,  avg # of iterations =  1.0

     total cpu time spent up to now is      292.7 secs

     total energy              =    -473.34126080 Ry
     estimated scf accuracy    <       0.00127635 Ry

     total magnetization       =     2.58 Bohr mag/cell
     absolute magnetization    =     2.87 Bohr mag/cell
[tb_dev] Currently allocated     2.43E+00 Mbytes, locked:    0 /   6
[tb_pin] Currently allocated     0.00E+00 Mbytes, locked:    0 /   0

     iteration # 51     ecut=    60.00 Ry     beta= 0.40
     Davidson diagonalization with overlap

---- Real-time Memory Report at c_bands before calling an iterative solver
          3391 MiB given to the printing process from OS
         -1619 MiB allocation reported by mallinfo(arena+hblkhd)
         56452 MiB available memory on the node where the printing process lives
     GPU memory used/free/total (MiB): 2146 / 14134 / 16280
------------------
     ethr =  6.48E-07,  avg # of iterations =  3.8

     total cpu time spent up to now is      300.1 secs

     total energy              =    -473.33895551 Ry
     estimated scf accuracy    <       0.00060637 Ry

     total magnetization       =     3.27 Bohr mag/cell
     absolute magnetization    =     3.32 Bohr mag/cell
[tb_dev] Currently allocated     2.43E+00 Mbytes, locked:    0 /   6
[tb_pin] Currently allocated     0.00E+00 Mbytes, locked:    0 /   0

     iteration # 52     ecut=    60.00 Ry     beta= 0.40
     Davidson diagonalization with overlap

---- Real-time Memory Report at c_bands before calling an iterative solver
          3410 MiB given to the printing process from OS
         -1597 MiB allocation reported by mallinfo(arena+hblkhd)
         56430 MiB available memory on the node where the printing process lives
     GPU memory used/free/total (MiB): 2146 / 14134 / 16280
------------------
     ethr =  6.48E-07,  avg # of iterations =  4.1

     total cpu time spent up to now is      308.0 secs

     total energy              =    -473.34193266 Ry
     estimated scf accuracy    <       0.00152197 Ry

     total magnetization       =     3.52 Bohr mag/cell
     absolute magnetization    =     3.62 Bohr mag/cell
[tb_dev] Currently allocated     2.43E+00 Mbytes, locked:    0 /   6
[tb_pin] Currently allocated     0.00E+00 Mbytes, locked:    0 /   0

     iteration # 53     ecut=    60.00 Ry     beta= 0.40
     Davidson diagonalization with overlap

---- Real-time Memory Report at c_bands before calling an iterative solver
          3427 MiB given to the printing process from OS
         -1580 MiB allocation reported by mallinfo(arena+hblkhd)
         56410 MiB available memory on the node where the printing process lives
     GPU memory used/free/total (MiB): 2146 / 14134 / 16280
------------------
     ethr =  6.48E-07,  avg # of iterations =  5.0

     total cpu time spent up to now is      316.5 secs

     total energy              =    -473.34560092 Ry
     estimated scf accuracy    <       0.00047806 Ry

     total magnetization       =     2.93 Bohr mag/cell
     absolute magnetization    =     2.99 Bohr mag/cell
[tb_dev] Currently allocated     2.43E+00 Mbytes, locked:    0 /   6
[tb_pin] Currently allocated     0.00E+00 Mbytes, locked:    0 /   0

     iteration # 54     ecut=    60.00 Ry     beta= 0.40
     Davidson diagonalization with overlap

---- Real-time Memory Report at c_bands before calling an iterative solver
          3446 MiB given to the printing process from OS
         -1564 MiB allocation reported by mallinfo(arena+hblkhd)
         56395 MiB available memory on the node where the printing process lives
     GPU memory used/free/total (MiB): 2146 / 14134 / 16280
------------------
     ethr =  6.48E-07,  avg # of iterations =  3.8

     total cpu time spent up to now is      324.0 secs

     total energy              =    -473.35187544 Ry
     estimated scf accuracy    <       0.00375339 Ry

     total magnetization       =     2.09 Bohr mag/cell
     absolute magnetization    =     3.35 Bohr mag/cell
[tb_dev] Currently allocated     2.43E+00 Mbytes, locked:    0 /   6
[tb_pin] Currently allocated     0.00E+00 Mbytes, locked:    0 /   0

     iteration # 55     ecut=    60.00 Ry     beta= 0.40
     Davidson diagonalization with overlap

---- Real-time Memory Report at c_bands before calling an iterative solver
          3465 MiB given to the printing process from OS
         -1543 MiB allocation reported by mallinfo(arena+hblkhd)
         56376 MiB available memory on the node where the printing process lives
     GPU memory used/free/total (MiB): 2146 / 14134 / 16280
------------------
     ethr =  6.48E-07,  avg # of iterations =  2.7

     total cpu time spent up to now is      330.6 secs

     total energy              =    -473.34566484 Ry
     estimated scf accuracy    <       0.00985365 Ry

     total magnetization       =     1.80 Bohr mag/cell
     absolute magnetization    =     3.73 Bohr mag/cell
[tb_dev] Currently allocated     2.43E+00 Mbytes, locked:    0 /   6
[tb_pin] Currently allocated     0.00E+00 Mbytes, locked:    0 /   0

     iteration # 56     ecut=    60.00 Ry     beta= 0.40
     Davidson diagonalization with overlap

---- Real-time Memory Report at c_bands before calling an iterative solver
          3482 MiB given to the printing process from OS
         -1526 MiB allocation reported by mallinfo(arena+hblkhd)
         56357 MiB available memory on the node where the printing process lives
     GPU memory used/free/total (MiB): 2146 / 14134 / 16280
------------------
     ethr =  6.48E-07,  avg # of iterations =  2.8

     total cpu time spent up to now is      337.3 secs

     total energy              =    -473.34747912 Ry
     estimated scf accuracy    <       0.00222657 Ry

     total magnetization       =     2.32 Bohr mag/cell
     absolute magnetization    =     3.11 Bohr mag/cell
[tb_dev] Currently allocated     2.43E+00 Mbytes, locked:    0 /   6
[tb_pin] Currently allocated     0.00E+00 Mbytes, locked:    0 /   0

     iteration # 57     ecut=    60.00 Ry     beta= 0.40
     Davidson diagonalization with overlap

---- Real-time Memory Report at c_bands before calling an iterative solver
          3500 MiB given to the printing process from OS
         -1509 MiB allocation reported by mallinfo(arena+hblkhd)
         56340 MiB available memory on the node where the printing process lives
     GPU memory used/free/total (MiB): 2146 / 14134 / 16280
------------------
     ethr =  6.48E-07,  avg # of iterations =  1.0

     total cpu time spent up to now is      342.3 secs

     total energy              =    -473.34674617 Ry
     estimated scf accuracy    <       0.00194722 Ry

     total magnetization       =     2.37 Bohr mag/cell
     absolute magnetization    =     3.06 Bohr mag/cell
[tb_dev] Currently allocated     2.43E+00 Mbytes, locked:    0 /   6
[tb_pin] Currently allocated     0.00E+00 Mbytes, locked:    0 /   0

     iteration # 58     ecut=    60.00 Ry     beta= 0.40
     Davidson diagonalization with overlap

---- Real-time Memory Report at c_bands before calling an iterative solver
          3520 MiB given to the printing process from OS
         -1488 MiB allocation reported by mallinfo(arena+hblkhd)
         56321 MiB available memory on the node where the printing process lives
     GPU memory used/free/total (MiB): 2146 / 14134 / 16280
------------------
     ethr =  6.48E-07,  avg # of iterations =  1.4

     total cpu time spent up to now is      347.6 secs

     total energy              =    -473.34677049 Ry
     estimated scf accuracy    <       0.00137922 Ry

     total magnetization       =     2.51 Bohr mag/cell
     absolute magnetization    =     2.91 Bohr mag/cell
[tb_dev] Currently allocated     2.43E+00 Mbytes, locked:    0 /   6
[tb_pin] Currently allocated     0.00E+00 Mbytes, locked:    0 /   0

     iteration # 59     ecut=    60.00 Ry     beta= 0.40
     Davidson diagonalization with overlap

---- Real-time Memory Report at c_bands before calling an iterative solver
          3536 MiB given to the printing process from OS
         -1471 MiB allocation reported by mallinfo(arena+hblkhd)
         56307 MiB available memory on the node where the printing process lives
     GPU memory used/free/total (MiB): 2146 / 14134 / 16280
------------------
     ethr =  6.48E-07,  avg # of iterations =  1.0

     total cpu time spent up to now is      352.6 secs

     total energy              =    -473.34547580 Ry
     estimated scf accuracy    <       0.00131672 Ry

     total magnetization       =     2.53 Bohr mag/cell
     absolute magnetization    =     2.90 Bohr mag/cell
[tb_dev] Currently allocated     2.43E+00 Mbytes, locked:    0 /   6
[tb_pin] Currently allocated     0.00E+00 Mbytes, locked:    0 /   0

     iteration # 60     ecut=    60.00 Ry     beta= 0.40
     Davidson diagonalization with overlap

---- Real-time Memory Report at c_bands before calling an iterative solver
          3555 MiB given to the printing process from OS
         -1454 MiB allocation reported by mallinfo(arena+hblkhd)
         56286 MiB available memory on the node where the printing process lives
     GPU memory used/free/total (MiB): 2146 / 14134 / 16280
------------------
     ethr =  6.48E-07,  avg # of iterations =  2.0

     total cpu time spent up to now is      358.3 secs

     total energy              =    -473.34378410 Ry
     estimated scf accuracy    <       0.00070299 Ry

     total magnetization       =     2.80 Bohr mag/cell
     absolute magnetization    =     2.86 Bohr mag/cell
[tb_dev] Currently allocated     2.43E+00 Mbytes, locked:    0 /   6
[tb_pin] Currently allocated     0.00E+00 Mbytes, locked:    0 /   0

     iteration # 61     ecut=    60.00 Ry     beta= 0.40
     Davidson diagonalization with overlap

---- Real-time Memory Report at c_bands before calling an iterative solver
          3572 MiB given to the printing process from OS
         -1433 MiB allocation reported by mallinfo(arena+hblkhd)
         56268 MiB available memory on the node where the printing process lives
     GPU memory used/free/total (MiB): 2146 / 14134 / 16280
------------------
     ethr =  6.48E-07,  avg # of iterations =  2.7

     total cpu time spent up to now is      364.8 secs

     total energy              =    -473.34368315 Ry
     estimated scf accuracy    <       0.00044842 Ry

     total magnetization       =     3.16 Bohr mag/cell
     absolute magnetization    =     3.21 Bohr mag/cell
[tb_dev] Currently allocated     2.43E+00 Mbytes, locked:    0 /   6
[tb_pin] Currently allocated     0.00E+00 Mbytes, locked:    0 /   0

     iteration # 62     ecut=    60.00 Ry     beta= 0.40
     Davidson diagonalization with overlap

---- Real-time Memory Report at c_bands before calling an iterative solver
          3594 MiB given to the printing process from OS
         -1416 MiB allocation reported by mallinfo(arena+hblkhd)
         56250 MiB available memory on the node where the printing process lives
     GPU memory used/free/total (MiB): 2146 / 14134 / 16280
------------------
     ethr =  6.48E-07,  avg # of iterations =  2.0

     total cpu time spent up to now is      370.5 secs

     total energy              =    -473.34453832 Ry
     estimated scf accuracy    <       0.00055216 Ry

     total magnetization       =     3.31 Bohr mag/cell
     absolute magnetization    =     3.37 Bohr mag/cell
[...]
[tb_dev] Currently allocated     2.43E+00 Mbytes, locked:    0 /   6
[tb_pin] Currently allocated     0.00E+00 Mbytes, locked:    0 /   0

     iteration # 65     ecut=    60.00 Ry     beta= 0.40
     Davidson diagonalization with overlap

---- Real-time Memory Report at c_bands before calling an iterative solver
          3646 MiB given to the printing process from OS
         -1361 MiB allocation reported by mallinfo(arena+hblkhd)
         56193 MiB available memory on the node where the printing process lives
     GPU memory used/free/total (MiB): 2146 / 14134 / 16280
------------------
     ethr =  6.48E-07,  avg # of iterations =  2.0

     total cpu time spent up to now is      389.4 secs

     total energy              =    -473.34216057 Ry
     estimated scf accuracy    <       0.00453637 Ry

     total magnetization       =     2.21 Bohr mag/cell
     absolute magnetization    =     3.27 Bohr mag/cell
[tb_dev] Currently allocated     2.43E+00 Mbytes, locked:    0 /   6
[tb_pin] Currently allocated     0.00E+00 Mbytes, locked:    0 /   0

     iteration # 66     ecut=    60.00 Ry     beta= 0.40
     Davidson diagonalization with overlap

---- Real-time Memory Report at c_bands before calling an iterative solver
          3665 MiB given to the printing process from OS
         -1344 MiB allocation reported by mallinfo(arena+hblkhd)
         56180 MiB available memory on the node where the printing process lives
     GPU memory used/free/total (MiB): 2146 / 14134 / 16280
------------------
     ethr =  6.48E-07,  avg # of iterations =  3.2

     total cpu time spent up to now is      396.6 secs

     total energy              =    -473.34592519 Ry
     estimated scf accuracy    <       0.00066329 Ry

     total magnetization       =     2.97 Bohr mag/cell
     absolute magnetization    =     3.01 Bohr mag/cell
[tb_dev] Currently allocated     2.43E+00 Mbytes, locked:    0 /   6
[tb_pin] Currently allocated     0.00E+00 Mbytes, locked:    0 /   0

     iteration # 67     ecut=    60.00 Ry     beta= 0.40
     Davidson diagonalization with overlap

---- Real-time Memory Report at c_bands before calling an iterative solver
          3682 MiB given to the printing process from OS
         -1327 MiB allocation reported by mallinfo(arena+hblkhd)
         56162 MiB available memory on the node where the printing process lives
     GPU memory used/free/total (MiB): 2146 / 14134 / 16280
------------------
     ethr =  6.48E-07,  avg # of iterations =  3.5

     total cpu time spent up to now is      403.8 secs

     total energy              =    -473.34788413 Ry
     estimated scf accuracy    <       0.00487767 Ry

     total magnetization       =     2.19 Bohr mag/cell
     absolute magnetization    =     3.29 Bohr mag/cell
[tb_dev] Currently allocated     2.43E+00 Mbytes, locked:    0 /   6
[tb_pin] Currently allocated     0.00E+00 Mbytes, locked:    0 /   0

     iteration # 68     ecut=    60.00 Ry     beta= 0.40
     Davidson diagonalization with overlap

---- Real-time Memory Report at c_bands before calling an iterative solver
          3701 MiB given to the printing process from OS
         -1306 MiB allocation reported by mallinfo(arena+hblkhd)
         56138 MiB available memory on the node where the printing process lives
     GPU memory used/free/total (MiB): 2146 / 14134 / 16280
------------------
     ethr =  6.48E-07,  avg # of iterations =  1.3

     total cpu time spent up to now is      408.9 secs

     total energy              =    -473.34326477 Ry
     estimated scf accuracy    <       0.00340637 Ry

     total magnetization       =     2.34 Bohr mag/cell
     absolute magnetization    =     3.13 Bohr mag/cell
[tb_dev] Currently allocated     2.43E+00 Mbytes, locked:    0 /   6
[tb_pin] Currently allocated     0.00E+00 Mbytes, locked:    0 /   0

     iteration # 69     ecut=    60.00 Ry     beta= 0.40
     Davidson diagonalization with overlap

---- Real-time Memory Report at c_bands before calling an iterative solver
          3720 MiB given to the printing process from OS
         -1289 MiB allocation reported by mallinfo(arena+hblkhd)
         56122 MiB available memory on the node where the printing process lives
     GPU memory used/free/total (MiB): 2146 / 14134 / 16280
------------------
     ethr =  6.48E-07,  avg # of iterations =  3.0

     total cpu time spent up to now is      415.7 secs

     total energy              =    -473.34598520 Ry
     estimated scf accuracy    <       0.00063284 Ry

     total magnetization       =     2.95 Bohr mag/cell
     absolute magnetization    =     2.99 Bohr mag/cell
[tb_dev] Currently allocated     2.43E+00 Mbytes, locked:    0 /   6
[tb_pin] Currently allocated     0.00E+00 Mbytes, locked:    0 /   0

     iteration # 70     ecut=    60.00 Ry     beta= 0.40
     Davidson diagonalization with overlap

---- Real-time Memory Report at c_bands before calling an iterative solver
          3738 MiB given to the printing process from OS
         -1272 MiB allocation reported by mallinfo(arena+hblkhd)
         56105 MiB available memory on the node where the printing process lives
     GPU memory used/free/total (MiB): 2146 / 14134 / 16280
------------------
     ethr =  6.48E-07,  avg # of iterations =  2.0

     total cpu time spent up to now is      421.3 secs

     total energy              =    -473.34596952 Ry
     estimated scf accuracy    <       0.00117462 Ry

     total magnetization       =     2.70 Bohr mag/cell
     absolute magnetization    =     2.82 Bohr mag/cell
[tb_dev] Currently allocated     2.43E+00 Mbytes, locked:    0 /   6
[tb_pin] Currently allocated     0.00E+00 Mbytes, locked:    0 /   0

     iteration # 71     ecut=    60.00 Ry     beta= 0.40
     Davidson diagonalization with overlap

---- Real-time Memory Report at c_bands before calling an iterative solver
          3757 MiB given to the printing process from OS
         -1251 MiB allocation reported by mallinfo(arena+hblkhd)
         56084 MiB available memory on the node where the printing process lives
     GPU memory used/free/total (MiB): 2146 / 14134 / 16280
------------------
     ethr =  6.48E-07,  avg # of iterations =  1.0

     total cpu time spent up to now is      426.5 secs

     total energy              =    -473.34026160 Ry
     estimated scf accuracy    <       0.00102342 Ry

     total magnetization       =     2.79 Bohr mag/cell
     absolute magnetization    =     2.85 Bohr mag/cell
[tb_dev] Currently allocated     2.43E+00 Mbytes, locked:    0 /   6
[tb_pin] Currently allocated     0.00E+00 Mbytes, locked:    0 /   0

     iteration # 72     ecut=    60.00 Ry     beta= 0.40
     Davidson diagonalization with overlap

---- Real-time Memory Report at c_bands before calling an iterative solver
          3775 MiB given to the printing process from OS
         -1234 MiB allocation reported by mallinfo(arena+hblkhd)
         56065 MiB available memory on the node where the printing process lives
     GPU memory used/free/total (MiB): 2146 / 14134 / 16280
------------------
     ethr =  6.48E-07,  avg # of iterations =  4.0

     total cpu time spent up to now is      434.2 secs

     total energy              =    -473.33046284 Ry
     estimated scf accuracy    <       0.00067746 Ry

     total magnetization       =     3.39 Bohr mag/cell
     absolute magnetization    =     3.45 Bohr mag/cell
[tb_dev] Currently allocated     2.43E+00 Mbytes, locked:    0 /   6
[tb_pin] Currently allocated     0.00E+00 Mbytes, locked:    0 /   0

     iteration # 73     ecut=    60.00 Ry     beta= 0.40
     Davidson diagonalization with overlap

---- Real-time Memory Report at c_bands before calling an iterative solver
          3791 MiB given to the printing process from OS
         -1217 MiB allocation reported by mallinfo(arena+hblkhd)
         56049 MiB available memory on the node where the printing process lives
     GPU memory used/free/total (MiB): 2146 / 14134 / 16280
------------------
     c_bands:  1 eigenvalues not converged
     ethr =  6.48E-07,  avg # of iterations =  6.3

     total cpu time spent up to now is      443.8 secs

     total energy              =    -473.33986478 Ry
     estimated scf accuracy    <       0.01855586 Ry

     total magnetization       =     3.35 Bohr mag/cell
     absolute magnetization    =     3.54 Bohr mag/cell
[tb_dev] Currently allocated     2.43E+00 Mbytes, locked:    0 /   6
[tb_pin] Currently allocated     0.00E+00 Mbytes, locked:    0 /   0

     iteration # 74     ecut=    60.00 Ry     beta= 0.40
     Davidson diagonalization with overlap

---- Real-time Memory Report at c_bands before calling an iterative solver
          3808 MiB given to the printing process from OS
         -1201 MiB allocation reported by mallinfo(arena+hblkhd)
         56033 MiB available memory on the node where the printing process lives
     GPU memory used/free/total (MiB): 2146 / 14134 / 16280
------------------
     ethr =  6.48E-07,  avg # of iterations =  4.8

     total cpu time spent up to now is      452.1 secs

     total energy              =    -473.34041992 Ry
     estimated scf accuracy    <       0.00119644 Ry

     total magnetization       =     3.50 Bohr mag/cell
     absolute magnetization    =     3.60 Bohr mag/cell
[tb_dev] Currently allocated     2.43E+00 Mbytes, locked:    0 /   6
[tb_pin] Currently allocated     0.00E+00 Mbytes, locked:    0 /   0

     iteration # 75     ecut=    60.00 Ry     beta= 0.40
     Davidson diagonalization with overlap

---- Real-time Memory Report at c_bands before calling an iterative solver
          3829 MiB given to the printing process from OS
         -1179 MiB allocation reported by mallinfo(arena+hblkhd)
         56012 MiB available memory on the node where the printing process lives
     GPU memory used/free/total (MiB): 2146 / 14134 / 16280
------------------
     ethr =  6.48E-07,  avg # of iterations =  2.0

     total cpu time spent up to now is      457.6 secs

     total energy              =    -473.33404359 Ry
     estimated scf accuracy    <       0.00201653 Ry

     total magnetization       =     3.50 Bohr mag/cell
     absolute magnetization    =     3.61 Bohr mag/cell
[tb_dev] Currently allocated     2.43E+00 Mbytes, locked:    0 /   6
[tb_pin] Currently allocated     0.00E+00 Mbytes, locked:    0 /   0

     iteration # 76     ecut=    60.00 Ry     beta= 0.40
     Davidson diagonalization with overlap

---- Real-time Memory Report at c_bands before calling an iterative solver
          3847 MiB given to the printing process from OS
         -1162 MiB allocation reported by mallinfo(arena+hblkhd)
         55994 MiB available memory on the node where the printing process lives
     GPU memory used/free/total (MiB): 2146 / 14134 / 16280
------------------
     ethr =  6.48E-07,  avg # of iterations =  4.0

     total cpu time spent up to now is      465.3 secs

     total energy              =    -473.33345533 Ry
     estimated scf accuracy    <       0.02012671 Ry

     total magnetization       =     3.32 Bohr mag/cell
     absolute magnetization    =     3.51 Bohr mag/cell
[tb_dev] Currently allocated     2.43E+00 Mbytes, locked:    0 /   6
[tb_pin] Currently allocated     0.00E+00 Mbytes, locked:    0 /   0

     iteration # 77     ecut=    60.00 Ry     beta= 0.40
     Davidson diagonalization with overlap

---- Real-time Memory Report at c_bands before calling an iterative solver
          3864 MiB given to the printing process from OS
         -1146 MiB allocation reported by mallinfo(arena+hblkhd)
         55976 MiB available memory on the node where the printing process lives
     GPU memory used/free/total (MiB): 2146 / 14134 / 16280
------------------
     ethr =  6.48E-07,  avg # of iterations =  2.0

     total cpu time spent up to now is      470.9 secs

     total energy              =    -473.33380363 Ry
     estimated scf accuracy    <       0.03098286 Ry

     total magnetization       =     3.25 Bohr mag/cell
     absolute magnetization    =     3.45 Bohr mag/cell
[tb_dev] Currently allocated     2.43E+00 Mbytes, locked:    0 /   6
[tb_pin] Currently allocated     0.00E+00 Mbytes, locked:    0 /   0

     iteration # 78     ecut=    60.00 Ry     beta= 0.40
     Davidson diagonalization with overlap

---- Real-time Memory Report at c_bands before calling an iterative solver
          3884 MiB given to the printing process from OS
         -1124 MiB allocation reported by mallinfo(arena+hblkhd)
         55957 MiB available memory on the node where the printing process lives
     GPU memory used/free/total (MiB): 2146 / 14134 / 16280
------------------
     ethr =  6.48E-07,  avg # of iterations =  1.0

     total cpu time spent up to now is      476.2 secs

     total energy              =    -473.32370202 Ry
     estimated scf accuracy    <       0.02701753 Ry

     total magnetization       =     3.28 Bohr mag/cell
     absolute magnetization    =     3.48 Bohr mag/cell
[tb_dev] Currently allocated     2.43E+00 Mbytes, locked:    0 /   6
[tb_pin] Currently allocated     0.00E+00 Mbytes, locked:    0 /   0

     iteration # 79     ecut=    60.00 Ry     beta= 0.40
     Davidson diagonalization with overlap

---- Real-time Memory Report at c_bands before calling an iterative solver
          3900 MiB given to the printing process from OS
         -1107 MiB allocation reported by mallinfo(arena+hblkhd)
         55940 MiB available memory on the node where the printing process lives
     GPU memory used/free/total (MiB): 2146 / 14134 / 16280
------------------
     ethr =  6.48E-07,  avg # of iterations =  4.5

     total cpu time spent up to now is      484.1 secs

     total energy              =    -473.32572045 Ry
     estimated scf accuracy    <       0.12494378 Ry

     total magnetization       =     2.85 Bohr mag/cell
     absolute magnetization    =     3.18 Bohr mag/cell
[tb_dev] Currently allocated     2.43E+00 Mbytes, locked:    0 /   6
[tb_pin] Currently allocated     0.00E+00 Mbytes, locked:    0 /   0

     iteration # 80     ecut=    60.00 Ry     beta= 0.40
     Davidson diagonalization with overlap

---- Real-time Memory Report at c_bands before calling an iterative solver
          3918 MiB given to the printing process from OS
         -1090 MiB allocation reported by mallinfo(arena+hblkhd)
         55923 MiB available memory on the node where the printing process lives
     GPU memory used/free/total (MiB): 2146 / 14134 / 16280
------------------
     ethr =  6.48E-07,  avg # of iterations =  1.0

     total cpu time spent up to now is      489.2 secs

     total energy              =    -473.32000971 Ry
     estimated scf accuracy    <       0.15015586 Ry

     total magnetization       =     2.75 Bohr mag/cell
     absolute magnetization    =     3.09 Bohr mag/cell

     End of self-consistent calculation

     convergence NOT achieved after  80 iterations: stopping

     Writing config to output data dir ./out/aiida.save/
 
     init_run     :     31.33s CPU      7.19s WALL (       1 calls)
     electrons    :   1419.98s CPU    481.27s WALL (       1 calls)

     Called by init_run:
     wfcinit      :      2.60s CPU      3.50s WALL (       1 calls)
                                        3.50s GPU  (       1 calls)
     wfcinit:atom :      0.04s CPU      0.08s WALL (     116 calls)
                                        0.08s GPU  (     116 calls)
     wfcinit:wfcr :      1.47s CPU      2.00s WALL (     116 calls)
                                        2.00s GPU  (     116 calls)
     potinit      :     15.40s CPU      1.46s WALL (       1 calls)
     hinit0       :      8.17s CPU      1.48s WALL (       1 calls)

     Called by electrons:
     c_bands      :    380.71s CPU    323.24s WALL (      80 calls)
     sum_band     :     60.70s CPU     67.47s WALL (      80 calls)
     v_of_rho     :     39.70s CPU      3.59s WALL (      81 calls)
     v_h          :      5.61s CPU      0.49s WALL (      81 calls)
     v_xc         :     34.08s CPU      3.09s WALL (      81 calls)
     newd         :     73.04s CPU      7.04s WALL (      81 calls)
                                        7.04s GPU  (      81 calls)
     PAW_pot      :    824.66s CPU     75.92s WALL (      81 calls)
     mix_rho      :     40.94s CPU      4.02s WALL (      80 calls)

     Called by c_bands:
     init_us_2    :     29.76s CPU     29.56s WALL (   18676 calls)
     init_us_2:gp :     29.40s CPU     29.24s WALL (   18676 calls)
     cegterg      :    309.26s CPU    266.14s WALL (    9280 calls)

     Called by sum_band:
     sum_band:wei :      0.34s CPU      0.34s WALL (      80 calls)
                                        0.34s GPU  (      80 calls)
     sum_band:loo :     52.15s CPU     58.70s WALL (      80 calls)
                                       58.70s GPU  (      80 calls)
     sum_band:buf :     15.58s CPU     16.43s WALL (    9280 calls)
                                       16.37s GPU  (    9280 calls)
     sum_band:ini :     12.16s CPU     14.36s WALL (    9280 calls)
                                       14.31s GPU  (    9280 calls)
     sum_band:cal :      0.24s CPU      2.33s WALL (    9280 calls)
                                        2.01s GPU  (    9280 calls)
     sum_band:bec :      2.91s CPU      3.20s WALL (    9280 calls)
                                        3.14s GPU  (    9280 calls)
     addusdens    :      6.04s CPU      6.22s WALL (      80 calls)
                                        6.22s GPU  (      80 calls)
     addusd:skk   :      0.04s CPU      0.05s WALL (     320 calls)
                                        0.04s GPU  (     320 calls)

     Called by *egterg:
     cdiaghg      :    101.75s CPU     94.46s WALL (   30481 calls)
                                       94.25s GPU  (   30481 calls)
     cegterg:over :      7.11s CPU      6.15s WALL (   21201 calls)
     cegterg:upda :     11.28s CPU      9.73s WALL (   21201 calls)
     cegterg:last :      5.24s CPU      4.45s WALL (   15961 calls)
     h_psi        :    158.00s CPU    130.75s WALL (   30597 calls)
                                      130.40s GPU  (   30597 calls)
     s_psi        :      5.53s CPU     10.08s WALL (   30597 calls)
                                        9.43s GPU  (   30597 calls)
     g_psi        :      0.19s CPU      0.89s WALL (   21201 calls)
                                        0.75s GPU  (   21201 calls)

     Called by h_psi:
     h_psi:calbec :      1.21s CPU      6.46s WALL (   30597 calls)
                                        6.26s GPU  (   30597 calls)
     vloc_psi     :    130.72s CPU    108.61s WALL (   30597 calls)
                                      108.42s GPU  (   30597 calls)
     add_vuspsi   :     10.25s CPU     13.06s WALL (   30597 calls)
                                       12.87s GPU  (   30597 calls)

     General routines
     calbec       :      1.03s CPU      0.90s WALL (   39877 calls)
     fft          :      2.44s CPU      0.58s WALL (    2023 calls)
                                        0.47s GPU  (    1861 calls)
     ffts         :      0.10s CPU      0.04s WALL (     322 calls)
                                        0.01s GPU  (     160 calls)
     fftw         :      4.07s CPU     84.80s WALL (  171344 calls)
                                       83.85s GPU  (  171344 calls)
     interpolate  :      4.65s CPU      0.41s WALL (     162 calls)
     davcio       :      0.31s CPU      0.62s WALL (     134 calls)
 
     Parallel routines

     PAW routines
     PAW_pot      :    824.66s CPU     75.92s WALL (      81 calls)
     PAW_symme    :      0.19s CPU      0.03s WALL (     161 calls)
 
     PWSCF        :  24m14.16s CPU   8m10.02s WALL

 
   This run was terminated on:  17:53:29  22Oct2023            

=------------------------------------------------------------------------------=
   JOB DONE.
=------------------------------------------------------------------------------=
