
     Program PWSCF v.7.2 starts on 23Oct2023 at 20: 9:19 

     This program is part of the open-source Quantum ESPRESSO suite
     for quantum simulation of materials; please cite
         "P. Giannozzi et al., J. Phys.:Condens. Matter 21 395502 (2009);
         "P. Giannozzi et al., J. Phys.:Condens. Matter 29 465901 (2017);
         "P. Giannozzi et al., J. Chem. Phys. 152 154105 (2020);
          URL http://www.quantum-espresso.org", 
     in publications or presentations arising from this work. More details at
     http://www.quantum-espresso.org/quote

     Parallel version (MPI & OpenMP), running on      12 processor cores
     Number of MPI processes:                 1
     Threads/MPI process:                    12

     MPI processes distributed on     1 nodes
     43455 MiB available memory on the printing compute node when the environment starts
 
     Reading input from aiida.in

     Current dimensions of program PWSCF are:
     Max number of different atomic species (ntypx) = 10
     Max number of k-points (npk) =  40000
     Max angular momentum in pseudopotentials (lmaxx) =  4
     Message from routine setup:
     using ibrav=0 with symmetry is DISCOURAGED, use correct ibrav instead
 
     Subspace diagonalization in iterative solution of the eigenvalue problem:
     a serial algorithm will be used

 
     G-vector sticks info
     --------------------
     sticks:   dense  smooth     PW     G-vecs:    dense   smooth      PW
     Sum        2735    1357    395               153009    54091    8449
 
     Using Slab Decomposition
 


     bravais-lattice index     =            0
     lattice parameter (alat)  =       8.4847  a.u.
     unit-cell volume          =     861.5049 (a.u.)^3
     number of atoms/cell      =            8
     number of atomic types    =            3
     number of electrons       =        58.00
     number of Kohn-Sham states=           35
     kinetic-energy cutoff     =      60.0000  Ry
     charge density cutoff     =     480.0000  Ry
     scf convergence threshold =      1.6E-09
     mixing beta               =       0.1000
     number of iterations used =            8  plain     mixing
     Exchange-correlation= SLA  PW   PSX  PSC
                           (   1   4  10   8   0   0   0)

     GPU acceleration is ACTIVE.


     GPU used by master process:

        Device Number: 0
        Device name: Tesla P100-PCIE-16GB
        Compute capability : 60
        Ratio of single to double precision performance  : 2
        Memory Clock Rate (KHz): 715000
        Memory Bus Width (bits): 4096
        Peak Memory Bandwidth (GB/s): 732.16

     celldm(1)=   8.484718  celldm(2)=   0.000000  celldm(3)=   0.000000
     celldm(4)=   0.000000  celldm(5)=   0.000000  celldm(6)=   0.000000

     crystal axes: (cart. coord. in units of alat)
               a(1) = (   0.749568   0.661927   0.000000 )  
               a(2) = (  -0.749568   0.661927   0.000000 )  
               a(3) = (  -0.029276   0.000000   1.421328 )  

     reciprocal axes: (cart. coord. in units 2 pi/alat)
               b(1) = (  0.667051  0.755370  0.013740 )  
               b(2) = ( -0.667051  0.755370 -0.013740 )  
               b(3) = (  0.000000 -0.000000  0.703568 )  


     PseudoPot. # 1 for Li read from file:
     ./pseudo/li_pbesol_v1.4.uspp.F.UPF
     MD5 check sum: aa28d9aeea6a965f2dc95ee9517b3536
     Pseudo is Ultrasoft, Zval =  3.0
     Generated by new atomic code, or converted to UPF format
     Using radial grid of  751 points,  5 beta functions with: 
                l(1) =   0
                l(2) =   0
                l(3) =   0
                l(4) =   1
                l(5) =   1
     Q(r) pseudized with 10 coefficients,  rinner =    1.150   1.150   1.150


     PseudoPot. # 2 for N  read from file:
     ./pseudo/N.pbesol-theos.UPF
     MD5 check sum: 1b64827339d390a5a22afef3ff345c9d
     Pseudo is Ultrasoft + core correction, Zval =  5.0
     Generated using "atomic" code by A. Dal Corso  v.5.1
     Using radial grid of 1085 points,  4 beta functions with: 
                l(1) =   0
                l(2) =   0
                l(3) =   1
                l(4) =   1
     Q(r) pseudized with 0 coefficients 


     PseudoPot. # 3 for Na read from file:
     ./pseudo/na_pbesol_v1.5.uspp.F.UPF
     MD5 check sum: 164b46c7694b4bc5b1217b5d1ae6f423
     Pseudo is Ultrasoft, Zval =  9.0
     Generated by new atomic code, or converted to UPF format
     Using radial grid of  819 points,  5 beta functions with: 
                l(1) =   0
                l(2) =   0
                l(3) =   1
                l(4) =   1
                l(5) =   2
     Q(r) pseudized with  8 coefficients,  rinner =    1.250   1.250   1.250
                                                       1.250   1.250

     atomic species   valence    mass     pseudopotential
        Li             3.00     6.94100     Li( 1.00)
        N              5.00    14.00670     N ( 1.00)
        Na             9.00    22.98977     Na( 1.00)

     Starting magnetic structure 
     atomic species   magnetization
        Li           0.100
        N            0.100
        Na           0.100

      2 Sym. Ops. (no inversion) found


                                    s                        frac. trans.

      isym =  1     identity                                     

 cryst.   s( 1) = (     1          0          0      )
                  (     0          1          0      )
                  (     0          0          1      )

 cart.    s( 1) = (  1.0000000  0.0000000 -0.0000000 )
                  ( -0.0000000  1.0000000 -0.0000000 )
                  (  0.0000000  0.0000000  1.0000000 )


      isym =  2     180 deg rotation - cart. axis [0,1,0]        

 cryst.   s( 2) = (     0          1          0      )
                  (     1          0          0      )
                  (     0          0         -1      )

 cart.    s( 2) = ( -1.0000000  0.0000000  0.0000000 )
                  (  0.0000000  1.0000000  0.0000000 )
                  (  0.0000000  0.0000000 -1.0000000 )


   Cartesian axes

     site n.     atom                  positions (alat units)
         1           Na  tau(   1) = (   0.4204617   0.2012259   0.3297480  )
         2           Na  tau(   2) = (   1.0493982   0.2012259   1.0915797  )
         3           Na  tau(   3) = (   0.7349299   0.5507235   0.7106638  )
         4           Na  tau(   4) = (   0.7349299   1.1689636   0.7106638  )
         5           Na  tau(   5) = (   0.7495681   1.1504296   0.0000000  )
         6           Li  tau(   6) = (   0.7495681   0.5388088   0.0000000  )
         7           N   tau(   7) = (   0.3824290   0.1985782   1.0844730  )
         8           N   tau(   8) = (   1.0874309   0.1985782   0.3368547  )

   Crystallographic axes

     site n.     atom                  positions (cryst. coord.)
         1           Na  tau(   1) = (  0.4370000 -0.1330000  0.2320000  )
         2           Na  tau(   2) = (  0.8670000 -0.5630000  0.7680000  )
         3           Na  tau(   3) = (  0.9160000 -0.0840000  0.5000000  )
         4           Na  tau(   4) = (  1.3830000  0.3830000  0.5000000  )
         5           Na  tau(   5) = (  1.3690000  0.3690000  0.0000000  )
         6           Li  tau(   6) = (  0.9070000 -0.0930000  0.0000000  )
         7           N   tau(   7) = (  0.4200000 -0.1200000  0.7630000  )
         8           N   tau(   8) = (  0.8800000 -0.5800000  0.2370000  )

     number of k points=   196  Marzari-Vanderbilt smearing, width (Ry)=  0.0100
                       cart. coord. in units 2pi/alat
        k(    1) = (   0.0000000   0.0000000   0.0000000), wk =   0.0014286
        k(    2) = (   0.0000000   0.0000000   0.1005096), wk =   0.0028571
        k(    3) = (   0.0000000   0.0000000   0.2010193), wk =   0.0028571
        k(    4) = (   0.0000000   0.0000000   0.3015289), wk =   0.0028571
        k(    5) = (  -0.0667051   0.0755370  -0.0013740), wk =   0.0057143
        k(    6) = (  -0.0667051   0.0755370   0.0991357), wk =   0.0057143
        k(    7) = (  -0.0667051   0.0755370   0.1996453), wk =   0.0057143
        k(    8) = (  -0.0667051   0.0755370   0.3001550), wk =   0.0057143
        k(    9) = (  -0.0667051   0.0755370  -0.3029029), wk =   0.0057143
        k(   10) = (  -0.0667051   0.0755370  -0.2023933), wk =   0.0057143
        k(   11) = (  -0.0667051   0.0755370  -0.1018836), wk =   0.0057143
        k(   12) = (  -0.1334102   0.1510740  -0.0027480), wk =   0.0057143
        k(   13) = (  -0.1334102   0.1510740   0.0977617), wk =   0.0057143
        k(   14) = (  -0.1334102   0.1510740   0.1982713), wk =   0.0057143
        k(   15) = (  -0.1334102   0.1510740   0.2987810), wk =   0.0057143
        k(   16) = (  -0.1334102   0.1510740  -0.3042769), wk =   0.0057143
        k(   17) = (  -0.1334102   0.1510740  -0.2037673), wk =   0.0057143
        k(   18) = (  -0.1334102   0.1510740  -0.1032576), wk =   0.0057143
        k(   19) = (  -0.2001153   0.2266110  -0.0041219), wk =   0.0057143
        k(   20) = (  -0.2001153   0.2266110   0.0963877), wk =   0.0057143
        k(   21) = (  -0.2001153   0.2266110   0.1968974), wk =   0.0057143
        k(   22) = (  -0.2001153   0.2266110   0.2974070), wk =   0.0057143
        k(   23) = (  -0.2001153   0.2266110  -0.3056509), wk =   0.0057143
        k(   24) = (  -0.2001153   0.2266110  -0.2051412), wk =   0.0057143
        k(   25) = (  -0.2001153   0.2266110  -0.1046316), wk =   0.0057143
        k(   26) = (  -0.2668203   0.3021480  -0.0054959), wk =   0.0057143
        k(   27) = (  -0.2668203   0.3021480   0.0950137), wk =   0.0057143
        k(   28) = (  -0.2668203   0.3021480   0.1955234), wk =   0.0057143
        k(   29) = (  -0.2668203   0.3021480   0.2960330), wk =   0.0057143
        k(   30) = (  -0.2668203   0.3021480  -0.3070249), wk =   0.0057143
        k(   31) = (  -0.2668203   0.3021480  -0.2065152), wk =   0.0057143
        k(   32) = (  -0.2668203   0.3021480  -0.1060056), wk =   0.0057143
        k(   33) = (   0.3335254  -0.3776850   0.0068699), wk =   0.0028571
        k(   34) = (   0.3335254  -0.3776850   0.1073795), wk =   0.0057143
        k(   35) = (   0.3335254  -0.3776850   0.2078892), wk =   0.0057143
        k(   36) = (   0.3335254  -0.3776850   0.3083988), wk =   0.0057143
        k(   37) = (   0.0000000   0.1510740   0.0000000), wk =   0.0028571
        k(   38) = (   0.0000000   0.1510740   0.1005096), wk =   0.0057143
        k(   39) = (   0.0000000   0.1510740   0.2010193), wk =   0.0057143
        k(   40) = (   0.0000000   0.1510740   0.3015289), wk =   0.0057143
        k(   41) = (  -0.0667051   0.2266110  -0.0013740), wk =   0.0057143
        k(   42) = (  -0.0667051   0.2266110   0.0991357), wk =   0.0057143
        k(   43) = (  -0.0667051   0.2266110   0.1996453), wk =   0.0057143
        k(   44) = (  -0.0667051   0.2266110   0.3001550), wk =   0.0057143
        k(   45) = (  -0.0667051   0.2266110  -0.3029029), wk =   0.0057143
        k(   46) = (  -0.0667051   0.2266110  -0.2023933), wk =   0.0057143
        k(   47) = (  -0.0667051   0.2266110  -0.1018836), wk =   0.0057143
        k(   48) = (  -0.1334102   0.3021480  -0.0027480), wk =   0.0057143
        k(   49) = (  -0.1334102   0.3021480   0.0977617), wk =   0.0057143
        k(   50) = (  -0.1334102   0.3021480   0.1982713), wk =   0.0057143
        k(   51) = (  -0.1334102   0.3021480   0.2987810), wk =   0.0057143
        k(   52) = (  -0.1334102   0.3021480  -0.3042769), wk =   0.0057143
        k(   53) = (  -0.1334102   0.3021480  -0.2037673), wk =   0.0057143
        k(   54) = (  -0.1334102   0.3021480  -0.1032576), wk =   0.0057143
        k(   55) = (  -0.2001153   0.3776850  -0.0041219), wk =   0.0057143
        k(   56) = (  -0.2001153   0.3776850   0.0963877), wk =   0.0057143
        k(   57) = (  -0.2001153   0.3776850   0.1968974), wk =   0.0057143
        k(   58) = (  -0.2001153   0.3776850   0.2974070), wk =   0.0057143
        k(   59) = (  -0.2001153   0.3776850  -0.3056509), wk =   0.0057143
        k(   60) = (  -0.2001153   0.3776850  -0.2051412), wk =   0.0057143
        k(   61) = (  -0.2001153   0.3776850  -0.1046316), wk =   0.0057143
        k(   62) = (   0.4002305  -0.3021480   0.0082439), wk =   0.0057143
        k(   63) = (   0.4002305  -0.3021480   0.1087535), wk =   0.0057143
        k(   64) = (   0.4002305  -0.3021480   0.2092632), wk =   0.0057143
        k(   65) = (   0.4002305  -0.3021480   0.3097728), wk =   0.0057143
        k(   66) = (   0.4002305  -0.3021480  -0.2932851), wk =   0.0057143
        k(   67) = (   0.4002305  -0.3021480  -0.1927754), wk =   0.0057143
        k(   68) = (   0.4002305  -0.3021480  -0.0922658), wk =   0.0057143
        k(   69) = (   0.3335254  -0.2266110   0.0068699), wk =   0.0057143
        k(   70) = (   0.3335254  -0.2266110   0.1073795), wk =   0.0057143
        k(   71) = (   0.3335254  -0.2266110   0.2078892), wk =   0.0057143
        k(   72) = (   0.3335254  -0.2266110   0.3083988), wk =   0.0057143
        k(   73) = (   0.3335254  -0.2266110  -0.2946591), wk =   0.0057143
        k(   74) = (   0.3335254  -0.2266110  -0.1941494), wk =   0.0057143
        k(   75) = (   0.3335254  -0.2266110  -0.0936398), wk =   0.0057143
        k(   76) = (   0.2668203  -0.1510740   0.0054959), wk =   0.0057143
        k(   77) = (   0.2668203  -0.1510740   0.1060056), wk =   0.0057143
        k(   78) = (   0.2668203  -0.1510740   0.2065152), wk =   0.0057143
        k(   79) = (   0.2668203  -0.1510740   0.3070249), wk =   0.0057143
        k(   80) = (   0.2668203  -0.1510740  -0.2960330), wk =   0.0057143
        k(   81) = (   0.2668203  -0.1510740  -0.1955234), wk =   0.0057143
        k(   82) = (   0.2668203  -0.1510740  -0.0950137), wk =   0.0057143
        k(   83) = (   0.2001153  -0.0755370   0.0041219), wk =   0.0057143
        k(   84) = (   0.2001153  -0.0755370   0.1046316), wk =   0.0057143
        k(   85) = (   0.2001153  -0.0755370   0.2051412), wk =   0.0057143
        k(   86) = (   0.2001153  -0.0755370   0.3056509), wk =   0.0057143
        k(   87) = (   0.2001153  -0.0755370  -0.2974070), wk =   0.0057143
        k(   88) = (   0.2001153  -0.0755370  -0.1968974), wk =   0.0057143
        k(   89) = (   0.2001153  -0.0755370  -0.0963877), wk =   0.0057143
        k(   90) = (   0.1334102   0.0000000   0.0027480), wk =   0.0028571
        k(   91) = (   0.1334102   0.0000000   0.1032576), wk =   0.0028571
        k(   92) = (   0.1334102   0.0000000   0.2037673), wk =   0.0028571
        k(   93) = (   0.1334102   0.0000000   0.3042769), wk =   0.0028571
        k(   94) = (   0.1334102   0.0000000  -0.2987810), wk =   0.0028571
        k(   95) = (   0.1334102   0.0000000  -0.1982713), wk =   0.0028571
        k(   96) = (   0.1334102   0.0000000  -0.0977617), wk =   0.0028571
        k(   97) = (   0.0000000   0.3021480   0.0000000), wk =   0.0028571
        k(   98) = (   0.0000000   0.3021480   0.1005096), wk =   0.0057143
        k(   99) = (   0.0000000   0.3021480   0.2010193), wk =   0.0057143
        k(  100) = (   0.0000000   0.3021480   0.3015289), wk =   0.0057143
        k(  101) = (  -0.0667051   0.3776850  -0.0013740), wk =   0.0057143
        k(  102) = (  -0.0667051   0.3776850   0.0991357), wk =   0.0057143
        k(  103) = (  -0.0667051   0.3776850   0.1996453), wk =   0.0057143
        k(  104) = (  -0.0667051   0.3776850   0.3001550), wk =   0.0057143
        k(  105) = (  -0.0667051   0.3776850  -0.3029029), wk =   0.0057143
        k(  106) = (  -0.0667051   0.3776850  -0.2023933), wk =   0.0057143
        k(  107) = (  -0.0667051   0.3776850  -0.1018836), wk =   0.0057143
        k(  108) = (  -0.1334102   0.4532220  -0.0027480), wk =   0.0057143
        k(  109) = (  -0.1334102   0.4532220   0.0977617), wk =   0.0057143
        k(  110) = (  -0.1334102   0.4532220   0.1982713), wk =   0.0057143
        k(  111) = (  -0.1334102   0.4532220   0.2987810), wk =   0.0057143
        k(  112) = (  -0.1334102   0.4532220  -0.3042769), wk =   0.0057143
        k(  113) = (  -0.1334102   0.4532220  -0.2037673), wk =   0.0057143
        k(  114) = (  -0.1334102   0.4532220  -0.1032576), wk =   0.0057143
        k(  115) = (   0.4669356  -0.2266110   0.0096178), wk =   0.0057143
        k(  116) = (   0.4669356  -0.2266110   0.1101275), wk =   0.0057143
        k(  117) = (   0.4669356  -0.2266110   0.2106371), wk =   0.0057143
        k(  118) = (   0.4669356  -0.2266110   0.3111468), wk =   0.0057143
        k(  119) = (   0.4669356  -0.2266110  -0.2919111), wk =   0.0057143
        k(  120) = (   0.4669356  -0.2266110  -0.1914014), wk =   0.0057143
        k(  121) = (   0.4669356  -0.2266110  -0.0908918), wk =   0.0057143
        k(  122) = (   0.4002305  -0.1510740   0.0082439), wk =   0.0057143
        k(  123) = (   0.4002305  -0.1510740   0.1087535), wk =   0.0057143
        k(  124) = (   0.4002305  -0.1510740   0.2092632), wk =   0.0057143
        k(  125) = (   0.4002305  -0.1510740   0.3097728), wk =   0.0057143
        k(  126) = (   0.4002305  -0.1510740  -0.2932851), wk =   0.0057143
        k(  127) = (   0.4002305  -0.1510740  -0.1927754), wk =   0.0057143
        k(  128) = (   0.4002305  -0.1510740  -0.0922658), wk =   0.0057143
        k(  129) = (   0.3335254  -0.0755370   0.0068699), wk =   0.0057143
        k(  130) = (   0.3335254  -0.0755370   0.1073795), wk =   0.0057143
        k(  131) = (   0.3335254  -0.0755370   0.2078892), wk =   0.0057143
        k(  132) = (   0.3335254  -0.0755370   0.3083988), wk =   0.0057143
        k(  133) = (   0.3335254  -0.0755370  -0.2946591), wk =   0.0057143
        k(  134) = (   0.3335254  -0.0755370  -0.1941494), wk =   0.0057143
        k(  135) = (   0.3335254  -0.0755370  -0.0936398), wk =   0.0057143
        k(  136) = (   0.2668203   0.0000000   0.0054959), wk =   0.0028571
        k(  137) = (   0.2668203   0.0000000   0.1060056), wk =   0.0028571
        k(  138) = (   0.2668203   0.0000000   0.2065152), wk =   0.0028571
        k(  139) = (   0.2668203   0.0000000   0.3070249), wk =   0.0028571
        k(  140) = (   0.2668203   0.0000000  -0.2960330), wk =   0.0028571
        k(  141) = (   0.2668203   0.0000000  -0.1955234), wk =   0.0028571
        k(  142) = (   0.2668203   0.0000000  -0.0950137), wk =   0.0028571
        k(  143) = (  -0.0000000   0.4532220  -0.0000000), wk =   0.0028571
        k(  144) = (  -0.0000000   0.4532220   0.1005096), wk =   0.0057143
        k(  145) = (  -0.0000000   0.4532220   0.2010193), wk =   0.0057143
        k(  146) = (  -0.0000000   0.4532220   0.3015289), wk =   0.0057143
        k(  147) = (  -0.0667051   0.5287590  -0.0013740), wk =   0.0057143
        k(  148) = (  -0.0667051   0.5287590   0.0991357), wk =   0.0057143
        k(  149) = (  -0.0667051   0.5287590   0.1996453), wk =   0.0057143
        k(  150) = (  -0.0667051   0.5287590   0.3001550), wk =   0.0057143
        k(  151) = (  -0.0667051   0.5287590  -0.3029029), wk =   0.0057143
        k(  152) = (  -0.0667051   0.5287590  -0.2023933), wk =   0.0057143
        k(  153) = (  -0.0667051   0.5287590  -0.1018836), wk =   0.0057143
        k(  154) = (   0.5336407  -0.1510740   0.0109918), wk =   0.0057143
        k(  155) = (   0.5336407  -0.1510740   0.1115015), wk =   0.0057143
        k(  156) = (   0.5336407  -0.1510740   0.2120111), wk =   0.0057143
        k(  157) = (   0.5336407  -0.1510740   0.3125208), wk =   0.0057143
        k(  158) = (   0.5336407  -0.1510740  -0.2905371), wk =   0.0057143
        k(  159) = (   0.5336407  -0.1510740  -0.1900275), wk =   0.0057143
        k(  160) = (   0.5336407  -0.1510740  -0.0895178), wk =   0.0057143
        k(  161) = (   0.4669356  -0.0755370   0.0096178), wk =   0.0057143
        k(  162) = (   0.4669356  -0.0755370   0.1101275), wk =   0.0057143
        k(  163) = (   0.4669356  -0.0755370   0.2106371), wk =   0.0057143
        k(  164) = (   0.4669356  -0.0755370   0.3111468), wk =   0.0057143
        k(  165) = (   0.4669356  -0.0755370  -0.2919111), wk =   0.0057143
        k(  166) = (   0.4669356  -0.0755370  -0.1914014), wk =   0.0057143
        k(  167) = (   0.4669356  -0.0755370  -0.0908918), wk =   0.0057143
        k(  168) = (   0.4002305  -0.0000000   0.0082439), wk =   0.0028571
        k(  169) = (   0.4002305  -0.0000000   0.1087535), wk =   0.0028571
        k(  170) = (   0.4002305  -0.0000000   0.2092632), wk =   0.0028571
        k(  171) = (   0.4002305  -0.0000000   0.3097728), wk =   0.0028571
        k(  172) = (   0.4002305  -0.0000000  -0.2932851), wk =   0.0028571
        k(  173) = (   0.4002305  -0.0000000  -0.1927754), wk =   0.0028571
        k(  174) = (   0.4002305  -0.0000000  -0.0922658), wk =   0.0028571
        k(  175) = (   0.0000000   0.6042960   0.0000000), wk =   0.0028571
        k(  176) = (   0.0000000   0.6042960   0.1005096), wk =   0.0057143
        k(  177) = (   0.0000000   0.6042960   0.2010193), wk =   0.0057143
        k(  178) = (   0.0000000   0.6042960   0.3015289), wk =   0.0057143
        k(  179) = (   0.6003458  -0.0755370   0.0123658), wk =   0.0057143
        k(  180) = (   0.6003458  -0.0755370   0.1128754), wk =   0.0057143
        k(  181) = (   0.6003458  -0.0755370   0.2133851), wk =   0.0057143
        k(  182) = (   0.6003458  -0.0755370   0.3138947), wk =   0.0057143
        k(  183) = (   0.6003458  -0.0755370  -0.2891631), wk =   0.0057143
        k(  184) = (   0.6003458  -0.0755370  -0.1886535), wk =   0.0057143
        k(  185) = (   0.6003458  -0.0755370  -0.0881438), wk =   0.0057143
        k(  186) = (   0.5336407   0.0000000   0.0109918), wk =   0.0028571
        k(  187) = (   0.5336407   0.0000000   0.1115015), wk =   0.0028571
        k(  188) = (   0.5336407   0.0000000   0.2120111), wk =   0.0028571
        k(  189) = (   0.5336407   0.0000000   0.3125208), wk =   0.0028571
        k(  190) = (   0.5336407   0.0000000  -0.2905371), wk =   0.0028571
        k(  191) = (   0.5336407   0.0000000  -0.1900275), wk =   0.0028571
        k(  192) = (   0.5336407   0.0000000  -0.0895178), wk =   0.0028571
        k(  193) = (   0.0000000  -0.7553700   0.0000000), wk =   0.0014286
        k(  194) = (   0.0000000  -0.7553700   0.1005096), wk =   0.0028571
        k(  195) = (   0.0000000  -0.7553700   0.2010193), wk =   0.0028571
        k(  196) = (   0.0000000  -0.7553700   0.3015289), wk =   0.0028571

                       cryst. coord.
        k(    1) = (   0.0000000   0.0000000   0.0000000), wk =   0.0014286
        k(    2) = (   0.0000000   0.0000000   0.1428571), wk =   0.0028571
        k(    3) = (   0.0000000   0.0000000   0.2857143), wk =   0.0028571
        k(    4) = (   0.0000000   0.0000000   0.4285714), wk =   0.0028571
        k(    5) = (  -0.0000000   0.1000000   0.0000000), wk =   0.0057143
        k(    6) = (  -0.0000000   0.1000000   0.1428571), wk =   0.0057143
        k(    7) = (  -0.0000000   0.1000000   0.2857143), wk =   0.0057143
        k(    8) = (  -0.0000000   0.1000000   0.4285714), wk =   0.0057143
        k(    9) = (  -0.0000000   0.1000000  -0.4285714), wk =   0.0057143
        k(   10) = (  -0.0000000   0.1000000  -0.2857143), wk =   0.0057143
        k(   11) = (  -0.0000000   0.1000000  -0.1428571), wk =   0.0057143
        k(   12) = (  -0.0000000   0.2000000   0.0000000), wk =   0.0057143
        k(   13) = (  -0.0000000   0.2000000   0.1428571), wk =   0.0057143
        k(   14) = (  -0.0000000   0.2000000   0.2857143), wk =   0.0057143
        k(   15) = (  -0.0000000   0.2000000   0.4285714), wk =   0.0057143
        k(   16) = (  -0.0000000   0.2000000  -0.4285714), wk =   0.0057143
        k(   17) = (  -0.0000000   0.2000000  -0.2857143), wk =   0.0057143
        k(   18) = (  -0.0000000   0.2000000  -0.1428571), wk =   0.0057143
        k(   19) = (  -0.0000000   0.3000000   0.0000000), wk =   0.0057143
        k(   20) = (  -0.0000000   0.3000000   0.1428571), wk =   0.0057143
        k(   21) = (  -0.0000000   0.3000000   0.2857143), wk =   0.0057143
        k(   22) = (  -0.0000000   0.3000000   0.4285714), wk =   0.0057143
        k(   23) = (  -0.0000000   0.3000000  -0.4285714), wk =   0.0057143
        k(   24) = (  -0.0000000   0.3000000  -0.2857143), wk =   0.0057143
        k(   25) = (  -0.0000000   0.3000000  -0.1428571), wk =   0.0057143
        k(   26) = (  -0.0000000   0.4000000   0.0000000), wk =   0.0057143
        k(   27) = (  -0.0000000   0.4000000   0.1428571), wk =   0.0057143
        k(   28) = (  -0.0000000   0.4000000   0.2857143), wk =   0.0057143
        k(   29) = (  -0.0000000   0.4000000   0.4285714), wk =   0.0057143
        k(   30) = (  -0.0000000   0.4000000  -0.4285714), wk =   0.0057143
        k(   31) = (  -0.0000000   0.4000000  -0.2857143), wk =   0.0057143
        k(   32) = (  -0.0000000   0.4000000  -0.1428571), wk =   0.0057143
        k(   33) = (   0.0000000  -0.5000000  -0.0000000), wk =   0.0028571
        k(   34) = (   0.0000000  -0.5000000   0.1428571), wk =   0.0057143
        k(   35) = (   0.0000000  -0.5000000   0.2857143), wk =   0.0057143
        k(   36) = (   0.0000000  -0.5000000   0.4285714), wk =   0.0057143
        k(   37) = (   0.1000000   0.1000000  -0.0000000), wk =   0.0028571
        k(   38) = (   0.1000000   0.1000000   0.1428571), wk =   0.0057143
        k(   39) = (   0.1000000   0.1000000   0.2857143), wk =   0.0057143
        k(   40) = (   0.1000000   0.1000000   0.4285714), wk =   0.0057143
        k(   41) = (   0.1000000   0.2000000  -0.0000000), wk =   0.0057143
        k(   42) = (   0.1000000   0.2000000   0.1428571), wk =   0.0057143
        k(   43) = (   0.1000000   0.2000000   0.2857143), wk =   0.0057143
        k(   44) = (   0.1000000   0.2000000   0.4285714), wk =   0.0057143
        k(   45) = (   0.1000000   0.2000000  -0.4285714), wk =   0.0057143
        k(   46) = (   0.1000000   0.2000000  -0.2857143), wk =   0.0057143
        k(   47) = (   0.1000000   0.2000000  -0.1428571), wk =   0.0057143
        k(   48) = (   0.1000000   0.3000000   0.0000000), wk =   0.0057143
        k(   49) = (   0.1000000   0.3000000   0.1428571), wk =   0.0057143
        k(   50) = (   0.1000000   0.3000000   0.2857143), wk =   0.0057143
        k(   51) = (   0.1000000   0.3000000   0.4285714), wk =   0.0057143
        k(   52) = (   0.1000000   0.3000000  -0.4285714), wk =   0.0057143
        k(   53) = (   0.1000000   0.3000000  -0.2857143), wk =   0.0057143
        k(   54) = (   0.1000000   0.3000000  -0.1428571), wk =   0.0057143
        k(   55) = (   0.1000000   0.4000000   0.0000000), wk =   0.0057143
        k(   56) = (   0.1000000   0.4000000   0.1428571), wk =   0.0057143
        k(   57) = (   0.1000000   0.4000000   0.2857143), wk =   0.0057143
        k(   58) = (   0.1000000   0.4000000   0.4285714), wk =   0.0057143
        k(   59) = (   0.1000000   0.4000000  -0.4285714), wk =   0.0057143
        k(   60) = (   0.1000000   0.4000000  -0.2857143), wk =   0.0057143
        k(   61) = (   0.1000000   0.4000000  -0.1428571), wk =   0.0057143
        k(   62) = (   0.1000000  -0.5000000  -0.0000000), wk =   0.0057143
        k(   63) = (   0.1000000  -0.5000000   0.1428571), wk =   0.0057143
        k(   64) = (   0.1000000  -0.5000000   0.2857143), wk =   0.0057143
        k(   65) = (   0.1000000  -0.5000000   0.4285714), wk =   0.0057143
        k(   66) = (   0.1000000  -0.5000000  -0.4285714), wk =   0.0057143
        k(   67) = (   0.1000000  -0.5000000  -0.2857143), wk =   0.0057143
        k(   68) = (   0.1000000  -0.5000000  -0.1428571), wk =   0.0057143
        k(   69) = (   0.1000000  -0.4000000  -0.0000000), wk =   0.0057143
        k(   70) = (   0.1000000  -0.4000000   0.1428571), wk =   0.0057143
        k(   71) = (   0.1000000  -0.4000000   0.2857143), wk =   0.0057143
        k(   72) = (   0.1000000  -0.4000000   0.4285714), wk =   0.0057143
        k(   73) = (   0.1000000  -0.4000000  -0.4285714), wk =   0.0057143
        k(   74) = (   0.1000000  -0.4000000  -0.2857143), wk =   0.0057143
        k(   75) = (   0.1000000  -0.4000000  -0.1428571), wk =   0.0057143
        k(   76) = (   0.1000000  -0.3000000  -0.0000000), wk =   0.0057143
        k(   77) = (   0.1000000  -0.3000000   0.1428571), wk =   0.0057143
        k(   78) = (   0.1000000  -0.3000000   0.2857143), wk =   0.0057143
        k(   79) = (   0.1000000  -0.3000000   0.4285714), wk =   0.0057143
        k(   80) = (   0.1000000  -0.3000000  -0.4285714), wk =   0.0057143
        k(   81) = (   0.1000000  -0.3000000  -0.2857143), wk =   0.0057143
        k(   82) = (   0.1000000  -0.3000000  -0.1428571), wk =   0.0057143
        k(   83) = (   0.1000000  -0.2000000  -0.0000000), wk =   0.0057143
        k(   84) = (   0.1000000  -0.2000000   0.1428571), wk =   0.0057143
        k(   85) = (   0.1000000  -0.2000000   0.2857143), wk =   0.0057143
        k(   86) = (   0.1000000  -0.2000000   0.4285714), wk =   0.0057143
        k(   87) = (   0.1000000  -0.2000000  -0.4285714), wk =   0.0057143
        k(   88) = (   0.1000000  -0.2000000  -0.2857143), wk =   0.0057143
        k(   89) = (   0.1000000  -0.2000000  -0.1428571), wk =   0.0057143
        k(   90) = (   0.1000000  -0.1000000  -0.0000000), wk =   0.0028571
        k(   91) = (   0.1000000  -0.1000000   0.1428571), wk =   0.0028571
        k(   92) = (   0.1000000  -0.1000000   0.2857143), wk =   0.0028571
        k(   93) = (   0.1000000  -0.1000000   0.4285714), wk =   0.0028571
        k(   94) = (   0.1000000  -0.1000000  -0.4285714), wk =   0.0028571
        k(   95) = (   0.1000000  -0.1000000  -0.2857143), wk =   0.0028571
        k(   96) = (   0.1000000  -0.1000000  -0.1428571), wk =   0.0028571
        k(   97) = (   0.2000000   0.2000000  -0.0000000), wk =   0.0028571
        k(   98) = (   0.2000000   0.2000000   0.1428571), wk =   0.0057143
        k(   99) = (   0.2000000   0.2000000   0.2857143), wk =   0.0057143
        k(  100) = (   0.2000000   0.2000000   0.4285714), wk =   0.0057143
        k(  101) = (   0.2000000   0.3000000   0.0000000), wk =   0.0057143
        k(  102) = (   0.2000000   0.3000000   0.1428571), wk =   0.0057143
        k(  103) = (   0.2000000   0.3000000   0.2857143), wk =   0.0057143
        k(  104) = (   0.2000000   0.3000000   0.4285714), wk =   0.0057143
        k(  105) = (   0.2000000   0.3000000  -0.4285714), wk =   0.0057143
        k(  106) = (   0.2000000   0.3000000  -0.2857143), wk =   0.0057143
        k(  107) = (   0.2000000   0.3000000  -0.1428571), wk =   0.0057143
        k(  108) = (   0.2000000   0.4000000  -0.0000000), wk =   0.0057143
        k(  109) = (   0.2000000   0.4000000   0.1428571), wk =   0.0057143
        k(  110) = (   0.2000000   0.4000000   0.2857143), wk =   0.0057143
        k(  111) = (   0.2000000   0.4000000   0.4285714), wk =   0.0057143
        k(  112) = (   0.2000000   0.4000000  -0.4285714), wk =   0.0057143
        k(  113) = (   0.2000000   0.4000000  -0.2857143), wk =   0.0057143
        k(  114) = (   0.2000000   0.4000000  -0.1428571), wk =   0.0057143
        k(  115) = (   0.2000000  -0.5000000  -0.0000000), wk =   0.0057143
        k(  116) = (   0.2000000  -0.5000000   0.1428571), wk =   0.0057143
        k(  117) = (   0.2000000  -0.5000000   0.2857143), wk =   0.0057143
        k(  118) = (   0.2000000  -0.5000000   0.4285714), wk =   0.0057143
        k(  119) = (   0.2000000  -0.5000000  -0.4285714), wk =   0.0057143
        k(  120) = (   0.2000000  -0.5000000  -0.2857143), wk =   0.0057143
        k(  121) = (   0.2000000  -0.5000000  -0.1428571), wk =   0.0057143
        k(  122) = (   0.2000000  -0.4000000  -0.0000000), wk =   0.0057143
        k(  123) = (   0.2000000  -0.4000000   0.1428571), wk =   0.0057143
        k(  124) = (   0.2000000  -0.4000000   0.2857143), wk =   0.0057143
        k(  125) = (   0.2000000  -0.4000000   0.4285714), wk =   0.0057143
        k(  126) = (   0.2000000  -0.4000000  -0.4285714), wk =   0.0057143
        k(  127) = (   0.2000000  -0.4000000  -0.2857143), wk =   0.0057143
        k(  128) = (   0.2000000  -0.4000000  -0.1428571), wk =   0.0057143
        k(  129) = (   0.2000000  -0.3000000  -0.0000000), wk =   0.0057143
        k(  130) = (   0.2000000  -0.3000000   0.1428571), wk =   0.0057143
        k(  131) = (   0.2000000  -0.3000000   0.2857143), wk =   0.0057143
        k(  132) = (   0.2000000  -0.3000000   0.4285714), wk =   0.0057143
        k(  133) = (   0.2000000  -0.3000000  -0.4285714), wk =   0.0057143
        k(  134) = (   0.2000000  -0.3000000  -0.2857143), wk =   0.0057143
        k(  135) = (   0.2000000  -0.3000000  -0.1428571), wk =   0.0057143
        k(  136) = (   0.2000000  -0.2000000  -0.0000000), wk =   0.0028571
        k(  137) = (   0.2000000  -0.2000000   0.1428571), wk =   0.0028571
        k(  138) = (   0.2000000  -0.2000000   0.2857143), wk =   0.0028571
        k(  139) = (   0.2000000  -0.2000000   0.4285714), wk =   0.0028571
        k(  140) = (   0.2000000  -0.2000000  -0.4285714), wk =   0.0028571
        k(  141) = (   0.2000000  -0.2000000  -0.2857143), wk =   0.0028571
        k(  142) = (   0.2000000  -0.2000000  -0.1428571), wk =   0.0028571
        k(  143) = (   0.3000000   0.3000000   0.0000000), wk =   0.0028571
        k(  144) = (   0.3000000   0.3000000   0.1428571), wk =   0.0057143
        k(  145) = (   0.3000000   0.3000000   0.2857143), wk =   0.0057143
        k(  146) = (   0.3000000   0.3000000   0.4285714), wk =   0.0057143
        k(  147) = (   0.3000000   0.4000000   0.0000000), wk =   0.0057143
        k(  148) = (   0.3000000   0.4000000   0.1428571), wk =   0.0057143
        k(  149) = (   0.3000000   0.4000000   0.2857143), wk =   0.0057143
        k(  150) = (   0.3000000   0.4000000   0.4285714), wk =   0.0057143
        k(  151) = (   0.3000000   0.4000000  -0.4285714), wk =   0.0057143
        k(  152) = (   0.3000000   0.4000000  -0.2857143), wk =   0.0057143
        k(  153) = (   0.3000000   0.4000000  -0.1428571), wk =   0.0057143
        k(  154) = (   0.3000000  -0.5000000   0.0000000), wk =   0.0057143
        k(  155) = (   0.3000000  -0.5000000   0.1428571), wk =   0.0057143
        k(  156) = (   0.3000000  -0.5000000   0.2857143), wk =   0.0057143
        k(  157) = (   0.3000000  -0.5000000   0.4285714), wk =   0.0057143
        k(  158) = (   0.3000000  -0.5000000  -0.4285714), wk =   0.0057143
        k(  159) = (   0.3000000  -0.5000000  -0.2857143), wk =   0.0057143
        k(  160) = (   0.3000000  -0.5000000  -0.1428571), wk =   0.0057143
        k(  161) = (   0.3000000  -0.4000000  -0.0000000), wk =   0.0057143
        k(  162) = (   0.3000000  -0.4000000   0.1428571), wk =   0.0057143
        k(  163) = (   0.3000000  -0.4000000   0.2857143), wk =   0.0057143
        k(  164) = (   0.3000000  -0.4000000   0.4285714), wk =   0.0057143
        k(  165) = (   0.3000000  -0.4000000  -0.4285714), wk =   0.0057143
        k(  166) = (   0.3000000  -0.4000000  -0.2857143), wk =   0.0057143
        k(  167) = (   0.3000000  -0.4000000  -0.1428571), wk =   0.0057143
        k(  168) = (   0.3000000  -0.3000000  -0.0000000), wk =   0.0028571
        k(  169) = (   0.3000000  -0.3000000   0.1428571), wk =   0.0028571
        k(  170) = (   0.3000000  -0.3000000   0.2857143), wk =   0.0028571
        k(  171) = (   0.3000000  -0.3000000   0.4285714), wk =   0.0028571
        k(  172) = (   0.3000000  -0.3000000  -0.4285714), wk =   0.0028571
        k(  173) = (   0.3000000  -0.3000000  -0.2857143), wk =   0.0028571
        k(  174) = (   0.3000000  -0.3000000  -0.1428571), wk =   0.0028571
        k(  175) = (   0.4000000   0.4000000  -0.0000000), wk =   0.0028571
        k(  176) = (   0.4000000   0.4000000   0.1428571), wk =   0.0057143
        k(  177) = (   0.4000000   0.4000000   0.2857143), wk =   0.0057143
        k(  178) = (   0.4000000   0.4000000   0.4285714), wk =   0.0057143
        k(  179) = (   0.4000000  -0.5000000  -0.0000000), wk =   0.0057143
        k(  180) = (   0.4000000  -0.5000000   0.1428571), wk =   0.0057143
        k(  181) = (   0.4000000  -0.5000000   0.2857143), wk =   0.0057143
        k(  182) = (   0.4000000  -0.5000000   0.4285714), wk =   0.0057143
        k(  183) = (   0.4000000  -0.5000000  -0.4285714), wk =   0.0057143
        k(  184) = (   0.4000000  -0.5000000  -0.2857143), wk =   0.0057143
        k(  185) = (   0.4000000  -0.5000000  -0.1428571), wk =   0.0057143
        k(  186) = (   0.4000000  -0.4000000  -0.0000000), wk =   0.0028571
        k(  187) = (   0.4000000  -0.4000000   0.1428571), wk =   0.0028571
        k(  188) = (   0.4000000  -0.4000000   0.2857143), wk =   0.0028571
        k(  189) = (   0.4000000  -0.4000000   0.4285714), wk =   0.0028571
        k(  190) = (   0.4000000  -0.4000000  -0.4285714), wk =   0.0028571
        k(  191) = (   0.4000000  -0.4000000  -0.2857143), wk =   0.0028571
        k(  192) = (   0.4000000  -0.4000000  -0.1428571), wk =   0.0028571
        k(  193) = (  -0.5000000  -0.5000000   0.0000000), wk =   0.0014286
        k(  194) = (  -0.5000000  -0.5000000   0.1428571), wk =   0.0028571
        k(  195) = (  -0.5000000  -0.5000000   0.2857143), wk =   0.0028571
        k(  196) = (  -0.5000000  -0.5000000   0.4285714), wk =   0.0028571

     Dense  grid:   153009 G-vectors     FFT dimensions: (  60,  60,  90)

     Smooth grid:    54091 G-vectors     FFT dimensions: (  45,  45,  60)

     Dynamical RAM for                 wfc:       3.61 MB

     Dynamical RAM for     wfc (w. buffer):    1419.03 MB

     Dynamical RAM for           str. fact:       7.00 MB

     Dynamical RAM for           local pot:       0.00 MB

     Dynamical RAM for          nlocal pot:       9.28 MB

     Dynamical RAM for                qrad:       3.77 MB

     Dynamical RAM for          rho,v,vnew:      28.84 MB

     Dynamical RAM for               rhoin:       9.61 MB

     Dynamical RAM for            rho*nmix:      74.71 MB

     Dynamical RAM for           G-vectors:       9.17 MB

     Dynamical RAM for          h,s,v(r/c):       0.22 MB

     Dynamical RAM for          <psi|beta>:       0.05 MB

     Dynamical RAM for                 psi:       7.22 MB

     Dynamical RAM for                hpsi:       7.22 MB

     Dynamical RAM for                spsi:       7.22 MB

     Dynamical RAM for      wfcinit/wfcrot:       7.25 MB

     Dynamical RAM for           addusdens:     261.49 MB

     Dynamical RAM for          addusforce:     280.19 MB

     Dynamical RAM for         addusstress:     286.00 MB

     Estimated static dynamical RAM per process >       1.48 GB

     Estimated max dynamical RAM per process >       1.83 GB

     Atomic positions and unit cell read from directory:
     ./out/aiida.save/
 
     Generating pointlists ...
     new r_m :   0.2373 (alat units)  2.0136 (a.u.) for type    1
     new r_m :   0.2417 (alat units)  2.0509 (a.u.) for type    2
     new r_m :   0.2373 (alat units)  2.0136 (a.u.) for type    3

     The initial density is read from file :
     ./out/aiida.save/charge-density


     starting charge      57.9985, renormalised to      58.0000
     Starting wfcs from file

     total cpu time spent up to now is        4.9 secs

     per-process dynamical memory:   463.3 Mb

     Self-consistent Calculation
[tb_dev] Currently allocated     6.10E-05 Mbytes, locked:    0 /   2
[tb_pin] Currently allocated     0.00E+00 Mbytes, locked:    0 /   0

     iteration #  1     ecut=    60.00 Ry     beta= 0.10
     Davidson diagonalization with overlap

---- Real-time Memory Report at c_bands before calling an iterative solver
           603 MiB given to the printing process from OS
           460 MiB allocation reported by mallinfo(arena+hblkhd)
         42735 MiB available memory on the node where the printing process lives
     GPU memory used/free/total (MiB): 994 / 15286 / 16280
------------------
     ethr =  1.00E-05,  avg # of iterations =  1.0
     Minimization algorithm failed to find Fermi energy: reverting to bisection
     Possible cause: smearing is larger than the electronic band-gap.

     Threshold (ethr) on eigenvalues was too large:
     Diagonalizing with lowered threshold

     Davidson diagonalization with overlap

---- Real-time Memory Report at c_bands before calling an iterative solver
          2375 MiB given to the printing process from OS
         -1883 MiB allocation reported by mallinfo(arena+hblkhd)
         39011 MiB available memory on the node where the printing process lives
     GPU memory used/free/total (MiB): 1366 / 14914 / 16280
------------------
     ethr =  2.04E-09,  avg # of iterations =  1.0
     Minimization algorithm failed to find Fermi energy: reverting to bisection
     Possible cause: smearing is larger than the electronic band-gap.

     total cpu time spent up to now is       24.8 secs

     total energy              =    -530.23129313 Ry
     estimated scf accuracy    <       0.00000119 Ry

     total magnetization       =     0.03 Bohr mag/cell
     absolute magnetization    =     0.05 Bohr mag/cell
[tb_dev] Currently allocated     3.67E+00 Mbytes, locked:    0 /  10
[tb_pin] Currently allocated     0.00E+00 Mbytes, locked:    0 /   0

     iteration #  2     ecut=    60.00 Ry     beta= 0.10
     Davidson diagonalization with overlap

---- Real-time Memory Report at c_bands before calling an iterative solver
          2414 MiB given to the printing process from OS
         -1841 MiB allocation reported by mallinfo(arena+hblkhd)
         38977 MiB available memory on the node where the printing process lives
     GPU memory used/free/total (MiB): 1370 / 14910 / 16280
------------------
     ethr =  2.04E-09,  avg # of iterations =  1.0
     Minimization algorithm failed to find Fermi energy: reverting to bisection
     Possible cause: smearing is larger than the electronic band-gap.

     total cpu time spent up to now is       34.5 secs

     total energy              =    -530.23129300 Ry
     estimated scf accuracy    <       0.00000073 Ry

     total magnetization       =     0.03 Bohr mag/cell
     absolute magnetization    =     0.05 Bohr mag/cell
[tb_dev] Currently allocated     3.67E+00 Mbytes, locked:    0 /  10
[tb_pin] Currently allocated     0.00E+00 Mbytes, locked:    0 /   0

     iteration #  3     ecut=    60.00 Ry     beta= 0.10
     Davidson diagonalization with overlap

---- Real-time Memory Report at c_bands before calling an iterative solver
          2419 MiB given to the printing process from OS
         -1837 MiB allocation reported by mallinfo(arena+hblkhd)
         38971 MiB available memory on the node where the printing process lives
     GPU memory used/free/total (MiB): 1370 / 14910 / 16280
------------------
     ethr =  1.26E-09,  avg # of iterations =  1.6
     Minimization algorithm failed to find Fermi energy: reverting to bisection
     Possible cause: smearing is larger than the electronic band-gap.

     total cpu time spent up to now is       45.0 secs

     total energy              =    -530.23129310 Ry
     estimated scf accuracy    <       0.00000029 Ry

     total magnetization       =     0.03 Bohr mag/cell
     absolute magnetization    =     0.05 Bohr mag/cell
[tb_dev] Currently allocated     3.67E+00 Mbytes, locked:    0 /  10
[tb_pin] Currently allocated     0.00E+00 Mbytes, locked:    0 /   0

     iteration #  4     ecut=    60.00 Ry     beta= 0.10
     Davidson diagonalization with overlap

---- Real-time Memory Report at c_bands before calling an iterative solver
          2421 MiB given to the printing process from OS
         -1835 MiB allocation reported by mallinfo(arena+hblkhd)
         38969 MiB available memory on the node where the printing process lives
     GPU memory used/free/total (MiB): 1404 / 14876 / 16280
------------------
     ethr =  4.94E-10,  avg # of iterations =  1.5
     Minimization algorithm failed to find Fermi energy: reverting to bisection
     Possible cause: smearing is larger than the electronic band-gap.

     total cpu time spent up to now is       55.5 secs

     total energy              =    -530.23129324 Ry
     estimated scf accuracy    <       0.00000010 Ry

     total magnetization       =     0.03 Bohr mag/cell
     absolute magnetization    =     0.05 Bohr mag/cell
[tb_dev] Currently allocated     3.67E+00 Mbytes, locked:    0 /  10
[tb_pin] Currently allocated     0.00E+00 Mbytes, locked:    0 /   0

     iteration #  5     ecut=    60.00 Ry     beta= 0.10
     Davidson diagonalization with overlap

---- Real-time Memory Report at c_bands before calling an iterative solver
          2426 MiB given to the printing process from OS
         -1830 MiB allocation reported by mallinfo(arena+hblkhd)
         38964 MiB available memory on the node where the printing process lives
     GPU memory used/free/total (MiB): 1404 / 14876 / 16280
------------------
     ethr =  1.69E-10,  avg # of iterations =  2.9
     Minimization algorithm failed to find Fermi energy: reverting to bisection
     Possible cause: smearing is larger than the electronic band-gap.

     total cpu time spent up to now is       68.2 secs

     total energy              =    -530.23129335 Ry
     estimated scf accuracy    <       0.00000008 Ry

     total magnetization       =     0.03 Bohr mag/cell
     absolute magnetization    =     0.05 Bohr mag/cell
[tb_dev] Currently allocated     3.67E+00 Mbytes, locked:    0 /  10
[tb_pin] Currently allocated     0.00E+00 Mbytes, locked:    0 /   0

     iteration #  6     ecut=    60.00 Ry     beta= 0.10
     Davidson diagonalization with overlap

---- Real-time Memory Report at c_bands before calling an iterative solver
          2428 MiB given to the printing process from OS
         -1885 MiB allocation reported by mallinfo(arena+hblkhd)
         38975 MiB available memory on the node where the printing process lives
     GPU memory used/free/total (MiB): 1472 / 14808 / 16280
------------------
     ethr =  1.40E-10,  avg # of iterations =  2.0
     Minimization algorithm failed to find Fermi energy: reverting to bisection
     Possible cause: smearing is larger than the electronic band-gap.

     total cpu time spent up to now is       79.7 secs

     total energy              =    -530.23129347 Ry
     estimated scf accuracy    <       0.00000007 Ry

     total magnetization       =     0.03 Bohr mag/cell
     absolute magnetization    =     0.05 Bohr mag/cell
[tb_dev] Currently allocated     3.67E+00 Mbytes, locked:    0 /  10
[tb_pin] Currently allocated     0.00E+00 Mbytes, locked:    0 /   0

     iteration #  7     ecut=    60.00 Ry     beta= 0.10
     Davidson diagonalization with overlap

---- Real-time Memory Report at c_bands before calling an iterative solver
          2434 MiB given to the printing process from OS
         -1821 MiB allocation reported by mallinfo(arena+hblkhd)
         38959 MiB available memory on the node where the printing process lives
     GPU memory used/free/total (MiB): 1472 / 14808 / 16280
------------------
     ethr =  1.22E-10,  avg # of iterations =  4.1

     total cpu time spent up to now is       94.8 secs

     WARNING: integrated charge=    57.99997800, expected=    58.00000000

     total energy              =    -530.22921060 Ry
     estimated scf accuracy    <       0.00004229 Ry

     total magnetization       =    -0.00 Bohr mag/cell
     absolute magnetization    =     0.02 Bohr mag/cell
[tb_dev] Currently allocated     3.67E+00 Mbytes, locked:    0 /  10
[tb_pin] Currently allocated     0.00E+00 Mbytes, locked:    0 /   0

     iteration #  8     ecut=    60.00 Ry     beta= 0.10
     Davidson diagonalization with overlap

---- Real-time Memory Report at c_bands before calling an iterative solver
          2436 MiB given to the printing process from OS
         -1877 MiB allocation reported by mallinfo(arena+hblkhd)
         38970 MiB available memory on the node where the printing process lives
     GPU memory used/free/total (MiB): 1472 / 14808 / 16280
------------------
     ethr =  1.22E-10,  avg # of iterations =  2.8

     total cpu time spent up to now is      107.2 secs

     WARNING: integrated charge=    58.00005135, expected=    58.00000000

     total energy              =    -530.22920773 Ry
     estimated scf accuracy    <       0.00004411 Ry

     total magnetization       =    -0.00 Bohr mag/cell
     absolute magnetization    =     0.02 Bohr mag/cell
[tb_dev] Currently allocated     3.67E+00 Mbytes, locked:    0 /  10
[tb_pin] Currently allocated     0.00E+00 Mbytes, locked:    0 /   0

     iteration #  9     ecut=    60.00 Ry     beta= 0.10
     Davidson diagonalization with overlap

---- Real-time Memory Report at c_bands before calling an iterative solver
          2443 MiB given to the printing process from OS
         -1813 MiB allocation reported by mallinfo(arena+hblkhd)
         38953 MiB available memory on the node where the printing process lives
     GPU memory used/free/total (MiB): 1472 / 14808 / 16280
------------------
     ethr =  1.22E-10,  avg # of iterations =  3.7
     Minimization algorithm failed to find Fermi energy: reverting to bisection
     Possible cause: smearing is larger than the electronic band-gap.

     total cpu time spent up to now is      121.2 secs

     WARNING: integrated charge=    58.00005872, expected=    58.00000000

     total energy              =    -530.23129354 Ry
     estimated scf accuracy    <       0.00000006 Ry

     total magnetization       =     0.03 Bohr mag/cell
     absolute magnetization    =     0.04 Bohr mag/cell
[tb_dev] Currently allocated     3.67E+00 Mbytes, locked:    0 /  10
[tb_pin] Currently allocated     0.00E+00 Mbytes, locked:    0 /   0

     iteration # 10     ecut=    60.00 Ry     beta= 0.10
     Davidson diagonalization with overlap

---- Real-time Memory Report at c_bands before calling an iterative solver
          2446 MiB given to the printing process from OS
         -1810 MiB allocation reported by mallinfo(arena+hblkhd)
         38950 MiB available memory on the node where the printing process lives
     GPU memory used/free/total (MiB): 1472 / 14808 / 16280
------------------
     ethr =  9.84E-11,  avg # of iterations =  1.0
     Minimization algorithm failed to find Fermi energy: reverting to bisection
     Possible cause: smearing is larger than the electronic band-gap.

     total cpu time spent up to now is      130.7 secs

     WARNING: integrated charge=    58.00005548, expected=    58.00000000

     total energy              =    -530.23129353 Ry
     estimated scf accuracy    <       0.00000006 Ry

     total magnetization       =     0.03 Bohr mag/cell
     absolute magnetization    =     0.04 Bohr mag/cell
[tb_dev] Currently allocated     3.67E+00 Mbytes, locked:    0 /  10
[tb_pin] Currently allocated     0.00E+00 Mbytes, locked:    0 /   0

     iteration # 11     ecut=    60.00 Ry     beta= 0.10
     Davidson diagonalization with overlap

---- Real-time Memory Report at c_bands before calling an iterative solver
          2446 MiB given to the printing process from OS
         -1810 MiB allocation reported by mallinfo(arena+hblkhd)
         38951 MiB available memory on the node where the printing process lives
     GPU memory used/free/total (MiB): 1472 / 14808 / 16280
------------------
     ethr =  9.68E-11,  avg # of iterations =  1.0
     Minimization algorithm failed to find Fermi energy: reverting to bisection
     Possible cause: smearing is larger than the electronic band-gap.

     total cpu time spent up to now is      140.3 secs

     WARNING: integrated charge=    58.00001896, expected=    58.00000000

     total energy              =    -530.23129350 Ry
     estimated scf accuracy    <       0.00000006 Ry

     total magnetization       =     0.03 Bohr mag/cell
     absolute magnetization    =     0.04 Bohr mag/cell
[tb_dev] Currently allocated     3.67E+00 Mbytes, locked:    0 /  10
[tb_pin] Currently allocated     0.00E+00 Mbytes, locked:    0 /   0

     iteration # 12     ecut=    60.00 Ry     beta= 0.10
     Davidson diagonalization with overlap

---- Real-time Memory Report at c_bands before calling an iterative solver
          2446 MiB given to the printing process from OS
         -1810 MiB allocation reported by mallinfo(arena+hblkhd)
         38951 MiB available memory on the node where the printing process lives
     GPU memory used/free/total (MiB): 1472 / 14808 / 16280
------------------
     ethr =  9.68E-11,  avg # of iterations =  1.0
     Minimization algorithm failed to find Fermi energy: reverting to bisection
     Possible cause: smearing is larger than the electronic band-gap.

     total cpu time spent up to now is      149.9 secs

     WARNING: integrated charge=    58.00022144, expected=    58.00000000

     total energy              =    -530.23129356 Ry
     estimated scf accuracy    <       0.00000006 Ry

     total magnetization       =     0.03 Bohr mag/cell
     absolute magnetization    =     0.04 Bohr mag/cell
[tb_dev] Currently allocated     3.67E+00 Mbytes, locked:    0 /  10
[tb_pin] Currently allocated     0.00E+00 Mbytes, locked:    0 /   0

     iteration # 13     ecut=    60.00 Ry     beta= 0.10
     Davidson diagonalization with overlap

---- Real-time Memory Report at c_bands before calling an iterative solver
          2446 MiB given to the printing process from OS
         -1810 MiB allocation reported by mallinfo(arena+hblkhd)
         38950 MiB available memory on the node where the printing process lives
     GPU memory used/free/total (MiB): 1472 / 14808 / 16280
------------------
     ethr =  9.68E-11,  avg # of iterations =  1.6
     Minimization algorithm failed to find Fermi energy: reverting to bisection
     Possible cause: smearing is larger than the electronic band-gap.

     total cpu time spent up to now is      160.5 secs

     WARNING: integrated charge=    58.00097647, expected=    58.00000000

     total energy              =    -530.23129362 Ry
     estimated scf accuracy    <       0.00000007 Ry

     total magnetization       =     0.03 Bohr mag/cell
     absolute magnetization    =     0.04 Bohr mag/cell
[tb_dev] Currently allocated     3.67E+00 Mbytes, locked:    0 /  10
[tb_pin] Currently allocated     0.00E+00 Mbytes, locked:    0 /   0

     iteration # 14     ecut=    60.00 Ry     beta= 0.10
     Davidson diagonalization with overlap

---- Real-time Memory Report at c_bands before calling an iterative solver
          2446 MiB given to the printing process from OS
         -1810 MiB allocation reported by mallinfo(arena+hblkhd)
         38950 MiB available memory on the node where the printing process lives
     GPU memory used/free/total (MiB): 1472 / 14808 / 16280
------------------
     ethr =  9.68E-11,  avg # of iterations =  4.9

     total cpu time spent up to now is      177.1 secs

     WARNING: integrated charge=    58.00069040, expected=    58.00000000

     total energy              =    -530.22920923 Ry
     estimated scf accuracy    <       0.00003273 Ry

     total magnetization       =    -0.00 Bohr mag/cell
     absolute magnetization    =     0.02 Bohr mag/cell
[tb_dev] Currently allocated     3.67E+00 Mbytes, locked:    0 /  10
[tb_pin] Currently allocated     0.00E+00 Mbytes, locked:    0 /   0

     iteration # 15     ecut=    60.00 Ry     beta= 0.10
     Davidson diagonalization with overlap

---- Real-time Memory Report at c_bands before calling an iterative solver
          2450 MiB given to the printing process from OS
         -1810 MiB allocation reported by mallinfo(arena+hblkhd)
         38949 MiB available memory on the node where the printing process lives
     GPU memory used/free/total (MiB): 1472 / 14808 / 16280
------------------
     ethr =  9.68E-11,  avg # of iterations =  4.0
     Minimization algorithm failed to find Fermi energy: reverting to bisection
     Possible cause: smearing is larger than the electronic band-gap.

     total cpu time spent up to now is      191.9 secs

     WARNING: integrated charge=    57.99968709, expected=    58.00000000

     total energy              =    -530.23129295 Ry
     estimated scf accuracy    <       0.00000028 Ry

     total magnetization       =     0.02 Bohr mag/cell
     absolute magnetization    =     0.04 Bohr mag/cell
[tb_dev] Currently allocated     3.67E+00 Mbytes, locked:    0 /  10
[tb_pin] Currently allocated     0.00E+00 Mbytes, locked:    0 /   0

     iteration # 16     ecut=    60.00 Ry     beta= 0.10
     Davidson diagonalization with overlap

---- Real-time Memory Report at c_bands before calling an iterative solver
          2450 MiB given to the printing process from OS
         -1810 MiB allocation reported by mallinfo(arena+hblkhd)
         38948 MiB available memory on the node where the printing process lives
     GPU memory used/free/total (MiB): 1472 / 14808 / 16280
------------------
     ethr =  9.68E-11,  avg # of iterations =  4.6
     Minimization algorithm failed to find Fermi energy: reverting to bisection
     Possible cause: smearing is larger than the electronic band-gap.

     total cpu time spent up to now is      208.2 secs

     WARNING: integrated charge=    58.00065075, expected=    58.00000000

     total energy              =    -530.23129349 Ry
     estimated scf accuracy    <       0.00000014 Ry

     total magnetization       =     0.03 Bohr mag/cell
     absolute magnetization    =     0.04 Bohr mag/cell
[tb_dev] Currently allocated     3.67E+00 Mbytes, locked:    0 /  10
[tb_pin] Currently allocated     0.00E+00 Mbytes, locked:    0 /   0

     iteration # 17     ecut=    60.00 Ry     beta= 0.10
     Davidson diagonalization with overlap

---- Real-time Memory Report at c_bands before calling an iterative solver
          2450 MiB given to the printing process from OS
         -1810 MiB allocation reported by mallinfo(arena+hblkhd)
         38948 MiB available memory on the node where the printing process lives
     GPU memory used/free/total (MiB): 1472 / 14808 / 16280
------------------
     ethr =  9.68E-11,  avg # of iterations =  3.8
     Minimization algorithm failed to find Fermi energy: reverting to bisection
     Possible cause: smearing is larger than the electronic band-gap.

     total cpu time spent up to now is      222.7 secs

     WARNING: integrated charge=    57.99855511, expected=    58.00000000

     total energy              =    -530.23129245 Ry
     estimated scf accuracy    <       0.00000025 Ry

     total magnetization       =     0.02 Bohr mag/cell
     absolute magnetization    =     0.04 Bohr mag/cell
[tb_dev] Currently allocated     3.67E+00 Mbytes, locked:    0 /  10
[tb_pin] Currently allocated     0.00E+00 Mbytes, locked:    0 /   0

     iteration # 18     ecut=    60.00 Ry     beta= 0.10
     Davidson diagonalization with overlap

---- Real-time Memory Report at c_bands before calling an iterative solver
          2450 MiB given to the printing process from OS
         -1810 MiB allocation reported by mallinfo(arena+hblkhd)
         38924 MiB available memory on the node where the printing process lives
     GPU memory used/free/total (MiB): 1472 / 14808 / 16280
------------------
     ethr =  9.68E-11,  avg # of iterations =  4.4
     Minimization algorithm failed to find Fermi energy: reverting to bisection
     Possible cause: smearing is larger than the electronic band-gap.

     total cpu time spent up to now is      238.8 secs

     WARNING: integrated charge=    57.99848503, expected=    58.00000000

     total energy              =    -530.23129338 Ry
     estimated scf accuracy    <       0.00000125 Ry

     total magnetization       =     0.03 Bohr mag/cell
     absolute magnetization    =     0.05 Bohr mag/cell
[tb_dev] Currently allocated     3.67E+00 Mbytes, locked:    0 /  10
[tb_pin] Currently allocated     0.00E+00 Mbytes, locked:    0 /   0

     iteration # 19     ecut=    60.00 Ry     beta= 0.10
     Davidson diagonalization with overlap

---- Real-time Memory Report at c_bands before calling an iterative solver
          2450 MiB given to the printing process from OS
         -1810 MiB allocation reported by mallinfo(arena+hblkhd)
         38937 MiB available memory on the node where the printing process lives
     GPU memory used/free/total (MiB): 1494 / 14786 / 16280
------------------
     ethr =  9.68E-11,  avg # of iterations =  1.0
     Minimization algorithm failed to find Fermi energy: reverting to bisection
     Possible cause: smearing is larger than the electronic band-gap.

     total cpu time spent up to now is      248.4 secs

     WARNING: integrated charge=    57.99808839, expected=    58.00000000

     total energy              =    -530.23129346 Ry
     estimated scf accuracy    <       0.00000124 Ry

     total magnetization       =     0.03 Bohr mag/cell
     absolute magnetization    =     0.05 Bohr mag/cell
[tb_dev] Currently allocated     3.67E+00 Mbytes, locked:    0 /  10
[tb_pin] Currently allocated     0.00E+00 Mbytes, locked:    0 /   0

     iteration # 20     ecut=    60.00 Ry     beta= 0.10
     Davidson diagonalization with overlap

---- Real-time Memory Report at c_bands before calling an iterative solver
          2450 MiB given to the printing process from OS
         -1810 MiB allocation reported by mallinfo(arena+hblkhd)
         38940 MiB available memory on the node where the printing process lives
     GPU memory used/free/total (MiB): 1494 / 14786 / 16280
------------------
     ethr =  9.68E-11,  avg # of iterations =  2.3

     total cpu time spent up to now is      260.3 secs

     WARNING: integrated charge=    57.99766414, expected=    58.00000000

     total energy              =    -530.22920868 Ry
     estimated scf accuracy    <       0.00005593 Ry

     total magnetization       =    -0.00 Bohr mag/cell
     absolute magnetization    =     0.03 Bohr mag/cell
[tb_dev] Currently allocated     3.67E+00 Mbytes, locked:    0 /  10
[tb_pin] Currently allocated     0.00E+00 Mbytes, locked:    0 /   0

     iteration # 21     ecut=    60.00 Ry     beta= 0.10
     Davidson diagonalization with overlap

---- Real-time Memory Report at c_bands before calling an iterative solver
          2450 MiB given to the printing process from OS
         -1810 MiB allocation reported by mallinfo(arena+hblkhd)
         38940 MiB available memory on the node where the printing process lives
     GPU memory used/free/total (MiB): 1494 / 14786 / 16280
------------------
     ethr =  9.68E-11,  avg # of iterations =  3.1

     total cpu time spent up to now is      273.5 secs

     WARNING: integrated charge=    57.99910467, expected=    58.00000000

     total energy              =    -530.22920931 Ry
     estimated scf accuracy    <       0.00006149 Ry

     total magnetization       =    -0.00 Bohr mag/cell
     absolute magnetization    =     0.03 Bohr mag/cell
[tb_dev] Currently allocated     3.67E+00 Mbytes, locked:    0 /  10
[tb_pin] Currently allocated     0.00E+00 Mbytes, locked:    0 /   0

     iteration # 22     ecut=    60.00 Ry     beta= 0.10
     Davidson diagonalization with overlap

---- Real-time Memory Report at c_bands before calling an iterative solver
          2450 MiB given to the printing process from OS
         -1810 MiB allocation reported by mallinfo(arena+hblkhd)
         38942 MiB available memory on the node where the printing process lives
     GPU memory used/free/total (MiB): 1494 / 14786 / 16280
------------------
     ethr =  9.68E-11,  avg # of iterations =  4.1

     total cpu time spent up to now is      288.7 secs

     WARNING: integrated charge=    57.99908116, expected=    58.00000000

     total energy              =    -530.22920814 Ry
     estimated scf accuracy    <       0.00004724 Ry

     total magnetization       =    -0.00 Bohr mag/cell
     absolute magnetization    =     0.02 Bohr mag/cell
[tb_dev] Currently allocated     3.67E+00 Mbytes, locked:    0 /  10
[tb_pin] Currently allocated     0.00E+00 Mbytes, locked:    0 /   0

     iteration # 23     ecut=    60.00 Ry     beta= 0.10
     Davidson diagonalization with overlap

---- Real-time Memory Report at c_bands before calling an iterative solver
          2450 MiB given to the printing process from OS
         -1810 MiB allocation reported by mallinfo(arena+hblkhd)
         38943 MiB available memory on the node where the printing process lives
     GPU memory used/free/total (MiB): 1494 / 14786 / 16280
------------------
     ethr =  9.68E-11,  avg # of iterations =  2.5
     Minimization algorithm failed to find Fermi energy: reverting to bisection
     Possible cause: smearing is larger than the electronic band-gap.

     total cpu time spent up to now is      300.9 secs

     WARNING: integrated charge=    57.99868496, expected=    58.00000000

     total energy              =    -530.23129333 Ry
     estimated scf accuracy    <       0.00000034 Ry

     total magnetization       =     0.03 Bohr mag/cell
     absolute magnetization    =     0.05 Bohr mag/cell
[tb_dev] Currently allocated     3.67E+00 Mbytes, locked:    0 /  10
[tb_pin] Currently allocated     0.00E+00 Mbytes, locked:    0 /   0

     iteration # 24     ecut=    60.00 Ry     beta= 0.10
     Davidson diagonalization with overlap

---- Real-time Memory Report at c_bands before calling an iterative solver
          2450 MiB given to the printing process from OS
         -1810 MiB allocation reported by mallinfo(arena+hblkhd)
         38944 MiB available memory on the node where the printing process lives
     GPU memory used/free/total (MiB): 1494 / 14786 / 16280
------------------
     ethr =  9.68E-11,  avg # of iterations =  2.7
     Minimization algorithm failed to find Fermi energy: reverting to bisection
     Possible cause: smearing is larger than the electronic band-gap.

     total cpu time spent up to now is      313.4 secs

     WARNING: integrated charge=    57.99881614, expected=    58.00000000

     total energy              =    -530.23129332 Ry
     estimated scf accuracy    <       0.00000071 Ry

     total magnetization       =     0.03 Bohr mag/cell
     absolute magnetization    =     0.05 Bohr mag/cell
[tb_dev] Currently allocated     3.67E+00 Mbytes, locked:    0 /  10
[tb_pin] Currently allocated     0.00E+00 Mbytes, locked:    0 /   0

     iteration # 25     ecut=    60.00 Ry     beta= 0.10
     Davidson diagonalization with overlap

---- Real-time Memory Report at c_bands before calling an iterative solver
          2450 MiB given to the printing process from OS
         -1810 MiB allocation reported by mallinfo(arena+hblkhd)
         38944 MiB available memory on the node where the printing process lives
     GPU memory used/free/total (MiB): 1494 / 14786 / 16280
------------------
     ethr =  9.68E-11,  avg # of iterations =  1.3
     Minimization algorithm failed to find Fermi energy: reverting to bisection
     Possible cause: smearing is larger than the electronic band-gap.

     total cpu time spent up to now is      323.3 secs

     WARNING: integrated charge=    57.99868452, expected=    58.00000000

     total energy              =    -530.23129320 Ry
     estimated scf accuracy    <       0.00000058 Ry

     total magnetization       =     0.03 Bohr mag/cell
     absolute magnetization    =     0.05 Bohr mag/cell
[tb_dev] Currently allocated     3.67E+00 Mbytes, locked:    0 /  10
[tb_pin] Currently allocated     0.00E+00 Mbytes, locked:    0 /   0

     iteration # 26     ecut=    60.00 Ry     beta= 0.10
     Davidson diagonalization with overlap

---- Real-time Memory Report at c_bands before calling an iterative solver
          2450 MiB given to the printing process from OS
         -1810 MiB allocation reported by mallinfo(arena+hblkhd)
         38945 MiB available memory on the node where the printing process lives
     GPU memory used/free/total (MiB): 1494 / 14786 / 16280
------------------
     ethr =  9.68E-11,  avg # of iterations =  2.5
     Minimization algorithm failed to find Fermi energy: reverting to bisection
     Possible cause: smearing is larger than the electronic band-gap.

     total cpu time spent up to now is      335.4 secs

     WARNING: integrated charge=    57.99853796, expected=    58.00000000

     total energy              =    -530.23129319 Ry
     estimated scf accuracy    <       0.00000068 Ry

     total magnetization       =     0.03 Bohr mag/cell
     absolute magnetization    =     0.05 Bohr mag/cell
[tb_dev] Currently allocated     3.67E+00 Mbytes, locked:    0 /  10
[tb_pin] Currently allocated     0.00E+00 Mbytes, locked:    0 /   0

     iteration # 27     ecut=    60.00 Ry     beta= 0.10
     Davidson diagonalization with overlap

---- Real-time Memory Report at c_bands before calling an iterative solver
          2450 MiB given to the printing process from OS
         -1810 MiB allocation reported by mallinfo(arena+hblkhd)
         38946 MiB available memory on the node where the printing process lives
     GPU memory used/free/total (MiB): 1494 / 14786 / 16280
------------------
     ethr =  9.68E-11,  avg # of iterations =  1.8
     Minimization algorithm failed to find Fermi energy: reverting to bisection
     Possible cause: smearing is larger than the electronic band-gap.

     total cpu time spent up to now is      346.2 secs

     WARNING: integrated charge=    57.99843808, expected=    58.00000000

     total energy              =    -530.23129318 Ry
     estimated scf accuracy    <       0.00000085 Ry

     total magnetization       =     0.03 Bohr mag/cell
     absolute magnetization    =     0.05 Bohr mag/cell
[tb_dev] Currently allocated     3.67E+00 Mbytes, locked:    0 /  10
[tb_pin] Currently allocated     0.00E+00 Mbytes, locked:    0 /   0

     iteration # 28     ecut=    60.00 Ry     beta= 0.10
     Davidson diagonalization with overlap

---- Real-time Memory Report at c_bands before calling an iterative solver
          2450 MiB given to the printing process from OS
         -1810 MiB allocation reported by mallinfo(arena+hblkhd)
         38946 MiB available memory on the node where the printing process lives
     GPU memory used/free/total (MiB): 1494 / 14786 / 16280
------------------
     ethr =  9.68E-11,  avg # of iterations =  1.7
     Minimization algorithm failed to find Fermi energy: reverting to bisection
     Possible cause: smearing is larger than the electronic band-gap.

     total cpu time spent up to now is      356.8 secs

     WARNING: integrated charge=    57.99844007, expected=    58.00000000

     total energy              =    -530.23129316 Ry
     estimated scf accuracy    <       0.00000098 Ry

     total magnetization       =     0.03 Bohr mag/cell
     absolute magnetization    =     0.05 Bohr mag/cell
[tb_dev] Currently allocated     3.67E+00 Mbytes, locked:    0 /  10
[tb_pin] Currently allocated     0.00E+00 Mbytes, locked:    0 /   0

     iteration # 29     ecut=    60.00 Ry     beta= 0.10
     Davidson diagonalization with overlap

---- Real-time Memory Report at c_bands before calling an iterative solver
          2450 MiB given to the printing process from OS
         -1810 MiB allocation reported by mallinfo(arena+hblkhd)
         38947 MiB available memory on the node where the printing process lives
     GPU memory used/free/total (MiB): 1494 / 14786 / 16280
------------------
     ethr =  9.68E-11,  avg # of iterations =  1.0
     Minimization algorithm failed to find Fermi energy: reverting to bisection
     Possible cause: smearing is larger than the electronic band-gap.

     total cpu time spent up to now is      366.4 secs

     WARNING: integrated charge=    57.99846391, expected=    58.00000000

     total energy              =    -530.23129314 Ry
     estimated scf accuracy    <       0.00000098 Ry

     total magnetization       =     0.03 Bohr mag/cell
     absolute magnetization    =     0.05 Bohr mag/cell
[tb_dev] Currently allocated     3.67E+00 Mbytes, locked:    0 /  10
[tb_pin] Currently allocated     0.00E+00 Mbytes, locked:    0 /   0

     iteration # 30     ecut=    60.00 Ry     beta= 0.10
     Davidson diagonalization with overlap

---- Real-time Memory Report at c_bands before calling an iterative solver
          2450 MiB given to the printing process from OS
         -1810 MiB allocation reported by mallinfo(arena+hblkhd)
         38947 MiB available memory on the node where the printing process lives
     GPU memory used/free/total (MiB): 1494 / 14786 / 16280
------------------
     ethr =  9.68E-11,  avg # of iterations =  1.0
     Minimization algorithm failed to find Fermi energy: reverting to bisection
     Possible cause: smearing is larger than the electronic band-gap.

     total cpu time spent up to now is      376.0 secs

     WARNING: integrated charge=    57.99840920, expected=    58.00000000

     total energy              =    -530.23129317 Ry
     estimated scf accuracy    <       0.00000095 Ry

     total magnetization       =     0.03 Bohr mag/cell
     absolute magnetization    =     0.05 Bohr mag/cell
[tb_dev] Currently allocated     3.67E+00 Mbytes, locked:    0 /  10
[tb_pin] Currently allocated     0.00E+00 Mbytes, locked:    0 /   0

     iteration # 31     ecut=    60.00 Ry     beta= 0.10
     Davidson diagonalization with overlap

---- Real-time Memory Report at c_bands before calling an iterative solver
          2450 MiB given to the printing process from OS
         -1810 MiB allocation reported by mallinfo(arena+hblkhd)
         38947 MiB available memory on the node where the printing process lives
     GPU memory used/free/total (MiB): 1494 / 14786 / 16280
------------------
     ethr =  9.68E-11,  avg # of iterations =  1.0
     Minimization algorithm failed to find Fermi energy: reverting to bisection
     Possible cause: smearing is larger than the electronic band-gap.

     total cpu time spent up to now is      385.6 secs

     WARNING: integrated charge=    58.00007328, expected=    58.00000000

     total energy              =    -530.23128946 Ry
     estimated scf accuracy    <       0.00000101 Ry

     total magnetization       =     0.03 Bohr mag/cell
     absolute magnetization    =     0.05 Bohr mag/cell
[tb_dev] Currently allocated     3.67E+00 Mbytes, locked:    0 /  10
[tb_pin] Currently allocated     0.00E+00 Mbytes, locked:    0 /   0

     iteration # 32     ecut=    60.00 Ry     beta= 0.10
     Davidson diagonalization with overlap

---- Real-time Memory Report at c_bands before calling an iterative solver
          2450 MiB given to the printing process from OS
         -1810 MiB allocation reported by mallinfo(arena+hblkhd)
         38947 MiB available memory on the node where the printing process lives
     GPU memory used/free/total (MiB): 1494 / 14786 / 16280
------------------
     ethr =  9.68E-11,  avg # of iterations =  5.6

     total cpu time spent up to now is      404.5 secs

     WARNING: integrated charge=    57.99766604, expected=    58.00000000

     total energy              =    -530.22922073 Ry
     estimated scf accuracy    <       0.00003780 Ry

     total magnetization       =    -0.00 Bohr mag/cell
     absolute magnetization    =     0.02 Bohr mag/cell
[tb_dev] Currently allocated     3.67E+00 Mbytes, locked:    0 /  10
[tb_pin] Currently allocated     0.00E+00 Mbytes, locked:    0 /   0

     iteration # 33     ecut=    60.00 Ry     beta= 0.10
     Davidson diagonalization with overlap

---- Real-time Memory Report at c_bands before calling an iterative solver
          2450 MiB given to the printing process from OS
         -1810 MiB allocation reported by mallinfo(arena+hblkhd)
         38948 MiB available memory on the node where the printing process lives
     GPU memory used/free/total (MiB): 1518 / 14762 / 16280
------------------
     ethr =  9.68E-11,  avg # of iterations =  5.7
     Minimization algorithm failed to find Fermi energy: reverting to bisection
     Possible cause: smearing is larger than the electronic band-gap.

     total cpu time spent up to now is      423.3 secs

     WARNING: integrated charge=    57.99749087, expected=    58.00000000

     total energy              =    -530.23129319 Ry
     estimated scf accuracy    <       0.00000231 Ry

     total magnetization       =     0.03 Bohr mag/cell
     absolute magnetization    =     0.05 Bohr mag/cell
[tb_dev] Currently allocated     3.67E+00 Mbytes, locked:    0 /  10
[tb_pin] Currently allocated     0.00E+00 Mbytes, locked:    0 /   0

     iteration # 34     ecut=    60.00 Ry     beta= 0.10
     Davidson diagonalization with overlap

---- Real-time Memory Report at c_bands before calling an iterative solver
          2450 MiB given to the printing process from OS
         -1810 MiB allocation reported by mallinfo(arena+hblkhd)
         38948 MiB available memory on the node where the printing process lives
     GPU memory used/free/total (MiB): 1572 / 14708 / 16280
------------------
     ethr =  9.68E-11,  avg # of iterations =  2.7
     Minimization algorithm failed to find Fermi energy: reverting to bisection
     Possible cause: smearing is larger than the electronic band-gap.

     total cpu time spent up to now is      435.6 secs

     WARNING: integrated charge=    57.99740437, expected=    58.00000000

     total energy              =    -530.23129312 Ry
     estimated scf accuracy    <       0.00000266 Ry

     total magnetization       =     0.03 Bohr mag/cell
     absolute magnetization    =     0.05 Bohr mag/cell
[tb_dev] Currently allocated     3.67E+00 Mbytes, locked:    0 /  10
[tb_pin] Currently allocated     0.00E+00 Mbytes, locked:    0 /   0

     iteration # 35     ecut=    60.00 Ry     beta= 0.10
     Davidson diagonalization with overlap

---- Real-time Memory Report at c_bands before calling an iterative solver
          2452 MiB given to the printing process from OS
         -1810 MiB allocation reported by mallinfo(arena+hblkhd)
         38947 MiB available memory on the node where the printing process lives
     GPU memory used/free/total (MiB): 1572 / 14708 / 16280
------------------
     ethr =  9.68E-11,  avg # of iterations =  2.7
     Minimization algorithm failed to find Fermi energy: reverting to bisection
     Possible cause: smearing is larger than the electronic band-gap.

     total cpu time spent up to now is      448.0 secs

     WARNING: integrated charge=    57.99758291, expected=    58.00000000

     total energy              =    -530.23129323 Ry
     estimated scf accuracy    <       0.00000286 Ry

     total magnetization       =     0.03 Bohr mag/cell
     absolute magnetization    =     0.05 Bohr mag/cell
[tb_dev] Currently allocated     3.67E+00 Mbytes, locked:    0 /  10
[tb_pin] Currently allocated     0.00E+00 Mbytes, locked:    0 /   0

     iteration # 36     ecut=    60.00 Ry     beta= 0.10
     Davidson diagonalization with overlap

---- Real-time Memory Report at c_bands before calling an iterative solver
          2452 MiB given to the printing process from OS
         -1810 MiB allocation reported by mallinfo(arena+hblkhd)
         38947 MiB available memory on the node where the printing process lives
     GPU memory used/free/total (MiB): 1572 / 14708 / 16280
------------------
     ethr =  9.68E-11,  avg # of iterations =  3.4
     Minimization algorithm failed to find Fermi energy: reverting to bisection
     Possible cause: smearing is larger than the electronic band-gap.

     total cpu time spent up to now is      461.6 secs

     WARNING: integrated charge=    57.99754320, expected=    58.00000000

     total energy              =    -530.23129328 Ry
     estimated scf accuracy    <       0.00000246 Ry

     total magnetization       =     0.03 Bohr mag/cell
[...]
[tb_pin] Currently allocated     0.00E+00 Mbytes, locked:    0 /   0

     iteration # 67     ecut=    60.00 Ry     beta= 0.10
     Davidson diagonalization with overlap

---- Real-time Memory Report at c_bands before calling an iterative solver
          2452 MiB given to the printing process from OS
         -1810 MiB allocation reported by mallinfo(arena+hblkhd)
         38947 MiB available memory on the node where the printing process lives
     GPU memory used/free/total (MiB): 1572 / 14708 / 16280
------------------
     ethr =  9.68E-11,  avg # of iterations =  2.2

     total cpu time spent up to now is      883.9 secs

     WARNING: integrated charge=    57.99708134, expected=    58.00000000

     total energy              =    -530.22920064 Ry
     estimated scf accuracy    <       0.00005005 Ry

     total magnetization       =    -0.00 Bohr mag/cell
     absolute magnetization    =     0.02 Bohr mag/cell
[tb_dev] Currently allocated     3.67E+00 Mbytes, locked:    0 /  10
[tb_pin] Currently allocated     0.00E+00 Mbytes, locked:    0 /   0

     iteration # 68     ecut=    60.00 Ry     beta= 0.10
     Davidson diagonalization with overlap

---- Real-time Memory Report at c_bands before calling an iterative solver
          2452 MiB given to the printing process from OS
         -1810 MiB allocation reported by mallinfo(arena+hblkhd)
         38947 MiB available memory on the node where the printing process lives
     GPU memory used/free/total (MiB): 1572 / 14708 / 16280
------------------
     ethr =  9.68E-11,  avg # of iterations =  5.4
     Minimization algorithm failed to find Fermi energy: reverting to bisection
     Possible cause: smearing is larger than the electronic band-gap.

     total cpu time spent up to now is      902.6 secs

     WARNING: integrated charge=    57.99621100, expected=    58.00000000

     total energy              =    -530.23129001 Ry
     estimated scf accuracy    <       0.00000334 Ry

     total magnetization       =     0.04 Bohr mag/cell
     absolute magnetization    =     0.06 Bohr mag/cell
[tb_dev] Currently allocated     3.67E+00 Mbytes, locked:    0 /  10
[tb_pin] Currently allocated     0.00E+00 Mbytes, locked:    0 /   0

     iteration # 69     ecut=    60.00 Ry     beta= 0.10
     Davidson diagonalization with overlap

---- Real-time Memory Report at c_bands before calling an iterative solver
          2452 MiB given to the printing process from OS
         -1810 MiB allocation reported by mallinfo(arena+hblkhd)
         38948 MiB available memory on the node where the printing process lives
     GPU memory used/free/total (MiB): 1572 / 14708 / 16280
------------------
     ethr =  9.68E-11,  avg # of iterations =  5.1
     Minimization algorithm failed to find Fermi energy: reverting to bisection
     Possible cause: smearing is larger than the electronic band-gap.

     total cpu time spent up to now is      920.2 secs

     WARNING: integrated charge=    57.99855020, expected=    58.00000000

     total energy              =    -530.23128543 Ry
     estimated scf accuracy    <       0.00000580 Ry

     total magnetization       =     0.04 Bohr mag/cell
     absolute magnetization    =     0.07 Bohr mag/cell
[tb_dev] Currently allocated     3.67E+00 Mbytes, locked:    0 /  10
[tb_pin] Currently allocated     0.00E+00 Mbytes, locked:    0 /   0

     iteration # 70     ecut=    60.00 Ry     beta= 0.10
     Davidson diagonalization with overlap

---- Real-time Memory Report at c_bands before calling an iterative solver
          2452 MiB given to the printing process from OS
         -1810 MiB allocation reported by mallinfo(arena+hblkhd)
         38948 MiB available memory on the node where the printing process lives
     GPU memory used/free/total (MiB): 1572 / 14708 / 16280
------------------
     ethr =  9.68E-11,  avg # of iterations =  6.4

     total cpu time spent up to now is      941.0 secs

     WARNING: integrated charge=    57.99835812, expected=    58.00000000

     total energy              =    -530.22920986 Ry
     estimated scf accuracy    <       0.00005160 Ry

     total magnetization       =    -0.00 Bohr mag/cell
     absolute magnetization    =     0.02 Bohr mag/cell
[tb_dev] Currently allocated     3.67E+00 Mbytes, locked:    0 /  10
[tb_pin] Currently allocated     0.00E+00 Mbytes, locked:    0 /   0

     iteration # 71     ecut=    60.00 Ry     beta= 0.10
     Davidson diagonalization with overlap

---- Real-time Memory Report at c_bands before calling an iterative solver
          2452 MiB given to the printing process from OS
         -1810 MiB allocation reported by mallinfo(arena+hblkhd)
         38948 MiB available memory on the node where the printing process lives
     GPU memory used/free/total (MiB): 1572 / 14708 / 16280
------------------
     ethr =  9.68E-11,  avg # of iterations =  3.3
     Minimization algorithm failed to find Fermi energy: reverting to bisection
     Possible cause: smearing is larger than the electronic band-gap.

     total cpu time spent up to now is      954.3 secs

     WARNING: integrated charge=    57.99802310, expected=    58.00000000

     total energy              =    -530.23129311 Ry
     estimated scf accuracy    <       0.00000103 Ry

     total magnetization       =     0.03 Bohr mag/cell
     absolute magnetization    =     0.05 Bohr mag/cell
[tb_dev] Currently allocated     3.67E+00 Mbytes, locked:    0 /  10
[tb_pin] Currently allocated     0.00E+00 Mbytes, locked:    0 /   0

     iteration # 72     ecut=    60.00 Ry     beta= 0.10
     Davidson diagonalization with overlap

---- Real-time Memory Report at c_bands before calling an iterative solver
          2452 MiB given to the printing process from OS
         -1810 MiB allocation reported by mallinfo(arena+hblkhd)
         38948 MiB available memory on the node where the printing process lives
     GPU memory used/free/total (MiB): 1572 / 14708 / 16280
------------------
     ethr =  9.68E-11,  avg # of iterations =  4.2
     Minimization algorithm failed to find Fermi energy: reverting to bisection
     Possible cause: smearing is larger than the electronic band-gap.

     total cpu time spent up to now is      969.5 secs

     WARNING: integrated charge=    57.99800997, expected=    58.00000000

     total energy              =    -530.23129324 Ry
     estimated scf accuracy    <       0.00000151 Ry

     total magnetization       =     0.03 Bohr mag/cell
     absolute magnetization    =     0.05 Bohr mag/cell
[tb_dev] Currently allocated     3.67E+00 Mbytes, locked:    0 /  10
[tb_pin] Currently allocated     0.00E+00 Mbytes, locked:    0 /   0

     iteration # 73     ecut=    60.00 Ry     beta= 0.10
     Davidson diagonalization with overlap

---- Real-time Memory Report at c_bands before calling an iterative solver
          2452 MiB given to the printing process from OS
         -1810 MiB allocation reported by mallinfo(arena+hblkhd)
         38948 MiB available memory on the node where the printing process lives
     GPU memory used/free/total (MiB): 1572 / 14708 / 16280
------------------
     ethr =  9.68E-11,  avg # of iterations =  1.0
     Minimization algorithm failed to find Fermi energy: reverting to bisection
     Possible cause: smearing is larger than the electronic band-gap.

     total cpu time spent up to now is      979.0 secs

     WARNING: integrated charge=    57.99802904, expected=    58.00000000

     total energy              =    -530.23129325 Ry
     estimated scf accuracy    <       0.00000152 Ry

     total magnetization       =     0.03 Bohr mag/cell
     absolute magnetization    =     0.05 Bohr mag/cell
[tb_dev] Currently allocated     3.67E+00 Mbytes, locked:    0 /  10
[tb_pin] Currently allocated     0.00E+00 Mbytes, locked:    0 /   0

     iteration # 74     ecut=    60.00 Ry     beta= 0.10
     Davidson diagonalization with overlap

---- Real-time Memory Report at c_bands before calling an iterative solver
          2452 MiB given to the printing process from OS
         -1810 MiB allocation reported by mallinfo(arena+hblkhd)
         38947 MiB available memory on the node where the printing process lives
     GPU memory used/free/total (MiB): 1572 / 14708 / 16280
------------------
     ethr =  9.68E-11,  avg # of iterations =  1.0
     Minimization algorithm failed to find Fermi energy: reverting to bisection
     Possible cause: smearing is larger than the electronic band-gap.

     total cpu time spent up to now is      988.6 secs

     WARNING: integrated charge=    57.99849316, expected=    58.00000000

     total energy              =    -530.23129327 Ry
     estimated scf accuracy    <       0.00000150 Ry

     total magnetization       =     0.03 Bohr mag/cell
     absolute magnetization    =     0.05 Bohr mag/cell
[tb_dev] Currently allocated     3.67E+00 Mbytes, locked:    0 /  10
[tb_pin] Currently allocated     0.00E+00 Mbytes, locked:    0 /   0

     iteration # 75     ecut=    60.00 Ry     beta= 0.10
     Davidson diagonalization with overlap

---- Real-time Memory Report at c_bands before calling an iterative solver
          2452 MiB given to the printing process from OS
         -1810 MiB allocation reported by mallinfo(arena+hblkhd)
         38948 MiB available memory on the node where the printing process lives
     GPU memory used/free/total (MiB): 1572 / 14708 / 16280
------------------
     ethr =  9.68E-11,  avg # of iterations =  4.3

     total cpu time spent up to now is     1004.0 secs

     WARNING: integrated charge=    57.99826983, expected=    58.00000000

     total energy              =    -530.22920720 Ry
     estimated scf accuracy    <       0.00005264 Ry

     total magnetization       =    -0.00 Bohr mag/cell
     absolute magnetization    =     0.03 Bohr mag/cell
[tb_dev] Currently allocated     3.67E+00 Mbytes, locked:    0 /  10
[tb_pin] Currently allocated     0.00E+00 Mbytes, locked:    0 /   0

     iteration # 76     ecut=    60.00 Ry     beta= 0.10
     Davidson diagonalization with overlap

---- Real-time Memory Report at c_bands before calling an iterative solver
          2452 MiB given to the printing process from OS
         -1810 MiB allocation reported by mallinfo(arena+hblkhd)
         38948 MiB available memory on the node where the printing process lives
     GPU memory used/free/total (MiB): 1572 / 14708 / 16280
------------------
     ethr =  9.68E-11,  avg # of iterations =  3.9
     Minimization algorithm failed to find Fermi energy: reverting to bisection
     Possible cause: smearing is larger than the electronic band-gap.

     total cpu time spent up to now is     1018.6 secs

     WARNING: integrated charge=    57.99859308, expected=    58.00000000

     total energy              =    -530.23129335 Ry
     estimated scf accuracy    <       0.00000119 Ry

     total magnetization       =     0.03 Bohr mag/cell
     absolute magnetization    =     0.05 Bohr mag/cell
[tb_dev] Currently allocated     3.67E+00 Mbytes, locked:    0 /  10
[tb_pin] Currently allocated     0.00E+00 Mbytes, locked:    0 /   0

     iteration # 77     ecut=    60.00 Ry     beta= 0.10
     Davidson diagonalization with overlap

---- Real-time Memory Report at c_bands before calling an iterative solver
          2452 MiB given to the printing process from OS
         -1810 MiB allocation reported by mallinfo(arena+hblkhd)
         38948 MiB available memory on the node where the printing process lives
     GPU memory used/free/total (MiB): 1572 / 14708 / 16280
------------------
     ethr =  9.68E-11,  avg # of iterations =  4.0

     total cpu time spent up to now is     1033.2 secs

     WARNING: integrated charge=    57.99877160, expected=    58.00000000

     total energy              =    -530.22920956 Ry
     estimated scf accuracy    <       0.00005177 Ry

     total magnetization       =    -0.00 Bohr mag/cell
     absolute magnetization    =     0.03 Bohr mag/cell
[tb_dev] Currently allocated     3.67E+00 Mbytes, locked:    0 /  10
[tb_pin] Currently allocated     0.00E+00 Mbytes, locked:    0 /   0

     iteration # 78     ecut=    60.00 Ry     beta= 0.10
     Davidson diagonalization with overlap

---- Real-time Memory Report at c_bands before calling an iterative solver
          2452 MiB given to the printing process from OS
         -1810 MiB allocation reported by mallinfo(arena+hblkhd)
         38948 MiB available memory on the node where the printing process lives
     GPU memory used/free/total (MiB): 1572 / 14708 / 16280
------------------
     ethr =  9.68E-11,  avg # of iterations =  2.9

     total cpu time spent up to now is     1046.1 secs

     WARNING: integrated charge=    57.99809310, expected=    58.00000000

     total energy              =    -530.22920809 Ry
     estimated scf accuracy    <       0.00004990 Ry

     total magnetization       =    -0.00 Bohr mag/cell
     absolute magnetization    =     0.02 Bohr mag/cell
[tb_dev] Currently allocated     3.67E+00 Mbytes, locked:    0 /  10
[tb_pin] Currently allocated     0.00E+00 Mbytes, locked:    0 /   0

     iteration # 79     ecut=    60.00 Ry     beta= 0.10
     Davidson diagonalization with overlap

---- Real-time Memory Report at c_bands before calling an iterative solver
          2452 MiB given to the printing process from OS
         -1810 MiB allocation reported by mallinfo(arena+hblkhd)
         38947 MiB available memory on the node where the printing process lives
     GPU memory used/free/total (MiB): 1572 / 14708 / 16280
------------------
     ethr =  9.68E-11,  avg # of iterations =  4.7
     Minimization algorithm failed to find Fermi energy: reverting to bisection
     Possible cause: smearing is larger than the electronic band-gap.

     total cpu time spent up to now is     1062.5 secs

     WARNING: integrated charge=    57.99805409, expected=    58.00000000

     total energy              =    -530.23129314 Ry
     estimated scf accuracy    <       0.00000141 Ry

     total magnetization       =     0.03 Bohr mag/cell
     absolute magnetization    =     0.05 Bohr mag/cell
[tb_dev] Currently allocated     3.67E+00 Mbytes, locked:    0 /  10
[tb_pin] Currently allocated     0.00E+00 Mbytes, locked:    0 /   0

     iteration # 80     ecut=    60.00 Ry     beta= 0.10
     Davidson diagonalization with overlap

---- Real-time Memory Report at c_bands before calling an iterative solver
          2452 MiB given to the printing process from OS
         -1810 MiB allocation reported by mallinfo(arena+hblkhd)
         38948 MiB available memory on the node where the printing process lives
     GPU memory used/free/total (MiB): 1572 / 14708 / 16280
------------------
     ethr =  9.68E-11,  avg # of iterations =  1.3
     Minimization algorithm failed to find Fermi energy: reverting to bisection
     Possible cause: smearing is larger than the electronic band-gap.

     total cpu time spent up to now is     1072.6 secs

     WARNING: integrated charge=    57.99768379, expected=    58.00000000

     total energy              =    -530.23129284 Ry
     estimated scf accuracy    <       0.00000146 Ry

     total magnetization       =     0.03 Bohr mag/cell
     absolute magnetization    =     0.05 Bohr mag/cell

     End of self-consistent calculation

     convergence NOT achieved after  80 iterations: stopping

     Writing config to output data dir ./out/aiida.save/
 
     init_run     :     11.76s CPU      4.00s WALL (       1 calls)
     electrons    :   1154.30s CPU   1067.79s WALL (       1 calls)

     Called by init_run:
     wfcinit      :      0.76s CPU      0.79s WALL (       1 calls)
                                        0.79s GPU  (       1 calls)
     potinit      :      0.31s CPU      0.16s WALL (       1 calls)
     hinit0       :      8.13s CPU      2.26s WALL (       1 calls)

     Called by electrons:
     c_bands      :    933.30s CPU    914.80s WALL (      81 calls)
     sum_band     :    127.54s CPU    144.18s WALL (      81 calls)
     v_of_rho     :     21.63s CPU      1.99s WALL (      81 calls)
     v_h          :      3.19s CPU      0.29s WALL (      81 calls)
     v_xc         :     18.43s CPU      1.70s WALL (      81 calls)
     newd         :     32.99s CPU      3.31s WALL (      81 calls)
                                        3.30s GPU  (      81 calls)
     mix_rho      :     28.68s CPU      2.78s WALL (      81 calls)

     Called by c_bands:
     init_us_2    :     66.98s CPU     70.72s WALL (   63504 calls)
     init_us_2:gp :     65.86s CPU     69.65s WALL (   63504 calls)
     cegterg      :    801.68s CPU    773.06s WALL (   31752 calls)

     Called by sum_band:
     sum_band:wei :      2.01s CPU      2.02s WALL (      81 calls)
                                        2.02s GPU  (      81 calls)
     sum_band:loo :    121.53s CPU    138.04s WALL (      81 calls)
                                      138.04s GPU  (      81 calls)
     sum_band:buf :     31.70s CPU     35.53s WALL (   31752 calls)
                                       35.34s GPU  (   31752 calls)
     sum_band:ini :     29.37s CPU     34.04s WALL (   31752 calls)
                                       33.87s GPU  (   31752 calls)
     sum_band:cal :      0.81s CPU      5.70s WALL (   31752 calls)
                                        5.19s GPU  (   31752 calls)
     sum_band:bec :      6.68s CPU      8.07s WALL (   31752 calls)
                                        7.86s GPU  (   31752 calls)
     addusdens    :      1.99s CPU      2.10s WALL (      81 calls)
                                        2.10s GPU  (      81 calls)
     addusd:skk   :      0.03s CPU      0.03s WALL (     243 calls)
                                        0.03s GPU  (     243 calls)

     Called by *egterg:
     cdiaghg      :    315.55s CPU    317.26s WALL (  125108 calls)
                                      316.43s GPU  (  125108 calls)
     cegterg:over :     21.84s CPU     20.58s WALL (   94140 calls)
     cegterg:upda :     31.18s CPU     30.14s WALL (   94140 calls)
     cegterg:last :     10.97s CPU     10.50s WALL (   54989 calls)
     h_psi        :    347.42s CPU    326.75s WALL (  125892 calls)
                                      325.78s GPU  (  125892 calls)
     s_psi        :     15.17s CPU     27.95s WALL (  125892 calls)
                                       26.25s GPU  (  125892 calls)
     g_psi        :      0.72s CPU      2.74s WALL (   94140 calls)
                                        2.12s GPU  (   94140 calls)

     Called by h_psi:
     h_psi:calbec :      4.46s CPU     20.38s WALL (  125892 calls)
                                       19.58s GPU  (  125892 calls)
     vloc_psi     :    278.79s CPU    263.25s WALL (  125892 calls)
                                      262.44s GPU  (  125892 calls)
     add_vuspsi   :     25.78s CPU     34.41s WALL (  125892 calls)
                                       33.62s GPU  (  125892 calls)

     General routines
     calbec       :      3.81s CPU      3.69s WALL (  157644 calls)
     fft          :      3.28s CPU      0.47s WALL (    2025 calls)
                                        0.33s GPU  (    1863 calls)
     ffts         :      0.47s CPU      0.07s WALL (     324 calls)
                                        0.01s GPU  (     162 calls)
     fftw         :     12.53s CPU    192.22s WALL (  601844 calls)
                                      188.88s GPU  (  601844 calls)
     interpolate  :      4.22s CPU      0.38s WALL (     162 calls)
     davcio       :      1.11s CPU      1.87s WALL (     802 calls)
 
     Parallel routines
 
     PWSCF        :  19m29.53s CPU  17m54.05s WALL

 
   This run was terminated on:  20:27:13  23Oct2023            

=------------------------------------------------------------------------------=
   JOB DONE.
=------------------------------------------------------------------------------=
