
     Program PWSCF v.7.2 starts on 28Nov2023 at 22:13:12 
        Git branch: develop
        Last git commit: 9055681be6fc8200e6fffe76ed5fda34c2696339
        Last git commit date: Wed Nov 8 16:29:39 2023 +0000
        Last git commit subject: Merge branch 'calbec_fix' into 'develop'

     This program is part of the open-source Quantum ESPRESSO suite
     for quantum simulation of materials; please cite
         "P. Giannozzi et al., J. Phys.:Condens. Matter 21 395502 (2009);
         "P. Giannozzi et al., J. Phys.:Condens. Matter 29 465901 (2017);
         "P. Giannozzi et al., J. Chem. Phys. 152 154105 (2020);
          URL http://www.quantum-espresso.org", 
     in publications or presentations arising from this work. More details at
     http://www.quantum-espresso.org/quote

     Parallel version (MPI), running on    56 processors

     MPI processes distributed on     1 nodes
     491336 MiB available memory on the printing compute node when the environment starts

     Reading input from aiida.in

     Current dimensions of program PWSCF are:
     Max number of different atomic species (ntypx) = 10
     Max number of k-points (npk) =  40000
     Max angular momentum in pseudopotentials (lmaxx) =  4
     Message from routine setup:
     using ibrav=0 with symmetry is DISCOURAGED, use correct ibrav instead

     K-points division:     npool     =       8
     R & G space division:  proc/nbgrp/npool/nimage =       7
     Subspace diagonalization in iterative solution of the eigenvalue problem:
     a serial algorithm will be used


     Parallelization info
     --------------------
     sticks:   dense  smooth     PW     G-vecs:    dense   smooth      PW
     Min         494     165     49                19352     3745     610
     Max         495     166     50                19358     3749     612
     Sum        3463    1159    349               135491    26229    4279

     Using Slab Decomposition



     bravais-lattice index     =            0
     lattice parameter (alat)  =       8.0442  a.u.
     unit-cell volume          =     368.0663 (a.u.)^3
     number of atoms/cell      =            4
     number of atomic types    =            3
     number of electrons       =        62.00
     number of Kohn-Sham states=           37
     kinetic-energy cutoff     =      65.0000  Ry
     charge density cutoff     =     780.0000  Ry
     scf convergence threshold =      8.0E-10
     mixing beta               =       0.4000
     number of iterations used =            8  plain     mixing
     Exchange-correlation= SLA  PW   PSX  PSC
                           (   1   4  10   8   0   0   0)

     celldm(1)=   8.044154  celldm(2)=   0.000000  celldm(3)=   0.000000
     celldm(4)=   0.000000  celldm(5)=   0.000000  celldm(6)=   0.000000

     crystal axes: (cart. coord. in units of alat)
               a(1) = (   0.000000   0.707107   0.707107 )  
               a(2) = (   0.707107   0.000000   0.707107 )  
               a(3) = (   0.707107   0.707107   0.000000 )  

     reciprocal axes: (cart. coord. in units 2 pi/alat)
               b(1) = ( -0.707107  0.707107  0.707107 )  
               b(2) = (  0.707107 -0.707107  0.707107 )  
               b(3) = (  0.707107  0.707107 -0.707107 )  


     PseudoPot. # 1 for Mn read from file:
     ./pseudo/mn_pbesol_v1.5.uspp.F.UPF
     MD5 check sum: 0716d5f563e6e95a34f9080f4c78c109
     Pseudo is Ultrasoft + core correction, Zval = 15.0
     Generated by new atomic code, or converted to UPF format
     Using radial grid of  859 points,  6 beta functions with: 
                l(1) =   0
                l(2) =   0
                l(3) =   1
                l(4) =   1
                l(5) =   2
                l(6) =   2
     Q(r) pseudized with  8 coefficients,  rinner =    0.950   0.950   0.950
                                                       0.950   0.950

     PseudoPot. # 2 for Ni read from file:
     ./pseudo/ni_pbesol_v1.4.uspp.F.UPF
     MD5 check sum: de937c0c8ae4b350e69c02b76d8a83cb
     Pseudo is Ultrasoft + core correction, Zval = 18.0
     Generated by new atomic code, or converted to UPF format
     Using radial grid of  865 points,  6 beta functions with: 
                l(1) =   0
                l(2) =   0
                l(3) =   1
                l(4) =   1
                l(5) =   2
                l(6) =   2
     Q(r) pseudized with 10 coefficients,  rinner =    0.980   0.980   0.980
                                                       0.980   0.980

     PseudoPot. # 3 for Sn read from file:
     ./pseudo/sn_pbesol_v1.4.uspp.F.UPF
     MD5 check sum: 463fec1d5456f1e96ec1bfcad4b7b038
     Pseudo is Ultrasoft + core correction, Zval = 14.0
     Generated by new atomic code, or converted to UPF format
     Using radial grid of  891 points,  6 beta functions with: 
                l(1) =   0
                l(2) =   0
                l(3) =   1
                l(4) =   1
                l(5) =   2
                l(6) =   2
     Q(r) pseudized with  8 coefficients,  rinner =    1.350   1.350   1.350
                                                       1.350   1.350

     atomic species   valence    mass     pseudopotential
     Mn               15.00    54.93805     Mn( 1.00)
     Ni               18.00    58.69340     Ni( 1.00)
     Sn               14.00   118.71000     Sn( 1.00)

     Starting magnetic structure 
     atomic species   magnetization
     Mn              0.333
     Ni              0.278
     Sn              0.100

     24 Sym. Ops. (no inversion) found


                                    s                        frac. trans.

      isym =  1     identity                                     

 cryst.   s( 1) = (     1          0          0      )
                  (     0          1          0      )
                  (     0          0          1      )

 cart.    s( 1) = (  1.0000000 -0.0000000  0.0000000 )
                  ( -0.0000000  1.0000000  0.0000000 )
                  ( -0.0000000  0.0000000  1.0000000 )


      isym =  2     180 deg rotation - cart. axis [0,0,1]        

 cryst.   s( 2) = (     0          1         -1      )
                  (     1          0         -1      )
                  (     0          0         -1      )

 cart.    s( 2) = ( -1.0000000  0.0000000  0.0000000 )
                  (  0.0000000 -1.0000000  0.0000000 )
                  (  0.0000000 -0.0000000  1.0000000 )


      isym =  3     180 deg rotation - cart. axis [0,1,0]        

 cryst.   s( 3) = (     0         -1          1      )
                  (     0         -1          0      )
                  (     1         -1          0      )

 cart.    s( 3) = ( -1.0000000 -0.0000000 -0.0000000 )
                  (  0.0000000  1.0000000 -0.0000000 )
                  (  0.0000000  0.0000000 -1.0000000 )


      isym =  4     180 deg rotation - cart. axis [1,0,0]        

 cryst.   s( 4) = (    -1          0          0      )
                  (    -1          0          1      )
                  (    -1          1          0      )

 cart.    s( 4) = (  1.0000000  0.0000000 -0.0000000 )
                  ( -0.0000000 -1.0000000 -0.0000000 )
                  ( -0.0000000 -0.0000000 -1.0000000 )


      isym =  5     120 deg rotation - cart. axis [-1,-1,-1]     

 cryst.   s( 5) = (     0          0          1      )
                  (     1          0          0      )
                  (     0          1          0      )

 cart.    s( 5) = (  0.0000000  1.0000000 -0.0000000 )
                  (  0.0000000 -0.0000000  1.0000000 )
                  (  1.0000000 -0.0000000  0.0000000 )


      isym =  6     120 deg rotation - cart. axis [-1,1,1]       

 cryst.   s( 6) = (     1         -1          0      )
                  (     0         -1          1      )
                  (     0         -1          0      )

 cart.    s( 6) = ( -0.0000000 -1.0000000 -0.0000000 )
                  ( -0.0000000  0.0000000  1.0000000 )
                  ( -1.0000000  0.0000000  0.0000000 )


      isym =  7     120 deg rotation - cart. axis [1,1,-1]       

 cryst.   s( 7) = (    -1          1          0      )
                  (    -1          0          0      )
                  (    -1          0          1      )

 cart.    s( 7) = ( -0.0000000  1.0000000  0.0000000 )
                  ( -0.0000000 -0.0000000 -1.0000000 )
                  ( -1.0000000 -0.0000000 -0.0000000 )


      isym =  8     120 deg rotation - cart. axis [1,-1,1]       

 cryst.   s( 8) = (     0          0         -1      )
                  (     0          1         -1      )
                  (     1          0         -1      )

 cart.    s( 8) = (  0.0000000 -1.0000000  0.0000000 )
                  (  0.0000000  0.0000000 -1.0000000 )
                  (  1.0000000  0.0000000 -0.0000000 )


      isym =  9     120 deg rotation - cart. axis [1,1,1]        

 cryst.   s( 9) = (     0          1          0      )
                  (     0          0          1      )
                  (     1          0          0      )

 cart.    s( 9) = ( -0.0000000  0.0000000  1.0000000 )
                  (  1.0000000  0.0000000 -0.0000000 )
                  (  0.0000000  1.0000000 -0.0000000 )


      isym = 10     120 deg rotation - cart. axis [-1,1,-1]      

 cryst.   s(10) = (    -1          0          1      )
                  (    -1          1          0      )
                  (    -1          0          0      )

 cart.    s(10) = (  0.0000000 -0.0000000  1.0000000 )
                  ( -1.0000000 -0.0000000 -0.0000000 )
                  ( -0.0000000 -1.0000000 -0.0000000 )


      isym = 11     120 deg rotation - cart. axis [1,-1,-1]      

 cryst.   s(11) = (     1          0         -1      )
                  (     0          0         -1      )
                  (     0          1         -1      )

 cart.    s(11) = (  0.0000000  0.0000000 -1.0000000 )
                  ( -1.0000000  0.0000000  0.0000000 )
                  ( -0.0000000  1.0000000  0.0000000 )


      isym = 12     120 deg rotation - cart. axis [-1,-1,1]      

 cryst.   s(12) = (     0         -1          0      )
                  (     1         -1          0      )
                  (     0         -1          1      )

 cart.    s(12) = ( -0.0000000 -0.0000000 -1.0000000 )
                  (  1.0000000 -0.0000000  0.0000000 )
                  (  0.0000000 -1.0000000  0.0000000 )


      isym = 13     inv. 180 deg rotation - cart. axis [1,1,0]   

 cryst.   s(13) = (     1          0         -1      )
                  (     0          1         -1      )
                  (     0          0         -1      )

 cart.    s(13) = (  0.0000000 -1.0000000  0.0000000 )
                  ( -1.0000000  0.0000000  0.0000000 )
                  ( -0.0000000  0.0000000  1.0000000 )


      isym = 14     inv. 180 deg rotation - cart. axis [1,-1,0]  

 cryst.   s(14) = (     0          1          0      )
                  (     1          0          0      )
                  (     0          0          1      )

 cart.    s(14) = ( -0.0000000  1.0000000  0.0000000 )
                  (  1.0000000 -0.0000000  0.0000000 )
                  (  0.0000000 -0.0000000  1.0000000 )


      isym = 15     inv.  90 deg rotation - cart. axis [0,0,-1]  

 cryst.   s(15) = (     0         -1          0      )
                  (     0         -1          1      )
                  (     1         -1          0      )

 cart.    s(15) = ( -0.0000000 -1.0000000 -0.0000000 )
                  (  1.0000000  0.0000000 -0.0000000 )
                  (  0.0000000  0.0000000 -1.0000000 )


      isym = 16     inv.  90 deg rotation - cart. axis [0,0,1]   

 cryst.   s(16) = (    -1          0          1      )
                  (    -1          0          0      )
                  (    -1          1          0      )

 cart.    s(16) = (  0.0000000  1.0000000 -0.0000000 )
                  ( -1.0000000 -0.0000000 -0.0000000 )
                  ( -0.0000000 -0.0000000 -1.0000000 )


      isym = 17     inv. 180 deg rotation - cart. axis [1,0,1]   

 cryst.   s(17) = (     1         -1          0      )
                  (     0         -1          0      )
                  (     0         -1          1      )

 cart.    s(17) = ( -0.0000000 -0.0000000 -1.0000000 )
                  ( -0.0000000  1.0000000  0.0000000 )
                  ( -1.0000000  0.0000000  0.0000000 )


      isym = 18     inv. 180 deg rotation - cart. axis [-1,0,1]  

 cryst.   s(18) = (     0          0          1      )
                  (     0          1          0      )
                  (     1          0          0      )

 cart.    s(18) = (  0.0000000 -0.0000000  1.0000000 )
                  (  0.0000000  1.0000000 -0.0000000 )
                  (  1.0000000  0.0000000 -0.0000000 )


      isym = 19     inv.  90 deg rotation - cart. axis [0,1,0]   

 cryst.   s(19) = (     0          0         -1      )
                  (     1          0         -1      )
                  (     0          1         -1      )

 cart.    s(19) = (  0.0000000  0.0000000 -1.0000000 )
                  (  0.0000000 -1.0000000  0.0000000 )
                  (  1.0000000 -0.0000000  0.0000000 )


      isym = 20     inv.  90 deg rotation - cart. axis [0,-1,0]  

 cryst.   s(20) = (    -1          1          0      )
                  (    -1          0          1      )
                  (    -1          0          0      )

 cart.    s(20) = ( -0.0000000  0.0000000  1.0000000 )
                  ( -0.0000000 -1.0000000 -0.0000000 )
                  ( -1.0000000 -0.0000000 -0.0000000 )


      isym = 21     inv. 180 deg rotation - cart. axis [0,1,1]   

 cryst.   s(21) = (    -1          0          0      )
                  (    -1          1          0      )
                  (    -1          0          1      )

 cart.    s(21) = (  1.0000000 -0.0000000  0.0000000 )
                  ( -0.0000000 -0.0000000 -1.0000000 )
                  ( -0.0000000 -1.0000000 -0.0000000 )


      isym = 22     inv. 180 deg rotation - cart. axis [0,1,-1]  

 cryst.   s(22) = (     1          0          0      )
                  (     0          0          1      )
                  (     0          1          0      )

 cart.    s(22) = (  1.0000000  0.0000000 -0.0000000 )
                  ( -0.0000000  0.0000000  1.0000000 )
                  ( -0.0000000  1.0000000  0.0000000 )


      isym = 23     inv.  90 deg rotation - cart. axis [-1,0,0]  

 cryst.   s(23) = (     0          1         -1      )
                  (     0          0         -1      )
                  (     1          0         -1      )

 cart.    s(23) = ( -1.0000000  0.0000000  0.0000000 )
                  (  0.0000000  0.0000000 -1.0000000 )
                  (  0.0000000  1.0000000 -0.0000000 )


      isym = 24     inv.  90 deg rotation - cart. axis [1,0,0]   

 cryst.   s(24) = (     0         -1          1      )
                  (     1         -1          0      )
                  (     0         -1          0      )

 cart.    s(24) = ( -1.0000000 -0.0000000 -0.0000000 )
                  (  0.0000000 -0.0000000  1.0000000 )
                  (  0.0000000 -1.0000000  0.0000000 )


   Cartesian axes

     site n.     atom                  positions (alat units)
         1        Mn     tau(   1) = (   0.3535534   0.3535534   1.0606602  )
         2        Mn     tau(   2) = (   0.0000000   0.0000000   0.0000000  )
         3        Ni     tau(   3) = (   0.7071068   0.0000000   0.0000000  )
         4        Sn     tau(   4) = (   0.3535534   0.3535534   0.3535534  )

   Crystallographic axes

     site n.     atom                  positions (cryst. coord.)
         1        Mn     tau(   1) = (  0.7500000  0.7500000 -0.2500000  )
         2        Mn     tau(   2) = (  0.0000000  0.0000000  0.0000000  )
         3        Ni     tau(   3) = ( -0.5000000  0.5000000  0.5000000  )
         4        Sn     tau(   4) = (  0.2500000  0.2500000  0.2500000  )

     number of k points=    84  Marzari-Vanderbilt smearing, width (Ry)=  0.0200
                       cart. coord. in units 2pi/alat
        k(    1) = (   0.0000000   0.0000000   0.0000000), wk =   0.0004552
        k(    2) = (   0.0543928   0.0543928  -0.0543928), wk =   0.0036413
        k(    3) = (   0.1087857   0.1087857  -0.1087857), wk =   0.0036413
        k(    4) = (   0.1631785   0.1631785  -0.1631785), wk =   0.0036413
        k(    5) = (   0.2175713   0.2175713  -0.2175713), wk =   0.0036413
        k(    6) = (   0.2719641   0.2719641  -0.2719641), wk =   0.0036413
        k(    7) = (   0.3263570   0.3263570  -0.3263570), wk =   0.0036413
        k(    8) = (   0.1087857  -0.0000000   0.0000000), wk =   0.0027310
        k(    9) = (   0.1631785   0.0543928  -0.0543928), wk =   0.0109240
        k(   10) = (   0.2175713   0.1087857  -0.1087857), wk =   0.0109240
        k(   11) = (   0.2719641   0.1631785  -0.1631785), wk =   0.0109240
        k(   12) = (   0.3263570   0.2175713  -0.2175713), wk =   0.0109240
        k(   13) = (   0.3807498   0.2719641  -0.2719641), wk =   0.0109240
        k(   14) = (  -0.2719641  -0.3807498   0.3807498), wk =   0.0109240
        k(   15) = (  -0.2175713  -0.3263570   0.3263570), wk =   0.0109240
        k(   16) = (  -0.1631785  -0.2719641   0.2719641), wk =   0.0109240
        k(   17) = (  -0.1087857  -0.2175713   0.2175713), wk =   0.0109240
        k(   18) = (  -0.0543928  -0.1631785   0.1631785), wk =   0.0109240
        k(   19) = (   0.0000000  -0.1087857   0.1087857), wk =   0.0054620
        k(   20) = (   0.2175713  -0.0000000   0.0000000), wk =   0.0027310
        k(   21) = (   0.2719641   0.0543928  -0.0543928), wk =   0.0109240
        k(   22) = (   0.3263570   0.1087857  -0.1087857), wk =   0.0109240
        k(   23) = (   0.3807498   0.1631785  -0.1631785), wk =   0.0109240
        k(   24) = (   0.4351426   0.2175713  -0.2175713), wk =   0.0109240
        k(   25) = (  -0.2175713  -0.4351426   0.4351426), wk =   0.0109240
        k(   26) = (  -0.1631785  -0.3807498   0.3807498), wk =   0.0109240
        k(   27) = (  -0.1087857  -0.3263570   0.3263570), wk =   0.0109240
        k(   28) = (  -0.0543928  -0.2719641   0.2719641), wk =   0.0109240
        k(   29) = (   0.0000000  -0.2175713   0.2175713), wk =   0.0054620
        k(   30) = (   0.3263570  -0.0000000   0.0000000), wk =   0.0027310
        k(   31) = (   0.3807498   0.0543928  -0.0543928), wk =   0.0109240
        k(   32) = (   0.4351426   0.1087857  -0.1087857), wk =   0.0109240
        k(   33) = (   0.4895355   0.1631785  -0.1631785), wk =   0.0109240
        k(   34) = (  -0.1631785  -0.4895355   0.4895355), wk =   0.0109240
        k(   35) = (  -0.1087857  -0.4351426   0.4351426), wk =   0.0109240
        k(   36) = (  -0.0543928  -0.3807498   0.3807498), wk =   0.0109240
        k(   37) = (   0.0000000  -0.3263570   0.3263570), wk =   0.0054620
        k(   38) = (   0.4351426  -0.0000000   0.0000000), wk =   0.0027310
        k(   39) = (   0.4895355   0.0543928  -0.0543928), wk =   0.0109240
        k(   40) = (   0.5439283   0.1087857  -0.1087857), wk =   0.0109240
        k(   41) = (  -0.1087857  -0.5439283   0.5439283), wk =   0.0109240
        k(   42) = (  -0.0543928  -0.4895355   0.4895355), wk =   0.0109240
        k(   43) = (   0.0000000  -0.4351426   0.4351426), wk =   0.0054620
        k(   44) = (   0.5439283  -0.0000000   0.0000000), wk =   0.0027310
        k(   45) = (   0.5983211   0.0543928  -0.0543928), wk =   0.0109240
        k(   46) = (  -0.0543928  -0.5983211   0.5983211), wk =   0.0109240
        k(   47) = (   0.0000000  -0.5439283   0.5439283), wk =   0.0054620
        k(   48) = (   0.6527140  -0.0000000   0.0000000), wk =   0.0027310
        k(   49) = (   0.0000000  -0.6527140   0.6527140), wk =   0.0054620
        k(   50) = (   0.2175713   0.1087857   0.0000000), wk =   0.0109240
        k(   51) = (   0.2719641   0.1631785  -0.0543928), wk =   0.0218480
        k(   52) = (   0.3263570   0.2175713  -0.1087857), wk =   0.0218480
        k(   53) = (   0.3807498   0.2719641  -0.1631785), wk =   0.0218480
        k(   54) = (  -0.2719641  -0.3807498   0.4895355), wk =   0.0218480
        k(   55) = (   0.3263570   0.1087857   0.0000000), wk =   0.0109240
        k(   56) = (   0.3807498   0.1631785  -0.0543928), wk =   0.0218480
        k(   57) = (   0.4351426   0.2175713  -0.1087857), wk =   0.0218480
        k(   58) = (  -0.2175713  -0.4351426   0.5439283), wk =   0.0218480
        k(   59) = (  -0.1631785  -0.3807498   0.4895355), wk =   0.0218480
        k(   60) = (  -0.1087857  -0.3263570   0.4351426), wk =   0.0218480
        k(   61) = (  -0.0543928  -0.2719641   0.3807498), wk =   0.0218480
        k(   62) = (   0.0000000  -0.2175713   0.3263570), wk =   0.0109240
        k(   63) = (   0.4351426   0.1087857   0.0000000), wk =   0.0109240
        k(   64) = (   0.4895355   0.1631785  -0.0543928), wk =   0.0218480
        k(   65) = (  -0.1631785  -0.4895355   0.5983211), wk =   0.0218480
        k(   66) = (  -0.1087857  -0.4351426   0.5439283), wk =   0.0218480
        k(   67) = (  -0.0543928  -0.3807498   0.4895355), wk =   0.0218480
        k(   68) = (   0.0000000  -0.3263570   0.4351426), wk =   0.0109240
        k(   69) = (   0.5439283   0.1087857   0.0000000), wk =   0.0109240
        k(   70) = (  -0.1087857  -0.5439283   0.6527140), wk =   0.0218480
        k(   71) = (  -0.0543928  -0.4895355   0.5983211), wk =   0.0218480
        k(   72) = (   0.0000000  -0.4351426   0.5439283), wk =   0.0109240
        k(   73) = (  -0.0543928  -0.5983211   0.7071068), wk =   0.0109240
        k(   74) = (   0.0000000  -0.5439283   0.6527140), wk =   0.0109240
        k(   75) = (   0.4351426   0.2175713   0.0000000), wk =   0.0109240
        k(   76) = (  -0.2175713  -0.4351426   0.6527140), wk =   0.0218480
        k(   77) = (  -0.1631785  -0.3807498   0.5983211), wk =   0.0218480
        k(   78) = (  -0.1631785  -0.4895355   0.7071068), wk =   0.0109240
        k(   79) = (  -0.1087857  -0.4351426   0.6527140), wk =   0.0218480
        k(   80) = (  -0.0543928  -0.3807498   0.5983211), wk =   0.0218480
        k(   81) = (   0.0000000  -0.3263570   0.5439283), wk =   0.0109240
        k(   82) = (  -0.0543928  -0.4895355   0.7071068), wk =   0.0109240
        k(   83) = (   0.0000000  -0.4351426   0.6527140), wk =   0.0109240
        k(   84) = (  -0.0543928  -0.3807498   0.7071068), wk =   0.0109240

                       cryst. coord.
        k(    1) = (   0.0000000   0.0000000   0.0000000), wk =   0.0004552
        k(    2) = (  -0.0000000  -0.0000000   0.0769231), wk =   0.0036413
        k(    3) = (  -0.0000000  -0.0000000   0.1538462), wk =   0.0036413
        k(    4) = (  -0.0000000  -0.0000000   0.2307692), wk =   0.0036413
        k(    5) = (  -0.0000000  -0.0000000   0.3076923), wk =   0.0036413
        k(    6) = (   0.0000000   0.0000000   0.3846154), wk =   0.0036413
        k(    7) = (  -0.0000000  -0.0000000   0.4615385), wk =   0.0036413
        k(    8) = (  -0.0000000   0.0769231   0.0769231), wk =   0.0027310
        k(    9) = (  -0.0000000   0.0769231   0.1538462), wk =   0.0109240
        k(   10) = (  -0.0000000   0.0769231   0.2307692), wk =   0.0109240
        k(   11) = (  -0.0000000   0.0769231   0.3076923), wk =   0.0109240
        k(   12) = (  -0.0000000   0.0769231   0.3846154), wk =   0.0109240
        k(   13) = (   0.0000000   0.0769231   0.4615385), wk =   0.0109240
        k(   14) = (   0.0000000   0.0769231  -0.4615385), wk =   0.0109240
        k(   15) = (   0.0000000   0.0769231  -0.3846154), wk =   0.0109240
        k(   16) = (  -0.0000000   0.0769231  -0.3076923), wk =   0.0109240
        k(   17) = (  -0.0000000   0.0769231  -0.2307692), wk =   0.0109240
        k(   18) = (   0.0000000   0.0769231  -0.1538462), wk =   0.0109240
        k(   19) = (  -0.0000000   0.0769231  -0.0769231), wk =   0.0054620
        k(   20) = (  -0.0000000   0.1538462   0.1538462), wk =   0.0027310
        k(   21) = (  -0.0000000   0.1538462   0.2307692), wk =   0.0109240
        k(   22) = (  -0.0000000   0.1538462   0.3076923), wk =   0.0109240
        k(   23) = (  -0.0000000   0.1538462   0.3846154), wk =   0.0109240
        k(   24) = (  -0.0000000   0.1538462   0.4615385), wk =   0.0109240
        k(   25) = (   0.0000000   0.1538462  -0.4615385), wk =   0.0109240
        k(   26) = (   0.0000000   0.1538462  -0.3846154), wk =   0.0109240
        k(   27) = (   0.0000000   0.1538462  -0.3076923), wk =   0.0109240
        k(   28) = (   0.0000000   0.1538462  -0.2307692), wk =   0.0109240
        k(   29) = (   0.0000000   0.1538462  -0.1538462), wk =   0.0054620
        k(   30) = (   0.0000000   0.2307692   0.2307692), wk =   0.0027310
        k(   31) = (   0.0000000   0.2307692   0.3076923), wk =   0.0109240
        k(   32) = (  -0.0000000   0.2307692   0.3846154), wk =   0.0109240
        k(   33) = (  -0.0000000   0.2307692   0.4615385), wk =   0.0109240
        k(   34) = (  -0.0000000   0.2307692  -0.4615385), wk =   0.0109240
        k(   35) = (   0.0000000   0.2307692  -0.3846154), wk =   0.0109240
        k(   36) = (   0.0000000   0.2307692  -0.3076923), wk =   0.0109240
        k(   37) = (   0.0000000   0.2307692  -0.2307692), wk =   0.0054620
        k(   38) = (  -0.0000000   0.3076923   0.3076923), wk =   0.0027310
        k(   39) = (  -0.0000000   0.3076923   0.3846154), wk =   0.0109240
        k(   40) = (  -0.0000000   0.3076923   0.4615385), wk =   0.0109240
        k(   41) = (  -0.0000000   0.3076923  -0.4615385), wk =   0.0109240
        k(   42) = (   0.0000000   0.3076923  -0.3846154), wk =   0.0109240
        k(   43) = (   0.0000000   0.3076923  -0.3076923), wk =   0.0054620
        k(   44) = (  -0.0000000   0.3846154   0.3846154), wk =   0.0027310
        k(   45) = (  -0.0000000   0.3846154   0.4615385), wk =   0.0109240
        k(   46) = (  -0.0000000   0.3846154  -0.4615385), wk =   0.0109240
        k(   47) = (  -0.0000000   0.3846154  -0.3846154), wk =   0.0054620
        k(   48) = (   0.0000000   0.4615385   0.4615385), wk =   0.0027310
        k(   49) = (   0.0000000   0.4615385  -0.4615385), wk =   0.0054620
        k(   50) = (   0.0769231   0.1538462   0.2307692), wk =   0.0109240
        k(   51) = (   0.0769231   0.1538462   0.3076923), wk =   0.0218480
        k(   52) = (   0.0769231   0.1538462   0.3846154), wk =   0.0218480
        k(   53) = (   0.0769231   0.1538462   0.4615385), wk =   0.0218480
        k(   54) = (   0.0769231   0.1538462  -0.4615385), wk =   0.0218480
        k(   55) = (   0.0769231   0.2307692   0.3076923), wk =   0.0109240
        k(   56) = (   0.0769231   0.2307692   0.3846154), wk =   0.0218480
        k(   57) = (   0.0769231   0.2307692   0.4615385), wk =   0.0218480
        k(   58) = (   0.0769231   0.2307692  -0.4615385), wk =   0.0218480
        k(   59) = (   0.0769231   0.2307692  -0.3846154), wk =   0.0218480
        k(   60) = (   0.0769231   0.2307692  -0.3076923), wk =   0.0218480
        k(   61) = (   0.0769231   0.2307692  -0.2307692), wk =   0.0218480
        k(   62) = (   0.0769231   0.2307692  -0.1538462), wk =   0.0109240
        k(   63) = (   0.0769231   0.3076923   0.3846154), wk =   0.0109240
        k(   64) = (   0.0769231   0.3076923   0.4615385), wk =   0.0218480
        k(   65) = (   0.0769231   0.3076923  -0.4615385), wk =   0.0218480
        k(   66) = (   0.0769231   0.3076923  -0.3846154), wk =   0.0218480
        k(   67) = (   0.0769231   0.3076923  -0.3076923), wk =   0.0218480
        k(   68) = (   0.0769231   0.3076923  -0.2307692), wk =   0.0109240
        k(   69) = (   0.0769231   0.3846154   0.4615385), wk =   0.0109240
        k(   70) = (   0.0769231   0.3846154  -0.4615385), wk =   0.0218480
        k(   71) = (   0.0769231   0.3846154  -0.3846154), wk =   0.0218480
        k(   72) = (   0.0769231   0.3846154  -0.3076923), wk =   0.0109240
        k(   73) = (   0.0769231   0.4615385  -0.4615385), wk =   0.0109240
        k(   74) = (   0.0769231   0.4615385  -0.3846154), wk =   0.0109240
        k(   75) = (   0.1538462   0.3076923   0.4615385), wk =   0.0109240
        k(   76) = (   0.1538462   0.3076923  -0.4615385), wk =   0.0218480
        k(   77) = (   0.1538462   0.3076923  -0.3846154), wk =   0.0218480
        k(   78) = (   0.1538462   0.3846154  -0.4615385), wk =   0.0109240
        k(   79) = (   0.1538462   0.3846154  -0.3846154), wk =   0.0218480
        k(   80) = (   0.1538462   0.3846154  -0.3076923), wk =   0.0218480
        k(   81) = (   0.1538462   0.3846154  -0.2307692), wk =   0.0109240
        k(   82) = (   0.1538462   0.4615385  -0.3846154), wk =   0.0109240
        k(   83) = (   0.1538462   0.4615385  -0.3076923), wk =   0.0109240
        k(   84) = (   0.2307692   0.4615385  -0.3076923), wk =   0.0109240

     Dense  grid:   135491 G-vectors     FFT dimensions: (  72,  72,  72)

     Smooth grid:    26229 G-vectors     FFT dimensions: (  45,  45,  45)

     Dynamical RAM for                 wfc:       0.26 MB

     Dynamical RAM for     wfc (w. buffer):       5.78 MB

     Dynamical RAM for           str. fact:       0.89 MB

     Dynamical RAM for           local pot:       0.00 MB

     Dynamical RAM for          nlocal pot:       0.51 MB

     Dynamical RAM for                qrad:       6.72 MB

     Dynamical RAM for          rho,v,vnew:       4.38 MB

     Dynamical RAM for               rhoin:       1.46 MB

     Dynamical RAM for            rho*nmix:       9.45 MB

     Dynamical RAM for           G-vectors:       1.14 MB

     Dynamical RAM for          h,s,v(r/c):       0.25 MB

     Dynamical RAM for          <psi|beta>:       0.04 MB

     Dynamical RAM for                 psi:       0.53 MB

     Dynamical RAM for                hpsi:       0.53 MB

     Dynamical RAM for                spsi:       0.53 MB

     Dynamical RAM for      wfcinit/wfcrot:       0.73 MB

     Dynamical RAM for           addusdens:       7.49 MB

     Dynamical RAM for          addusforce:       7.32 MB

     Dynamical RAM for         addusstress:       7.73 MB

     Estimated static dynamical RAM per process >      24.66 MB

     Estimated max dynamical RAM per process >      41.85 MB

     Estimated total dynamical RAM >       1.84 GB

     Check: negative core charge=   -0.000011
     Generating pointlists ...
     new r_m :   0.2526 (alat units)  2.0320 (a.u.) for type    1
     new r_m :   0.2526 (alat units)  2.0320 (a.u.) for type    2
     new r_m :   0.2526 (alat units)  2.0320 (a.u.) for type    3

     Initial potential from superposition of free atoms

     starting charge      57.9998, renormalised to      62.0000
     Starting wfcs are   48 randomized atomic wfcs

     total cpu time spent up to now is        2.2 secs

     per-process dynamical memory:    38.5 Mb

     Self-consistent Calculation

     iteration #  1     ecut=    65.00 Ry     beta= 0.40
     Davidson diagonalization with overlap

---- Real-time Memory Report at c_bands before calling an iterative solver
            72 MiB given to the printing process from OS
            37 MiB allocation reported by mallinfo(arena+hblkhd)
        489127 MiB available memory on the node where the printing process lives
------------------
     ethr =  1.00E-02,  avg # of iterations =  3.3

     total cpu time spent up to now is        3.8 secs

     total energy              =    -909.96878991 Ry
     estimated scf accuracy    <      34.95838400 Ry

     total magnetization       =     6.27 Bohr mag/cell
     absolute magnetization    =     6.31 Bohr mag/cell

     iteration #  2     ecut=    65.00 Ry     beta= 0.40
     Davidson diagonalization with overlap

---- Real-time Memory Report at c_bands before calling an iterative solver
            86 MiB given to the printing process from OS
            49 MiB allocation reported by mallinfo(arena+hblkhd)
        488569 MiB available memory on the node where the printing process lives
------------------
     ethr =  1.00E-02,  avg # of iterations =  3.6

     total cpu time spent up to now is        5.5 secs

     total energy              =    -922.68693875 Ry
     estimated scf accuracy    <      27.10055534 Ry

     total magnetization       =     7.53 Bohr mag/cell
     absolute magnetization    =     7.56 Bohr mag/cell

     iteration #  3     ecut=    65.00 Ry     beta= 0.40
     Davidson diagonalization with overlap

---- Real-time Memory Report at c_bands before calling an iterative solver
            87 MiB given to the printing process from OS
            49 MiB allocation reported by mallinfo(arena+hblkhd)
        488555 MiB available memory on the node where the printing process lives
------------------
     ethr =  1.00E-02,  avg # of iterations =  2.4

     total cpu time spent up to now is        6.9 secs

     total energy              =    -923.46775833 Ry
     estimated scf accuracy    <       5.30969131 Ry

     total magnetization       =     6.97 Bohr mag/cell
     absolute magnetization    =     7.30 Bohr mag/cell

     iteration #  4     ecut=    65.00 Ry     beta= 0.40
     Davidson diagonalization with overlap

---- Real-time Memory Report at c_bands before calling an iterative solver
            87 MiB given to the printing process from OS
            50 MiB allocation reported by mallinfo(arena+hblkhd)
        488542 MiB available memory on the node where the printing process lives
------------------
     ethr =  8.56E-03,  avg # of iterations =  2.0

     total cpu time spent up to now is        8.1 secs

     total energy              =    -923.59929273 Ry
     estimated scf accuracy    <       5.59932146 Ry

     total magnetization       =     4.10 Bohr mag/cell
     absolute magnetization    =     4.50 Bohr mag/cell

     iteration #  5     ecut=    65.00 Ry     beta= 0.40
     Davidson diagonalization with overlap

---- Real-time Memory Report at c_bands before calling an iterative solver
            88 MiB given to the printing process from OS
            50 MiB allocation reported by mallinfo(arena+hblkhd)
        488531 MiB available memory on the node where the printing process lives
------------------
     ethr =  8.56E-03,  avg # of iterations =  1.0

     total cpu time spent up to now is        9.2 secs

     total energy              =    -924.06805406 Ry
     estimated scf accuracy    <       0.49412690 Ry

     total magnetization       =     7.17 Bohr mag/cell
     absolute magnetization    =     7.46 Bohr mag/cell

     iteration #  6     ecut=    65.00 Ry     beta= 0.40
     Davidson diagonalization with overlap

---- Real-time Memory Report at c_bands before calling an iterative solver
            89 MiB given to the printing process from OS
            50 MiB allocation reported by mallinfo(arena+hblkhd)
        488520 MiB available memory on the node where the printing process lives
------------------
     ethr =  7.97E-04,  avg # of iterations =  3.5

     total cpu time spent up to now is       10.7 secs

     total energy              =    -923.09668551 Ry
     estimated scf accuracy    <       5.90579466 Ry

     total magnetization       =     6.77 Bohr mag/cell
     absolute magnetization    =     7.12 Bohr mag/cell

     iteration #  7     ecut=    65.00 Ry     beta= 0.40
     Davidson diagonalization with overlap

---- Real-time Memory Report at c_bands before calling an iterative solver
            89 MiB given to the printing process from OS
            50 MiB allocation reported by mallinfo(arena+hblkhd)
        488509 MiB available memory on the node where the printing process lives
------------------
     ethr =  7.97E-04,  avg # of iterations =  3.4

     total cpu time spent up to now is       12.2 secs

     total energy              =    -924.23423938 Ry
     estimated scf accuracy    <       2.49776339 Ry

     total magnetization       =     6.53 Bohr mag/cell
     absolute magnetization    =     6.84 Bohr mag/cell

     iteration #  8     ecut=    65.00 Ry     beta= 0.40
     Davidson diagonalization with overlap

---- Real-time Memory Report at c_bands before calling an iterative solver
            90 MiB given to the printing process from OS
            51 MiB allocation reported by mallinfo(arena+hblkhd)
        488491 MiB available memory on the node where the printing process lives
------------------
     ethr =  7.97E-04,  avg # of iterations =  1.4

     total cpu time spent up to now is       13.3 secs

     total energy              =    -924.08032898 Ry
     estimated scf accuracy    <       1.46564706 Ry

     total magnetization       =     6.46 Bohr mag/cell
     absolute magnetization    =     6.77 Bohr mag/cell

     iteration #  9     ecut=    65.00 Ry     beta= 0.40
     Davidson diagonalization with overlap

---- Real-time Memory Report at c_bands before calling an iterative solver
            90 MiB given to the printing process from OS
            51 MiB allocation reported by mallinfo(arena+hblkhd)
        488484 MiB available memory on the node where the printing process lives
------------------
     ethr =  7.97E-04,  avg # of iterations =  2.0

     total cpu time spent up to now is       14.4 secs

     total energy              =    -924.10829519 Ry
     estimated scf accuracy    <       0.17948069 Ry

     total magnetization       =     6.25 Bohr mag/cell
     absolute magnetization    =     6.59 Bohr mag/cell

     iteration # 10     ecut=    65.00 Ry     beta= 0.40
     Davidson diagonalization with overlap

---- Real-time Memory Report at c_bands before calling an iterative solver
            91 MiB given to the printing process from OS
            51 MiB allocation reported by mallinfo(arena+hblkhd)
        488476 MiB available memory on the node where the printing process lives
------------------
     ethr =  2.89E-04,  avg # of iterations =  1.8

     total cpu time spent up to now is       15.6 secs

     total energy              =    -924.12271814 Ry
     estimated scf accuracy    <       0.00544682 Ry

     total magnetization       =     6.16 Bohr mag/cell
     absolute magnetization    =     6.52 Bohr mag/cell

     iteration # 11     ecut=    65.00 Ry     beta= 0.40
     Davidson diagonalization with overlap

---- Real-time Memory Report at c_bands before calling an iterative solver
            91 MiB given to the printing process from OS
            51 MiB allocation reported by mallinfo(arena+hblkhd)
        488461 MiB available memory on the node where the printing process lives
------------------
     ethr =  8.79E-06,  avg # of iterations =  5.1

     total cpu time spent up to now is       17.2 secs

     total energy              =    -924.12498914 Ry
     estimated scf accuracy    <       0.00451684 Ry

     total magnetization       =     6.02 Bohr mag/cell
     absolute magnetization    =     6.37 Bohr mag/cell

     iteration # 12     ecut=    65.00 Ry     beta= 0.40
     Davidson diagonalization with overlap

---- Real-time Memory Report at c_bands before calling an iterative solver
            91 MiB given to the printing process from OS
            51 MiB allocation reported by mallinfo(arena+hblkhd)
        488459 MiB available memory on the node where the printing process lives
------------------
     ethr =  7.29E-06,  avg # of iterations =  1.5

     total cpu time spent up to now is       18.3 secs

     total energy              =    -924.12533434 Ry
     estimated scf accuracy    <       0.00104943 Ry

     total magnetization       =     5.88 Bohr mag/cell
     absolute magnetization    =     6.23 Bohr mag/cell

     iteration # 13     ecut=    65.00 Ry     beta= 0.40
     Davidson diagonalization with overlap

---- Real-time Memory Report at c_bands before calling an iterative solver
            91 MiB given to the printing process from OS
            51 MiB allocation reported by mallinfo(arena+hblkhd)
        488455 MiB available memory on the node where the printing process lives
------------------
     ethr =  1.69E-06,  avg # of iterations =  2.8

     total cpu time spent up to now is       19.7 secs

     total energy              =    -924.12399550 Ry
     estimated scf accuracy    <       0.00396937 Ry

     total magnetization       =     5.83 Bohr mag/cell
     absolute magnetization    =     6.18 Bohr mag/cell

     iteration # 14     ecut=    65.00 Ry     beta= 0.40
     Davidson diagonalization with overlap

---- Real-time Memory Report at c_bands before calling an iterative solver
            92 MiB given to the printing process from OS
            51 MiB allocation reported by mallinfo(arena+hblkhd)
        488442 MiB available memory on the node where the printing process lives
------------------
     ethr =  1.69E-06,  avg # of iterations =  3.6

     total cpu time spent up to now is       21.2 secs

     total energy              =    -924.12668481 Ry
     estimated scf accuracy    <       0.01745487 Ry

     total magnetization       =     5.46 Bohr mag/cell
     absolute magnetization    =     5.79 Bohr mag/cell

     iteration # 15     ecut=    65.00 Ry     beta= 0.40
     Davidson diagonalization with overlap

---- Real-time Memory Report at c_bands before calling an iterative solver
            92 MiB given to the printing process from OS
            51 MiB allocation reported by mallinfo(arena+hblkhd)
        488439 MiB available memory on the node where the printing process lives
------------------
     ethr =  1.69E-06,  avg # of iterations =  1.6

     total cpu time spent up to now is       22.4 secs

     total energy              =    -924.12533830 Ry
     estimated scf accuracy    <       0.01977622 Ry

     total magnetization       =     5.65 Bohr mag/cell
     absolute magnetization    =     5.99 Bohr mag/cell

     iteration # 16     ecut=    65.00 Ry     beta= 0.40
     Davidson diagonalization with overlap

---- Real-time Memory Report at c_bands before calling an iterative solver
            92 MiB given to the printing process from OS
            51 MiB allocation reported by mallinfo(arena+hblkhd)
        488435 MiB available memory on the node where the printing process lives
------------------
     ethr =  1.69E-06,  avg # of iterations =  2.7

     total cpu time spent up to now is       23.7 secs

     total energy              =    -924.11981366 Ry
     estimated scf accuracy    <       0.00123211 Ry

     total magnetization       =     5.51 Bohr mag/cell
     absolute magnetization    =     5.84 Bohr mag/cell

     iteration # 17     ecut=    65.00 Ry     beta= 0.40
     Davidson diagonalization with overlap

---- Real-time Memory Report at c_bands before calling an iterative solver
            92 MiB given to the printing process from OS
            51 MiB allocation reported by mallinfo(arena+hblkhd)
        488432 MiB available memory on the node where the printing process lives
------------------
     ethr =  1.69E-06,  avg # of iterations =  3.8

     total cpu time spent up to now is       25.3 secs

     total energy              =    -924.12010239 Ry
     estimated scf accuracy    <       0.00192108 Ry

     total magnetization       =     6.12 Bohr mag/cell
     absolute magnetization    =     6.47 Bohr mag/cell

     iteration # 18     ecut=    65.00 Ry     beta= 0.40
     Davidson diagonalization with overlap

---- Real-time Memory Report at c_bands before calling an iterative solver
            92 MiB given to the printing process from OS
            51 MiB allocation reported by mallinfo(arena+hblkhd)
        488432 MiB available memory on the node where the printing process lives
------------------
     ethr =  1.69E-06,  avg # of iterations =  4.0

     total cpu time spent up to now is       27.0 secs

     total energy              =    -924.12685235 Ry
     estimated scf accuracy    <       0.00109777 Ry

     total magnetization       =     5.31 Bohr mag/cell
     absolute magnetization    =     5.65 Bohr mag/cell

     iteration # 19     ecut=    65.00 Ry     beta= 0.40
     Davidson diagonalization with overlap

---- Real-time Memory Report at c_bands before calling an iterative solver
            92 MiB given to the printing process from OS
            51 MiB allocation reported by mallinfo(arena+hblkhd)
        488429 MiB available memory on the node where the printing process lives
------------------
     ethr =  1.69E-06,  avg # of iterations =  1.0

     total cpu time spent up to now is       28.1 secs

     total energy              =    -924.11552716 Ry
     estimated scf accuracy    <       0.00076226 Ry

     total magnetization       =     5.25 Bohr mag/cell
     absolute magnetization    =     5.59 Bohr mag/cell

     iteration # 20     ecut=    65.00 Ry     beta= 0.40
     Davidson diagonalization with overlap

---- Real-time Memory Report at c_bands before calling an iterative solver
            92 MiB given to the printing process from OS
            51 MiB allocation reported by mallinfo(arena+hblkhd)
        488427 MiB available memory on the node where the printing process lives
------------------
     ethr =  1.23E-06,  avg # of iterations =  5.2

     total cpu time spent up to now is       29.9 secs

     total energy              =    -924.12411878 Ry
     estimated scf accuracy    <       0.00137351 Ry

     total magnetization       =     6.14 Bohr mag/cell
     absolute magnetization    =     6.48 Bohr mag/cell

     iteration # 21     ecut=    65.00 Ry     beta= 0.40
     Davidson diagonalization with overlap

---- Real-time Memory Report at c_bands before calling an iterative solver
            92 MiB given to the printing process from OS
            51 MiB allocation reported by mallinfo(arena+hblkhd)
        488423 MiB available memory on the node where the printing process lives
------------------
     ethr =  1.23E-06,  avg # of iterations =  1.7

     total cpu time spent up to now is       31.1 secs

     total energy              =    -924.04480327 Ry
     estimated scf accuracy    <       0.00152903 Ry

     total magnetization       =     6.23 Bohr mag/cell
     absolute magnetization    =     6.57 Bohr mag/cell

     iteration # 22     ecut=    65.00 Ry     beta= 0.40
     Davidson diagonalization with overlap

---- Real-time Memory Report at c_bands before calling an iterative solver
            93 MiB given to the printing process from OS
            51 MiB allocation reported by mallinfo(arena+hblkhd)
        488417 MiB available memory on the node where the printing process lives
------------------
     ethr =  1.23E-06,  avg # of iterations =  7.5

     total cpu time spent up to now is       33.6 secs

     total energy              =    -924.13743301 Ry
     estimated scf accuracy    <       0.02250564 Ry

     total magnetization       =     3.69 Bohr mag/cell
     absolute magnetization    =     4.05 Bohr mag/cell

     iteration # 23     ecut=    65.00 Ry     beta= 0.40
     Davidson diagonalization with overlap

---- Real-time Memory Report at c_bands before calling an iterative solver
            93 MiB given to the printing process from OS
            51 MiB allocation reported by mallinfo(arena+hblkhd)
        488412 MiB available memory on the node where the printing process lives
------------------
     ethr =  1.23E-06,  avg # of iterations =  1.0

     total cpu time spent up to now is       34.7 secs

     total energy              =    -924.13741490 Ry
     estimated scf accuracy    <       0.02172189 Ry

     total magnetization       =     3.70 Bohr mag/cell
     absolute magnetization    =     4.05 Bohr mag/cell

     iteration # 24     ecut=    65.00 Ry     beta= 0.40
     Davidson diagonalization with overlap

---- Real-time Memory Report at c_bands before calling an iterative solver
            93 MiB given to the printing process from OS
            51 MiB allocation reported by mallinfo(arena+hblkhd)
        488410 MiB available memory on the node where the printing process lives
------------------
     ethr =  1.23E-06,  avg # of iterations =  1.4

     total cpu time spent up to now is       35.8 secs

     total energy              =    -924.13381462 Ry
     estimated scf accuracy    <       0.02028611 Ry

     total magnetization       =     3.69 Bohr mag/cell
     absolute magnetization    =     4.05 Bohr mag/cell

     iteration # 25     ecut=    65.00 Ry     beta= 0.40
     Davidson diagonalization with overlap

---- Real-time Memory Report at c_bands before calling an iterative solver
            93 MiB given to the printing process from OS
            51 MiB allocation reported by mallinfo(arena+hblkhd)
        488408 MiB available memory on the node where the printing process lives
------------------
     ethr =  1.23E-06,  avg # of iterations =  4.4

     total cpu time spent up to now is       37.4 secs

     total energy              =    -924.13515620 Ry
     estimated scf accuracy    <       0.00764367 Ry

     total magnetization       =     3.77 Bohr mag/cell
     absolute magnetization    =     4.14 Bohr mag/cell

     iteration # 26     ecut=    65.00 Ry     beta= 0.40
     Davidson diagonalization with overlap

---- Real-time Memory Report at c_bands before calling an iterative solver
            93 MiB given to the printing process from OS
            51 MiB allocation reported by mallinfo(arena+hblkhd)
        488406 MiB available memory on the node where the printing process lives
------------------
     ethr =  1.23E-06,  avg # of iterations =  4.8

     total cpu time spent up to now is       39.1 secs

     total energy              =    -924.12607227 Ry
     estimated scf accuracy    <       0.02183712 Ry

     total magnetization       =     3.67 Bohr mag/cell
     absolute magnetization    =     4.03 Bohr mag/cell

     iteration # 27     ecut=    65.00 Ry     beta= 0.40
     Davidson diagonalization with overlap

---- Real-time Memory Report at c_bands before calling an iterative solver
            93 MiB given to the printing process from OS
            51 MiB allocation reported by mallinfo(arena+hblkhd)
        488403 MiB available memory on the node where the printing process lives
------------------
     ethr =  1.23E-06,  avg # of iterations =  5.8

     total cpu time spent up to now is       41.0 secs

     total energy              =    -924.13364463 Ry
     estimated scf accuracy    <       0.00514752 Ry

     total magnetization       =     4.06 Bohr mag/cell
     absolute magnetization    =     4.41 Bohr mag/cell

     iteration # 28     ecut=    65.00 Ry     beta= 0.40
     Davidson diagonalization with overlap

---- Real-time Memory Report at c_bands before calling an iterative solver
            93 MiB given to the printing process from OS
            51 MiB allocation reported by mallinfo(arena+hblkhd)
        488402 MiB available memory on the node where the printing process lives
------------------
     ethr =  1.23E-06,  avg # of iterations =  3.6

     total cpu time spent up to now is       42.5 secs

     total energy              =    -924.10142185 Ry
     estimated scf accuracy    <       0.00675304 Ry

     total magnetization       =     3.77 Bohr mag/cell
     absolute magnetization    =     4.15 Bohr mag/cell

     iteration # 29     ecut=    65.00 Ry     beta= 0.40
     Davidson diagonalization with overlap

---- Real-time Memory Report at c_bands before calling an iterative solver
            93 MiB given to the printing process from OS
            51 MiB allocation reported by mallinfo(arena+hblkhd)
        488394 MiB available memory on the node where the printing process lives
------------------
     ethr =  1.23E-06,  avg # of iterations =  6.0

     total cpu time spent up to now is       44.5 secs

     total energy              =    -924.12428845 Ry
     estimated scf accuracy    <       0.00060420 Ry

     total magnetization       =     5.43 Bohr mag/cell
     absolute magnetization    =     5.76 Bohr mag/cell

     iteration # 30     ecut=    65.00 Ry     beta= 0.40
     Davidson diagonalization with overlap

---- Real-time Memory Report at c_bands before calling an iterative solver
            93 MiB given to the printing process from OS
            51 MiB allocation reported by mallinfo(arena+hblkhd)
        488394 MiB available memory on the node where the printing process lives
------------------
     ethr =  9.75E-07,  avg # of iterations =  4.4

     total cpu time spent up to now is       46.1 secs

     total energy              =    -924.12925779 Ry
     estimated scf accuracy    <       0.00214293 Ry

     total magnetization       =     4.68 Bohr mag/cell
     absolute magnetization    =     5.01 Bohr mag/cell

     iteration # 31     ecut=    65.00 Ry     beta= 0.40
     Davidson diagonalization with overlap

---- Real-time Memory Report at c_bands before calling an iterative solver
            93 MiB given to the printing process from OS
            51 MiB allocation reported by mallinfo(arena+hblkhd)
        488394 MiB available memory on the node where the printing process lives
------------------
     ethr =  9.75E-07,  avg # of iterations =  1.7

     total cpu time spent up to now is       47.3 secs

     total energy              =    -924.12963664 Ry
     estimated scf accuracy    <       0.00301794 Ry

     total magnetization       =     4.57 Bohr mag/cell
     absolute magnetization    =     4.91 Bohr mag/cell

     iteration # 32     ecut=    65.00 Ry     beta= 0.40
     Davidson diagonalization with overlap

---- Real-time Memory Report at c_bands before calling an iterative solver
            93 MiB given to the printing process from OS
            51 MiB allocation reported by mallinfo(arena+hblkhd)
        488393 MiB available memory on the node where the printing process lives
------------------
     ethr =  9.75E-07,  avg # of iterations =  1.2

     total cpu time spent up to now is       48.4 secs

     total energy              =    -924.12692359 Ry
     estimated scf accuracy    <       0.00370698 Ry

     total magnetization       =     4.52 Bohr mag/cell
     absolute magnetization    =     4.85 Bohr mag/cell

     iteration # 33     ecut=    65.00 Ry     beta= 0.40
     Davidson diagonalization with overlap

---- Real-time Memory Report at c_bands before calling an iterative solver
            93 MiB given to the printing process from OS
            51 MiB allocation reported by mallinfo(arena+hblkhd)
        488393 MiB available memory on the node where the printing process lives
------------------
     ethr =  9.75E-07,  avg # of iterations =  2.8

     total cpu time spent up to now is       49.8 secs

     total energy              =    -924.12800407 Ry
     estimated scf accuracy    <       0.00201507 Ry

     total magnetization       =     4.89 Bohr mag/cell
     absolute magnetization    =     5.23 Bohr mag/cell

     iteration # 34     ecut=    65.00 Ry     beta= 0.40
     Davidson diagonalization with overlap

---- Real-time Memory Report at c_bands before calling an iterative solver
            93 MiB given to the printing process from OS
            51 MiB allocation reported by mallinfo(arena+hblkhd)
        488393 MiB available memory on the node where the printing process lives
------------------
     ethr =  9.75E-07,  avg # of iterations =  1.0

     total cpu time spent up to now is       50.9 secs

     total energy              =    -924.12817906 Ry
     estimated scf accuracy    <       0.00197996 Ry

     total magnetization       =     4.91 Bohr mag/cell
     absolute magnetization    =     5.25 Bohr mag/cell

     iteration # 35     ecut=    65.00 Ry     beta= 0.40
     Davidson diagonalization with overlap

---- Real-time Memory Report at c_bands before calling an iterative solver
            94 MiB given to the printing process from OS
            51 MiB allocation reported by mallinfo(arena+hblkhd)
        488392 MiB available memory on the node where the printing process lives
------------------
     ethr =  9.75E-07,  avg # of iterations =  1.0

     total cpu time spent up to now is       51.9 secs

     total energy              =    -924.12191372 Ry
     estimated scf accuracy    <       0.00233361 Ry

     total magnetization       =     4.86 Bohr mag/cell
     absolute magnetization    =     5.20 Bohr mag/cell

     iteration # 36     ecut=    65.00 Ry     beta= 0.40
     Davidson diagonalization with overlap

---- Real-time Memory Report at c_bands before calling an iterative solver
            94 MiB given to the printing process from OS
            51 MiB allocation reported by mallinfo(arena+hblkhd)
        488390 MiB available memory on the node where the printing process lives
------------------
     ethr =  9.75E-07,  avg # of iterations =  4.1

     total cpu time spent up to now is       53.6 secs

     total energy              =    -924.12151634 Ry
     estimated scf accuracy    <       0.00057212 Ry

     total magnetization       =     5.55 Bohr mag/cell
     absolute magnetization    =     5.89 Bohr mag/cell

     iteration # 37     ecut=    65.00 Ry     beta= 0.40
     Davidson diagonalization with overlap

---- Real-time Memory Report at c_bands before calling an iterative solver
            94 MiB given to the printing process from OS
            51 MiB allocation reported by mallinfo(arena+hblkhd)
        488389 MiB available memory on the node where the printing process lives
------------------
     ethr =  9.23E-07,  avg # of iterations =  4.7

     total cpu time spent up to now is       55.4 secs

     total energy              =    -924.12510409 Ry
     estimated scf accuracy    <       0.00086171 Ry

     total magnetization       =     6.08 Bohr mag/cell
     absolute magnetization    =     6.42 Bohr mag/cell

     iteration # 38     ecut=    65.00 Ry     beta= 0.40
     Davidson diagonalization with overlap

---- Real-time Memory Report at c_bands before calling an iterative solver
            94 MiB given to the printing process from OS
            51 MiB allocation reported by mallinfo(arena+hblkhd)
        488387 MiB available memory on the node where the printing process lives
------------------
     ethr =  9.23E-07,  avg # of iterations =  2.5

     total cpu time spent up to now is       56.6 secs

     total energy              =    -924.12547146 Ry
     estimated scf accuracy    <       0.00060494 Ry

     total magnetization       =     5.90 Bohr mag/cell
     absolute magnetization    =     6.24 Bohr mag/cell

     iteration # 39     ecut=    65.00 Ry     beta= 0.40
     Davidson diagonalization with overlap

---- Real-time Memory Report at c_bands before calling an iterative solver
            94 MiB given to the printing process from OS
            51 MiB allocation reported by mallinfo(arena+hblkhd)
        488386 MiB available memory on the node where the printing process lives
------------------
     ethr =  9.23E-07,  avg # of iterations =  3.0

     total cpu time spent up to now is       58.0 secs

     total energy              =    -924.12013257 Ry
     estimated scf accuracy    <       0.00050920 Ry

     total magnetization       =     5.69 Bohr mag/cell
     absolute magnetization    =     6.03 Bohr mag/cell

     iteration # 40     ecut=    65.00 Ry     beta= 0.40
     Davidson diagonalization with overlap

---- Real-time Memory Report at c_bands before calling an iterative solver
            94 MiB given to the printing process from OS
            51 MiB allocation reported by mallinfo(arena+hblkhd)
        488384 MiB available memory on the node where the printing process lives
------------------
     ethr =  8.21E-07,  avg # of iterations =  5.8

     total cpu time spent up to now is       59.9 secs

     total energy              =    -924.12338477 Ry
     estimated scf accuracy    <       0.00294464 Ry

     total magnetization       =     4.66 Bohr mag/cell
     absolute magnetization    =     4.99 Bohr mag/cell

     iteration # 41     ecut=    65.00 Ry     beta= 0.40
     Davidson diagonalization with overlap

---- Real-time Memory Report at c_bands before calling an iterative solver
            94 MiB given to the printing process from OS
            51 MiB allocation reported by mallinfo(arena+hblkhd)
        488382 MiB available memory on the node where the printing process lives
------------------
     ethr =  8.21E-07,  avg # of iterations =  4.5

     total cpu time spent up to now is       61.5 secs

     total energy              =    -924.12679715 Ry
     estimated scf accuracy    <       0.00084891 Ry

     total magnetization       =     5.30 Bohr mag/cell
     absolute magnetization    =     5.64 Bohr mag/cell

     iteration # 42     ecut=    65.00 Ry     beta= 0.40
     Davidson diagonalization with overlap

---- Real-time Memory Report at c_bands before calling an iterative solver
            94 MiB given to the printing process from OS
            51 MiB allocation reported by mallinfo(arena+hblkhd)
        488382 MiB available memory on the node where the printing process lives
------------------
     ethr =  8.21E-07,  avg # of iterations =  1.0

     total cpu time spent up to now is       62.6 secs

     total energy              =    -924.12638644 Ry
     estimated scf accuracy    <       0.00083750 Ry

     total magnetization       =     5.31 Bohr mag/cell
     absolute magnetization    =     5.64 Bohr mag/cell

     iteration # 43     ecut=    65.00 Ry     beta= 0.40
     Davidson diagonalization with overlap

---- Real-time Memory Report at c_bands before calling an iterative solver
            94 MiB given to the printing process from OS
            51 MiB allocation reported by mallinfo(arena+hblkhd)
        488379 MiB available memory on the node where the printing process lives
------------------
     ethr =  8.21E-07,  avg # of iterations =  1.6

     total cpu time spent up to now is       63.7 secs

     total energy              =    -924.12613788 Ry
     estimated scf accuracy    <       0.00063992 Ry

     total magnetization       =     5.43 Bohr mag/cell
     absolute magnetization    =     5.76 Bohr mag/cell

     iteration # 44     ecut=    65.00 Ry     beta= 0.40
     Davidson diagonalization with overlap

---- Real-time Memory Report at c_bands before calling an iterative solver
            94 MiB given to the printing process from OS
            51 MiB allocation reported by mallinfo(arena+hblkhd)
        488371 MiB available memory on the node where the printing process lives
------------------
     ethr =  8.21E-07,  avg # of iterations =  1.9

     total cpu time spent up to now is       64.9 secs

     total energy              =    -924.12527682 Ry
     estimated scf accuracy    <       0.00054747 Ry

     total magnetization       =     5.54 Bohr mag/cell
     absolute magnetization    =     5.88 Bohr mag/cell

     iteration # 45     ecut=    65.00 Ry     beta= 0.40
     Davidson diagonalization with overlap

---- Real-time Memory Report at c_bands before calling an iterative solver
            94 MiB given to the printing process from OS
            51 MiB allocation reported by mallinfo(arena+hblkhd)
        488371 MiB available memory on the node where the printing process lives
------------------
     ethr =  8.21E-07,  avg # of iterations =  2.9

     total cpu time spent up to now is       66.2 secs

     total energy              =    -924.12588433 Ry
     estimated scf accuracy    <       0.00049570 Ry

     total magnetization       =     5.77 Bohr mag/cell
     absolute magnetization    =     6.10 Bohr mag/cell

     iteration # 46     ecut=    65.00 Ry     beta= 0.40
     Davidson diagonalization with overlap

---- Real-time Memory Report at c_bands before calling an iterative solver
            94 MiB given to the printing process from OS
            51 MiB allocation reported by mallinfo(arena+hblkhd)
        488371 MiB available memory on the node where the printing process lives
------------------
     ethr =  8.00E-07,  avg # of iterations =  1.0

     total cpu time spent up to now is       67.3 secs

     total energy              =    -924.12580707 Ry
     estimated scf accuracy    <       0.00049298 Ry

     total magnetization       =     5.71 Bohr mag/cell
     absolute magnetization    =     6.05 Bohr mag/cell

     iteration # 47     ecut=    65.00 Ry     beta= 0.40
     Davidson diagonalization with overlap

---- Real-time Memory Report at c_bands before calling an iterative solver
            94 MiB given to the printing process from OS
            51 MiB allocation reported by mallinfo(arena+hblkhd)
        488370 MiB available memory on the node where the printing process lives
------------------
     ethr =  7.95E-07,  avg # of iterations =  1.0

     total cpu time spent up to now is       68.4 secs

     total energy              =    -924.12426544 Ry
     estimated scf accuracy    <       0.00049527 Ry

     total magnetization       =     5.75 Bohr mag/cell
     absolute magnetization    =     6.09 Bohr mag/cell

     iteration # 48     ecut=    65.00 Ry     beta= 0.40
     Davidson diagonalization with overlap

---- Real-time Memory Report at c_bands before calling an iterative solver
            94 MiB given to the printing process from OS
            51 MiB allocation reported by mallinfo(arena+hblkhd)
        488370 MiB available memory on the node where the printing process lives
------------------
     ethr =  7.95E-07,  avg # of iterations =  3.5

     total cpu time spent up to now is       69.8 secs

     total energy              =    -924.12042311 Ry
     estimated scf accuracy    <       0.00076005 Ry

     total magnetization       =     6.02 Bohr mag/cell
     absolute magnetization    =     6.36 Bohr mag/cell

     iteration # 49     ecut=    65.00 Ry     beta= 0.40
     Davidson diagonalization with overlap

---- Real-time Memory Report at c_bands before calling an iterative solver
            94 MiB given to the printing process from OS
            51 MiB allocation reported by mallinfo(arena+hblkhd)
        488370 MiB available memory on the node where the printing process lives
------------------
     ethr =  7.95E-07,  avg # of iterations =  5.4

     total cpu time spent up to now is       71.6 secs

     total energy              =    -924.12725768 Ry
     estimated scf accuracy    <       0.00099331 Ry

     total magnetization       =     5.18 Bohr mag/cell
     absolute magnetization    =     5.51 Bohr mag/cell

     iteration # 50     ecut=    65.00 Ry     beta= 0.40
     Davidson diagonalization with overlap

---- Real-time Memory Report at c_bands before calling an iterative solver
            94 MiB given to the printing process from OS
            51 MiB allocation reported by mallinfo(arena+hblkhd)
        488370 MiB available memory on the node where the printing process lives
------------------
     ethr =  7.95E-07,  avg # of iterations =  1.0

     total cpu time spent up to now is       72.7 secs

     total energy              =    -924.12758693 Ry
     estimated scf accuracy    <       0.00111160 Ry

     total magnetization       =     5.13 Bohr mag/cell
     absolute magnetization    =     5.46 Bohr mag/cell

     iteration # 51     ecut=    65.00 Ry     beta= 0.40
     Davidson diagonalization with overlap

---- Real-time Memory Report at c_bands before calling an iterative solver
            94 MiB given to the printing process from OS
            51 MiB allocation reported by mallinfo(arena+hblkhd)
        488370 MiB available memory on the node where the printing process lives
------------------
     ethr =  7.95E-07,  avg # of iterations =  2.4

     total cpu time spent up to now is       73.9 secs

     total energy              =    -924.12843105 Ry
     estimated scf accuracy    <       0.00182418 Ry

     total magnetization       =     4.90 Bohr mag/cell
     absolute magnetization    =     5.24 Bohr mag/cell

     iteration # 52     ecut=    65.00 Ry     beta= 0.40
     Davidson diagonalization with overlap

---- Real-time Memory Report at c_bands before calling an iterative solver
            94 MiB given to the printing process from OS
            51 MiB allocation reported by mallinfo(arena+hblkhd)
        488368 MiB available memory on the node where the printing process lives
------------------
     ethr =  7.95E-07,  avg # of iterations =  3.3

     total cpu time spent up to now is       75.3 secs

     total energy              =    -924.11205540 Ry
     estimated scf accuracy    <       0.00304057 Ry

     total magnetization       =     4.61 Bohr mag/cell
     absolute magnetization    =     4.95 Bohr mag/cell

     iteration # 53     ecut=    65.00 Ry     beta= 0.40
     Davidson diagonalization with overlap

---- Real-time Memory Report at c_bands before calling an iterative solver
            94 MiB given to the printing process from OS
            51 MiB allocation reported by mallinfo(arena+hblkhd)
        488368 MiB available memory on the node where the printing process lives
------------------
     ethr =  7.95E-07,  avg # of iterations =  5.8

     total cpu time spent up to now is       77.3 secs

     total energy              =    -924.12517699 Ry
     estimated scf accuracy    <       0.00053551 Ry

     total magnetization       =     5.83 Bohr mag/cell
     absolute magnetization    =     6.17 Bohr mag/cell

     iteration # 54     ecut=    65.00 Ry     beta= 0.40
     Davidson diagonalization with overlap

---- Real-time Memory Report at c_bands before calling an iterative solver
            94 MiB given to the printing process from OS
            51 MiB allocation reported by mallinfo(arena+hblkhd)
        488367 MiB available memory on the node where the printing process lives
------------------
     ethr =  7.95E-07,  avg # of iterations =  1.9

     total cpu time spent up to now is       78.4 secs

     total energy              =    -924.12502309 Ry
     estimated scf accuracy    <       0.00063736 Ry

     total magnetization       =     5.95 Bohr mag/cell
     absolute magnetization    =     6.29 Bohr mag/cell

     iteration # 55     ecut=    65.00 Ry     beta= 0.40
     Davidson diagonalization with overlap

---- Real-time Memory Report at c_bands before calling an iterative solver
            94 MiB given to the printing process from OS
            51 MiB allocation reported by mallinfo(arena+hblkhd)
        488367 MiB available memory on the node where the printing process lives
------------------
     ethr =  7.95E-07,  avg # of iterations =  3.2

     total cpu time spent up to now is       79.9 secs

     total energy              =    -924.12615404 Ry
     estimated scf accuracy    <       0.00048614 Ry

     total magnetization       =     5.64 Bohr mag/cell
     absolute magnetization    =     5.98 Bohr mag/cell

     iteration # 56     ecut=    65.00 Ry     beta= 0.40
     Davidson diagonalization with overlap

---- Real-time Memory Report at c_bands before calling an iterative solver
            94 MiB given to the printing process from OS
            51 MiB allocation reported by mallinfo(arena+hblkhd)
        488367 MiB available memory on the node where the printing process lives
------------------
     ethr =  7.84E-07,  avg # of iterations =  1.3

     total cpu time spent up to now is       81.0 secs

     total energy              =    -924.12617494 Ry
     estimated scf accuracy    <       0.00052392 Ry

     total magnetization       =     5.57 Bohr mag/cell
     absolute magnetization    =     5.91 Bohr mag/cell

     iteration # 57     ecut=    65.00 Ry     beta= 0.40
     Davidson diagonalization with overlap

---- Real-time Memory Report at c_bands before calling an iterative solver
            94 MiB given to the printing process from OS
            51 MiB allocation reported by mallinfo(arena+hblkhd)
        488366 MiB available memory on the node where the printing process lives
------------------
     ethr =  7.84E-07,  avg # of iterations =  1.0

     total cpu time spent up to now is       82.0 secs

     total energy              =    -924.12584229 Ry
     estimated scf accuracy    <       0.00050866 Ry

     total magnetization       =     5.58 Bohr mag/cell
     absolute magnetization    =     5.92 Bohr mag/cell

     iteration # 58     ecut=    65.00 Ry     beta= 0.40
     Davidson diagonalization with overlap

---- Real-time Memory Report at c_bands before calling an iterative solver
            94 MiB given to the printing process from OS
            51 MiB allocation reported by mallinfo(arena+hblkhd)
        488366 MiB available memory on the node where the printing process lives
------------------
     ethr =  7.84E-07,  avg # of iterations =  1.1

     total cpu time spent up to now is       83.1 secs

     total energy              =    -924.12606623 Ry
     estimated scf accuracy    <       0.00046249 Ry

     total magnetization       =     5.69 Bohr mag/cell
     absolute magnetization    =     6.03 Bohr mag/cell

     iteration # 59     ecut=    65.00 Ry     beta= 0.40
     Davidson diagonalization with overlap

---- Real-time Memory Report at c_bands before calling an iterative solver
            95 MiB given to the printing process from OS
            51 MiB allocation reported by mallinfo(arena+hblkhd)
        488365 MiB available memory on the node where the printing process lives
------------------
     ethr =  7.46E-07,  avg # of iterations =  1.3

     total cpu time spent up to now is       84.3 secs

     total energy              =    -924.12627423 Ry
     estimated scf accuracy    <       0.00048528 Ry

     total magnetization       =     5.58 Bohr mag/cell
     absolute magnetization    =     5.92 Bohr mag/cell

     iteration # 60     ecut=    65.00 Ry     beta= 0.40
     Davidson diagonalization with overlap

---- Real-time Memory Report at c_bands before calling an iterative solver
            95 MiB given to the printing process from OS
            51 MiB allocation reported by mallinfo(arena+hblkhd)
        488365 MiB available memory on the node where the printing process lives
------------------
     ethr =  7.46E-07,  avg # of iterations =  1.5

     total cpu time spent up to now is       85.4 secs

     total energy              =    -924.12240782 Ry
     estimated scf accuracy    <       0.00051804 Ry

     total magnetization       =     5.52 Bohr mag/cell
     absolute magnetization    =     5.85 Bohr mag/cell

     iteration # 61     ecut=    65.00 Ry     beta= 0.40
     Davidson diagonalization with overlap

---- Real-time Memory Report at c_bands before calling an iterative solver
            95 MiB given to the printing process from OS
            51 MiB allocation reported by mallinfo(arena+hblkhd)
        488363 MiB available memory on the node where the printing process lives
------------------
     ethr =  7.46E-07,  avg # of iterations =  4.4

     total cpu time spent up to now is       87.0 secs

     total energy              =    -924.10729775 Ry
     estimated scf accuracy    <       0.00070879 Ry

     total magnetization       =     6.01 Bohr mag/cell
     absolute magnetization    =     6.35 Bohr mag/cell

     iteration # 62     ecut=    65.00 Ry     beta= 0.40
     Davidson diagonalization with overlap

---- Real-time Memory Report at c_bands before calling an iterative solver
            95 MiB given to the printing process from OS
            51 MiB allocation reported by mallinfo(arena+hblkhd)
        488362 MiB available memory on the node where the printing process lives
------------------
     ethr =  7.46E-07,  avg # of iterations =  6.0

     total cpu time spent up to now is       89.1 secs

     total energy              =    -924.12275520 Ry
     estimated scf accuracy    <       0.00437537 Ry

     total magnetization       =     4.36 Bohr mag/cell
     absolute magnetization    =     4.70 Bohr mag/cell

     iteration # 63     ecut=    65.00 Ry     beta= 0.40
     Davidson diagonalization with overlap

---- Real-time Memory Report at c_bands before calling an iterative solver
            95 MiB given to the printing process from OS
            51 MiB allocation reported by mallinfo(arena+hblkhd)
        488353 MiB available memory on the node where the printing process lives
------------------
     ethr =  7.46E-07,  avg # of iterations =  4.7

     total cpu time spent up to now is       90.8 secs

     total energy              =    -924.12693720 Ry
     estimated scf accuracy    <       0.00114871 Ry

     total magnetization       =     5.11 Bohr mag/cell
     absolute magnetization    =     5.44 Bohr mag/cell

     iteration # 64     ecut=    65.00 Ry     beta= 0.40
     Davidson diagonalization with overlap

---- Real-time Memory Report at c_bands before calling an iterative solver
            95 MiB given to the printing process from OS
            51 MiB allocation reported by mallinfo(arena+hblkhd)
        488353 MiB available memory on the node where the printing process lives
------------------
     ethr =  7.46E-07,  avg # of iterations =  1.5

     total cpu time spent up to now is       91.9 secs

     total energy              =    -924.12680905 Ry
     estimated scf accuracy    <       0.00094182 Ry

     total magnetization       =     5.21 Bohr mag/cell
     absolute magnetization    =     5.55 Bohr mag/cell

     iteration # 65     ecut=    65.00 Ry     beta= 0.40
     Davidson diagonalization with overlap

---- Real-time Memory Report at c_bands before calling an iterative solver
            95 MiB given to the printing process from OS
            51 MiB allocation reported by mallinfo(arena+hblkhd)
        488353 MiB available memory on the node where the printing process lives
------------------
     ethr =  7.46E-07,  avg # of iterations =  1.4

     total cpu time spent up to now is       93.1 secs

     total energy              =    -924.12698370 Ry
     estimated scf accuracy    <       0.00086098 Ry

     total magnetization       =     5.28 Bohr mag/cell
     absolute magnetization    =     5.62 Bohr mag/cell

     iteration # 66     ecut=    65.00 Ry     beta= 0.40
     Davidson diagonalization with overlap

---- Real-time Memory Report at c_bands before calling an iterative solver
            95 MiB given to the printing process from OS
            51 MiB allocation reported by mallinfo(arena+hblkhd)
        488353 MiB available memory on the node where the printing process lives
------------------
     ethr =  7.46E-07,  avg # of iterations =  1.0

     total cpu time spent up to now is       94.1 secs

     total energy              =    -924.11901234 Ry
     estimated scf accuracy    <       0.00097354 Ry

     total magnetization       =     5.22 Bohr mag/cell
     absolute magnetization    =     5.56 Bohr mag/cell

     iteration # 67     ecut=    65.00 Ry     beta= 0.40
     Davidson diagonalization with overlap

---- Real-time Memory Report at c_bands before calling an iterative solver
            95 MiB given to the printing process from OS
            51 MiB allocation reported by mallinfo(arena+hblkhd)
        488353 MiB available memory on the node where the printing process lives
------------------
     ethr =  7.46E-07,  avg # of iterations =  5.4

     total cpu time spent up to now is       96.0 secs

     total energy              =    -924.12532601 Ry
     estimated scf accuracy    <       0.00061600 Ry

     total magnetization       =     5.98 Bohr mag/cell
     absolute magnetization    =     6.33 Bohr mag/cell

     iteration # 68     ecut=    65.00 Ry     beta= 0.40
     Davidson diagonalization with overlap

---- Real-time Memory Report at c_bands before calling an iterative solver
            95 MiB given to the printing process from OS
            51 MiB allocation reported by mallinfo(arena+hblkhd)
[...]
------------------
     ethr =  3.38E-07,  avg # of iterations =  6.0

     total cpu time spent up to now is      765.4 secs

     total energy              =    -924.11827695 Ry
     estimated scf accuracy    <       0.00047059 Ry

     total magnetization       =     5.54 Bohr mag/cell
     absolute magnetization    =     5.88 Bohr mag/cell

     iteration #479     ecut=    65.00 Ry     beta= 0.40
     Davidson diagonalization with overlap

---- Real-time Memory Report at c_bands before calling an iterative solver
            97 MiB given to the printing process from OS
            51 MiB allocation reported by mallinfo(arena+hblkhd)
        488371 MiB available memory on the node where the printing process lives
------------------
     ethr =  3.38E-07,  avg # of iterations =  6.1

     total cpu time spent up to now is      767.4 secs

     total energy              =    -924.13132711 Ry
     estimated scf accuracy    <       0.00477729 Ry

     total magnetization       =     4.31 Bohr mag/cell
     absolute magnetization    =     4.65 Bohr mag/cell

     iteration #480     ecut=    65.00 Ry     beta= 0.40
     Davidson diagonalization with overlap

---- Real-time Memory Report at c_bands before calling an iterative solver
            97 MiB given to the printing process from OS
            51 MiB allocation reported by mallinfo(arena+hblkhd)
        488372 MiB available memory on the node where the printing process lives
------------------
     ethr =  3.38E-07,  avg # of iterations =  2.6

     total cpu time spent up to now is      768.7 secs

     total energy              =    -924.09601845 Ry
     estimated scf accuracy    <       0.00581271 Ry

     total magnetization       =     4.18 Bohr mag/cell
     absolute magnetization    =     4.52 Bohr mag/cell

     iteration #481     ecut=    65.00 Ry     beta= 0.40
     Davidson diagonalization with overlap

---- Real-time Memory Report at c_bands before calling an iterative solver
            97 MiB given to the printing process from OS
            51 MiB allocation reported by mallinfo(arena+hblkhd)
        488371 MiB available memory on the node where the printing process lives
------------------
     ethr =  3.38E-07,  avg # of iterations =  6.5

     total cpu time spent up to now is      771.0 secs

     total energy              =    -924.12506676 Ry
     estimated scf accuracy    <       0.00051487 Ry

     total magnetization       =     5.94 Bohr mag/cell
     absolute magnetization    =     6.28 Bohr mag/cell

     iteration #482     ecut=    65.00 Ry     beta= 0.40
     Davidson diagonalization with overlap

---- Real-time Memory Report at c_bands before calling an iterative solver
            97 MiB given to the printing process from OS
            51 MiB allocation reported by mallinfo(arena+hblkhd)
        488371 MiB available memory on the node where the printing process lives
------------------
     ethr =  3.38E-07,  avg # of iterations =  4.2

     total cpu time spent up to now is      772.5 secs

     total energy              =    -924.12596418 Ry
     estimated scf accuracy    <       0.00040506 Ry

     total magnetization       =     5.64 Bohr mag/cell
     absolute magnetization    =     5.98 Bohr mag/cell

     iteration #483     ecut=    65.00 Ry     beta= 0.40
     Davidson diagonalization with overlap

---- Real-time Memory Report at c_bands before calling an iterative solver
            97 MiB given to the printing process from OS
            51 MiB allocation reported by mallinfo(arena+hblkhd)
        488371 MiB available memory on the node where the printing process lives
------------------
     ethr =  3.38E-07,  avg # of iterations =  1.0

     total cpu time spent up to now is      773.6 secs

     total energy              =    -924.12474744 Ry
     estimated scf accuracy    <       0.00040771 Ry

     total magnetization       =     5.68 Bohr mag/cell
     absolute magnetization    =     6.02 Bohr mag/cell

     iteration #484     ecut=    65.00 Ry     beta= 0.40
     Davidson diagonalization with overlap

---- Real-time Memory Report at c_bands before calling an iterative solver
            97 MiB given to the printing process from OS
            51 MiB allocation reported by mallinfo(arena+hblkhd)
        488371 MiB available memory on the node where the printing process lives
------------------
     ethr =  3.38E-07,  avg # of iterations =  3.8

     total cpu time spent up to now is      775.1 secs

     total energy              =    -924.12507243 Ry
     estimated scf accuracy    <       0.00051114 Ry

     total magnetization       =     5.92 Bohr mag/cell
     absolute magnetization    =     6.26 Bohr mag/cell

     iteration #485     ecut=    65.00 Ry     beta= 0.40
     Davidson diagonalization with overlap

---- Real-time Memory Report at c_bands before calling an iterative solver
            97 MiB given to the printing process from OS
            51 MiB allocation reported by mallinfo(arena+hblkhd)
        488371 MiB available memory on the node where the printing process lives
------------------
     ethr =  3.38E-07,  avg # of iterations =  2.3

     total cpu time spent up to now is      776.3 secs

     total energy              =    -924.12499130 Ry
     estimated scf accuracy    <       0.00063116 Ry

     total magnetization       =     6.01 Bohr mag/cell
     absolute magnetization    =     6.35 Bohr mag/cell

     iteration #486     ecut=    65.00 Ry     beta= 0.40
     Davidson diagonalization with overlap

---- Real-time Memory Report at c_bands before calling an iterative solver
            97 MiB given to the printing process from OS
            51 MiB allocation reported by mallinfo(arena+hblkhd)
        488371 MiB available memory on the node where the printing process lives
------------------
     ethr =  3.38E-07,  avg # of iterations =  3.9

     total cpu time spent up to now is      777.9 secs

     total energy              =    -924.12395004 Ry
     estimated scf accuracy    <       0.00039669 Ry

     total magnetization       =     5.73 Bohr mag/cell
     absolute magnetization    =     6.07 Bohr mag/cell

     iteration #487     ecut=    65.00 Ry     beta= 0.40
     Davidson diagonalization with overlap

---- Real-time Memory Report at c_bands before calling an iterative solver
            97 MiB given to the printing process from OS
            51 MiB allocation reported by mallinfo(arena+hblkhd)
        488370 MiB available memory on the node where the printing process lives
------------------
     ethr =  3.38E-07,  avg # of iterations =  4.3

     total cpu time spent up to now is      779.5 secs

     total energy              =    -924.12447981 Ry
     estimated scf accuracy    <       0.00069619 Ry

     total magnetization       =     6.04 Bohr mag/cell
     absolute magnetization    =     6.38 Bohr mag/cell

     iteration #488     ecut=    65.00 Ry     beta= 0.40
     Davidson diagonalization with overlap

---- Real-time Memory Report at c_bands before calling an iterative solver
            97 MiB given to the printing process from OS
            51 MiB allocation reported by mallinfo(arena+hblkhd)
        488369 MiB available memory on the node where the printing process lives
------------------
     ethr =  3.38E-07,  avg # of iterations =  3.0

     total cpu time spent up to now is      780.8 secs

     total energy              =    -924.11686773 Ry
     estimated scf accuracy    <       0.00100986 Ry

     total magnetization       =     6.15 Bohr mag/cell
     absolute magnetization    =     6.49 Bohr mag/cell

     iteration #489     ecut=    65.00 Ry     beta= 0.40
     Davidson diagonalization with overlap

---- Real-time Memory Report at c_bands before calling an iterative solver
            97 MiB given to the printing process from OS
            51 MiB allocation reported by mallinfo(arena+hblkhd)
        488369 MiB available memory on the node where the printing process lives
------------------
     ethr =  3.38E-07,  avg # of iterations =  6.1

     total cpu time spent up to now is      782.8 secs

     total energy              =    -924.12760171 Ry
     estimated scf accuracy    <       0.00105187 Ry

     total magnetization       =     5.11 Bohr mag/cell
     absolute magnetization    =     5.44 Bohr mag/cell

     iteration #490     ecut=    65.00 Ry     beta= 0.40
     Davidson diagonalization with overlap

---- Real-time Memory Report at c_bands before calling an iterative solver
            97 MiB given to the printing process from OS
            51 MiB allocation reported by mallinfo(arena+hblkhd)
        488370 MiB available memory on the node where the printing process lives
------------------
     ethr =  3.38E-07,  avg # of iterations =  2.4

     total cpu time spent up to now is      784.1 secs

     total energy              =    -924.12411003 Ry
     estimated scf accuracy    <       0.00136198 Ry

     total magnetization       =     4.98 Bohr mag/cell
     absolute magnetization    =     5.32 Bohr mag/cell

     iteration #491     ecut=    65.00 Ry     beta= 0.40
     Davidson diagonalization with overlap

---- Real-time Memory Report at c_bands before calling an iterative solver
            97 MiB given to the printing process from OS
            51 MiB allocation reported by mallinfo(arena+hblkhd)
        488370 MiB available memory on the node where the printing process lives
------------------
     ethr =  3.38E-07,  avg # of iterations =  4.8

     total cpu time spent up to now is      785.7 secs

     total energy              =    -924.12650618 Ry
     estimated scf accuracy    <       0.00047434 Ry

     total magnetization       =     5.49 Bohr mag/cell
     absolute magnetization    =     5.83 Bohr mag/cell

     iteration #492     ecut=    65.00 Ry     beta= 0.40
     Davidson diagonalization with overlap

---- Real-time Memory Report at c_bands before calling an iterative solver
            97 MiB given to the printing process from OS
            51 MiB allocation reported by mallinfo(arena+hblkhd)
        488369 MiB available memory on the node where the printing process lives
------------------
     ethr =  3.38E-07,  avg # of iterations =  1.6

     total cpu time spent up to now is      786.8 secs

     total energy              =    -924.12663601 Ry
     estimated scf accuracy    <       0.00055730 Ry

     total magnetization       =     5.40 Bohr mag/cell
     absolute magnetization    =     5.74 Bohr mag/cell

     iteration #493     ecut=    65.00 Ry     beta= 0.40
     Davidson diagonalization with overlap

---- Real-time Memory Report at c_bands before calling an iterative solver
            97 MiB given to the printing process from OS
            51 MiB allocation reported by mallinfo(arena+hblkhd)
        488369 MiB available memory on the node where the printing process lives
------------------
     ethr =  3.38E-07,  avg # of iterations =  3.8

     total cpu time spent up to now is      788.3 secs

     total energy              =    -924.12737485 Ry
     estimated scf accuracy    <       0.00102472 Ry

     total magnetization       =     5.12 Bohr mag/cell
     absolute magnetization    =     5.46 Bohr mag/cell

     iteration #494     ecut=    65.00 Ry     beta= 0.40
     Davidson diagonalization with overlap

---- Real-time Memory Report at c_bands before calling an iterative solver
            97 MiB given to the printing process from OS
            51 MiB allocation reported by mallinfo(arena+hblkhd)
        488369 MiB available memory on the node where the printing process lives
------------------
     ethr =  3.38E-07,  avg # of iterations =  1.0

     total cpu time spent up to now is      789.4 secs

     total energy              =    -924.12758838 Ry
     estimated scf accuracy    <       0.00115917 Ry

     total magnetization       =     5.09 Bohr mag/cell
     absolute magnetization    =     5.43 Bohr mag/cell

     iteration #495     ecut=    65.00 Ry     beta= 0.40
     Davidson diagonalization with overlap

---- Real-time Memory Report at c_bands before calling an iterative solver
            97 MiB given to the printing process from OS
            51 MiB allocation reported by mallinfo(arena+hblkhd)
        488369 MiB available memory on the node where the printing process lives
------------------
     ethr =  3.38E-07,  avg # of iterations =  1.9

     total cpu time spent up to now is      790.6 secs

     total energy              =    -924.12490646 Ry
     estimated scf accuracy    <       0.00140389 Ry

     total magnetization       =     5.00 Bohr mag/cell
     absolute magnetization    =     5.34 Bohr mag/cell

     iteration #496     ecut=    65.00 Ry     beta= 0.40
     Davidson diagonalization with overlap

---- Real-time Memory Report at c_bands before calling an iterative solver
            97 MiB given to the printing process from OS
            51 MiB allocation reported by mallinfo(arena+hblkhd)
        488369 MiB available memory on the node where the printing process lives
------------------
     ethr =  3.38E-07,  avg # of iterations =  4.5

     total cpu time spent up to now is      792.1 secs

     total energy              =    -924.12245995 Ry
     estimated scf accuracy    <       0.00056178 Ry

     total magnetization       =     5.44 Bohr mag/cell
     absolute magnetization    =     5.77 Bohr mag/cell

     iteration #497     ecut=    65.00 Ry     beta= 0.40
     Davidson diagonalization with overlap

---- Real-time Memory Report at c_bands before calling an iterative solver
            97 MiB given to the printing process from OS
            51 MiB allocation reported by mallinfo(arena+hblkhd)
        488369 MiB available memory on the node where the printing process lives
------------------
     ethr =  3.38E-07,  avg # of iterations =  5.5

     total cpu time spent up to now is      793.9 secs

     total energy              =    -924.12530608 Ry
     estimated scf accuracy    <       0.00050159 Ry

     total magnetization       =     5.95 Bohr mag/cell
     absolute magnetization    =     6.29 Bohr mag/cell

     iteration #498     ecut=    65.00 Ry     beta= 0.40
     Davidson diagonalization with overlap

---- Real-time Memory Report at c_bands before calling an iterative solver
            97 MiB given to the printing process from OS
            51 MiB allocation reported by mallinfo(arena+hblkhd)
        488368 MiB available memory on the node where the printing process lives
------------------
     ethr =  3.38E-07,  avg # of iterations =  1.0

     total cpu time spent up to now is      795.0 secs

     total energy              =    -924.12536275 Ry
     estimated scf accuracy    <       0.00052797 Ry

     total magnetization       =     5.96 Bohr mag/cell
     absolute magnetization    =     6.30 Bohr mag/cell

     iteration #499     ecut=    65.00 Ry     beta= 0.40
     Davidson diagonalization with overlap

---- Real-time Memory Report at c_bands before calling an iterative solver
            97 MiB given to the printing process from OS
            51 MiB allocation reported by mallinfo(arena+hblkhd)
        488368 MiB available memory on the node where the printing process lives
------------------
     ethr =  3.38E-07,  avg # of iterations =  1.0

     total cpu time spent up to now is      796.1 secs

     total energy              =    -924.12548811 Ry
     estimated scf accuracy    <       0.00048357 Ry

     total magnetization       =     5.94 Bohr mag/cell
     absolute magnetization    =     6.28 Bohr mag/cell

     iteration #500     ecut=    65.00 Ry     beta= 0.40
     Davidson diagonalization with overlap

---- Real-time Memory Report at c_bands before calling an iterative solver
            97 MiB given to the printing process from OS
            51 MiB allocation reported by mallinfo(arena+hblkhd)
        488368 MiB available memory on the node where the printing process lives
------------------
     ethr =  3.38E-07,  avg # of iterations =  1.7

     total cpu time spent up to now is      797.2 secs

     total energy              =    -924.12560414 Ry
     estimated scf accuracy    <       0.00039379 Ry

     total magnetization       =     5.87 Bohr mag/cell
     absolute magnetization    =     6.21 Bohr mag/cell

     End of self-consistent calculation

     convergence NOT achieved after 500 iterations: stopping

     Writing config to output data dir ./out/aiida.save/ :
     XML data file, charge density

     init_run     :      1.67s CPU      1.73s WALL (       1 calls)
     electrons    :    769.87s CPU    795.05s WALL (       1 calls)

     Called by init_run:
     wfcinit      :      0.46s CPU      0.48s WALL (       1 calls)
     wfcinit:atom :      0.01s CPU      0.01s WALL (      21 calls)
     wfcinit:wfcr :      0.42s CPU      0.44s WALL (      21 calls)
     potinit      :      0.21s CPU      0.22s WALL (       1 calls)
     hinit0       :      0.75s CPU      0.76s WALL (       1 calls)

     Called by electrons:
     c_bands      :    613.60s CPU    633.50s WALL (     500 calls)
     sum_band     :     99.67s CPU    103.48s WALL (     500 calls)
     v_of_rho     :     31.68s CPU     32.36s WALL (     501 calls)
     v_h          :      0.97s CPU      1.05s WALL (     501 calls)
     v_xc         :     30.70s CPU     31.31s WALL (     501 calls)
     newd         :     16.56s CPU     16.64s WALL (     501 calls)
     mix_rho      :      2.65s CPU      2.81s WALL (     500 calls)

     Called by c_bands:
     init_us_2    :      4.78s CPU      4.94s WALL (   21021 calls)
     init_us_2:cp :      4.73s CPU      4.88s WALL (   21021 calls)
     cegterg      :    532.75s CPU    547.18s WALL (   10500 calls)

     Called by sum_band:
     sum_band:wei :      0.79s CPU      0.81s WALL (     500 calls)
     sum_band:loo :     73.21s CPU     75.65s WALL (     500 calls)
     sum_band:buf :      0.57s CPU      0.60s WALL (   10500 calls)
     sum_band:ini :      2.14s CPU      2.20s WALL (   10500 calls)
     sum_band:cal :      4.64s CPU      4.78s WALL (   10500 calls)
     sum_band:bec :      0.21s CPU      0.22s WALL (   10500 calls)
     addusdens    :     19.98s CPU     20.22s WALL (     500 calls)
                                        0.00s GPU  (     500 calls)
     addusd:skk   :      0.05s CPU      0.05s WALL (    1500 calls)
                                        0.00s GPU  (    1500 calls)

     Called by *egterg:
     cdiaghg      :     71.35s CPU     72.09s WALL (   47922 calls)
     cegterg:over :     18.05s CPU     18.35s WALL (   37422 calls)
     cegterg:upda :     10.06s CPU     10.24s WALL (   37422 calls)
     cegterg:last :     20.96s CPU     21.07s WALL (   24860 calls)
     h_psi        :    391.02s CPU    403.45s WALL (   47943 calls)
     s_psi        :     12.22s CPU     12.39s WALL (   47943 calls)
     g_psi        :      1.02s CPU      1.05s WALL (   37422 calls)

     Called by h_psi:
     h_psi:calbec :     15.88s CPU     16.20s WALL (   47943 calls)
     vloc_psi     :    361.09s CPU    372.90s WALL (   47943 calls)
     add_vuspsi   :     12.44s CPU     12.61s WALL (   47943 calls)

     General routines
     calbec       :     20.38s CPU     20.80s WALL (   58443 calls)
     fft          :     10.06s CPU     11.00s WALL (   12523 calls)
     ffts         :      0.55s CPU      0.62s WALL (    2002 calls)
     fftw         :    351.15s CPU    361.20s WALL ( 2609544 calls)
     interpolate  :      1.42s CPU      1.56s WALL (    1002 calls)
     davcio       :      0.00s CPU      0.01s WALL (      39 calls)

     Parallel routines

     PWSCF        :  12m51.91s CPU  13m17.53s WALL


   This run was terminated on:  22:26:30  28Nov2023            

=------------------------------------------------------------------------------=
   JOB DONE.
=------------------------------------------------------------------------------=
