
     Program PWSCF v.7.2 starts on 23Oct2023 at 17:29:45 

     This program is part of the open-source Quantum ESPRESSO suite
     for quantum simulation of materials; please cite
         "P. Giannozzi et al., J. Phys.:Condens. Matter 21 395502 (2009);
         "P. Giannozzi et al., J. Phys.:Condens. Matter 29 465901 (2017);
         "P. Giannozzi et al., J. Chem. Phys. 152 154105 (2020);
          URL http://www.quantum-espresso.org", 
     in publications or presentations arising from this work. More details at
     http://www.quantum-espresso.org/quote

     Parallel version (MPI & OpenMP), running on      12 processor cores
     Number of MPI processes:                 1
     Threads/MPI process:                    12

     MPI processes distributed on     1 nodes
     60285 MiB available memory on the printing compute node when the environment starts
 
     Reading input from aiida.in

     Current dimensions of program PWSCF are:
     Max number of different atomic species (ntypx) = 10
     Max number of k-points (npk) =  40000
     Max angular momentum in pseudopotentials (lmaxx) =  4
     file C.pbesol-n-kjpaw_psl.1.0.0.UPF: wavefunction(s)  2S 2P renormalized
     file O.pbesol-n-kjpaw_psl.0.1.UPF: wavefunction(s)  2P renormalized
     Message from routine setup:
     using ibrav=0 with symmetry is DISCOURAGED, use correct ibrav instead
 
     Subspace diagonalization in iterative solution of the eigenvalue problem:
     a serial algorithm will be used

 
     G-vector sticks info
     --------------------
     sticks:   dense  smooth     PW     G-vecs:    dense   smooth      PW
     Sum       16349    8171   2213              1561159   551889   77809
 
     Using Slab Decomposition
 


     bravais-lattice index     =            0
     lattice parameter (alat)  =      15.3559  a.u.
     unit-cell volume          =    8790.7105 (a.u.)^3
     number of atoms/cell      =           12
     number of atomic types    =            3
     number of electrons       =        60.00
     number of Kohn-Sham states=           36
     kinetic-energy cutoff     =      60.0000  Ry
     charge density cutoff     =     480.0000  Ry
     scf convergence threshold =      2.4E-09
     mixing beta               =       0.4000
     number of iterations used =            8  plain     mixing
     Exchange-correlation= SLA  PW   PSX  PSC
                           (   1   4  10   8   0   0   0)

     GPU acceleration is ACTIVE.


     GPU used by master process:

        Device Number: 0
        Device name: Tesla P100-PCIE-16GB
        Compute capability : 60
        Ratio of single to double precision performance  : 2
        Memory Clock Rate (KHz): 715000
        Memory Bus Width (bits): 4096
        Peak Memory Bandwidth (GB/s): 732.16

     celldm(1)=  15.355914  celldm(2)=   0.000000  celldm(3)=   0.000000
     celldm(4)=   0.000000  celldm(5)=   0.000000  celldm(6)=   0.000000

     crystal axes: (cart. coord. in units of alat)
               a(1) = (   1.000000   0.000000   0.000000 )  
               a(2) = (   0.000000   1.816023   0.000000 )  
               a(3) = (  -0.500712   0.000000   1.336828 )  

     reciprocal axes: (cart. coord. in units 2 pi/alat)
               b(1) = (  1.000000 -0.000000  0.374552 )  
               b(2) = (  0.000000  0.550654 -0.000000 )  
               b(3) = (  0.000000  0.000000  0.748039 )  


     PseudoPot. # 1 for C  read from file:
     ./pseudo/C.pbesol-n-kjpaw_psl.1.0.0.UPF
     MD5 check sum: 5f3a56537b2bcef3348431d8311bb923
     Pseudo is Projector augmented-wave + core cor, Zval =  4.0
     Generated using "atomic" code by A. Dal Corso  v.6.0 svn rev. 13079
     Shape of augmentation charge: PSQ
     Using radial grid of 1073 points,  4 beta functions with: 
                l(1) =   0
                l(2) =   0
                l(3) =   1
                l(4) =   1
     Q(r) pseudized with 0 coefficients 


     PseudoPot. # 2 for N  read from file:
     ./pseudo/N.pbesol-theos.UPF
     MD5 check sum: 1b64827339d390a5a22afef3ff345c9d
     Pseudo is Ultrasoft + core correction, Zval =  5.0
     Generated using "atomic" code by A. Dal Corso  v.5.1
     Using radial grid of 1085 points,  4 beta functions with: 
                l(1) =   0
                l(2) =   0
                l(3) =   1
                l(4) =   1
     Q(r) pseudized with 0 coefficients 


     PseudoPot. # 3 for O  read from file:
     ./pseudo/O.pbesol-n-kjpaw_psl.0.1.UPF
     MD5 check sum: 81d73d1479e654e5638b0319f0d6c2c7
     Pseudo is Projector augmented-wave + core cor, Zval =  6.0
     Generated using "atomic" code by A. Dal Corso  v.6.0 svn rev. 13079
     Shape of augmentation charge: BESSEL
     Using radial grid of 1095 points,  4 beta functions with: 
                l(1) =   0
                l(2) =   0
                l(3) =   1
                l(4) =   1
     Q(r) pseudized with 0 coefficients 


     atomic species   valence    mass     pseudopotential
        C              4.00    12.01070     C ( 1.00)
        N              5.00    14.00670     N ( 1.00)
        O              6.00    15.99940     O ( 1.00)

     Starting magnetic structure 
     atomic species   magnetization
        C            0.100
        N            0.100
        O            0.100

      4 Sym. Ops., with inversion, found ( 2 have fractional translation)


                                    s                        frac. trans.

      isym =  1     identity                                     

 cryst.   s( 1) = (     1          0          0      )
                  (     0          1          0      )
                  (     0          0          1      )

 cart.    s( 1) = (  1.0000000  0.0000000 -0.0000000 )
                  (  0.0000000  1.0000000  0.0000000 )
                  (  0.0000000  0.0000000  1.0000000 )


      isym =  2     180 deg rotation - cart. axis [0,1,0]        

 cryst.   s( 2) = (    -1          0          0      )    f =(  0.0000000 )
                  (     0          1          0      )       ( -0.5000000 )
                  (     0          0         -1      )       ( -0.5000000 )

 cart.    s( 2) = ( -1.0000000  0.0000000  0.0000000 )    f =(  0.2503561 )
                  (  0.0000000  1.0000000  0.0000000 )       ( -0.9080113 )
                  (  0.0000000  0.0000000 -1.0000000 )       ( -0.6684142 )


      isym =  3     inversion                                    

 cryst.   s( 3) = (    -1          0          0      )
                  (     0         -1          0      )
                  (     0          0         -1      )

 cart.    s( 3) = ( -1.0000000  0.0000000  0.0000000 )
                  (  0.0000000 -1.0000000  0.0000000 )
                  (  0.0000000  0.0000000 -1.0000000 )


      isym =  4     inv. 180 deg rotation - cart. axis [0,1,0]   

 cryst.   s( 4) = (     1          0          0      )    f =( -0.0000000 )
                  (     0         -1          0      )       (  0.5000000 )
                  (     0          0          1      )       (  0.5000000 )

 cart.    s( 4) = (  1.0000000  0.0000000 -0.0000000 )    f =( -0.2503561 )
                  (  0.0000000 -1.0000000  0.0000000 )       (  0.9080113 )
                  (  0.0000000  0.0000000  1.0000000 )       (  0.6684142 )


   Cartesian axes

     site n.     atom                  positions (alat units)
         1           C   tau(   1) = (  -0.2017327   1.0240188   1.2816174  )
         2           C   tau(   2) = (   0.4506645   0.1160075   0.7236252  )
         3           C   tau(   3) = (   0.7010206   0.7920038   0.0552110  )
         4           C   tau(   4) = (   0.0486233   1.7000151   0.6132032  )
         5           N   tau(   5) = (  -0.3266306   1.0940265   1.1555144  )
         6           N   tau(   6) = (   0.5755623   0.1860152   0.8497282  )
         7           N   tau(   7) = (   0.8259184   0.7219961   0.1813140  )
         8           N   tau(   8) = (  -0.0762745   1.6300074   0.4871002  )
         9           O   tau(   9) = (   0.4136007   0.6423090   0.9748687  )
        10           O   tau(  10) = (  -0.1646689   1.5503204   1.0303739  )
        11           O   tau(  11) = (   0.0856872   1.1737136   0.3619597  )
        12           O   tau(  12) = (   0.6639567   0.2657023   0.3064545  )

   Crystallographic axes

     site n.     atom                  positions (cryst. coord.)
         1           C   tau(   1) = (  0.2783000  0.5638800  0.9587000  )
         2           C   tau(   2) = (  0.7217000  0.0638800  0.5413000  )
         3           C   tau(   3) = (  0.7217000  0.4361200  0.0413000  )
         4           C   tau(   4) = (  0.2783000  0.9361200  0.4587000  )
         5           N   tau(   5) = (  0.1061700  0.6024300  0.8643700  )
         6           N   tau(   6) = (  0.8938300  0.1024300  0.6356300  )
         7           N   tau(   7) = (  0.8938300  0.3975700  0.1356300  )
         8           N   tau(   8) = (  0.1061700  0.8975700  0.3643700  )
         9           O   tau(   9) = (  0.7787400  0.3536900  0.7292400  )
        10           O   tau(  10) = (  0.2212600  0.8536900  0.7707600  )
        11           O   tau(  11) = (  0.2212600  0.6463100  0.2707600  )
        12           O   tau(  12) = (  0.7787400  0.1463100  0.2292400  )

     number of k points=    28  Marzari-Vanderbilt smearing, width (Ry)=  0.0100
                       cart. coord. in units 2pi/alat
        k(    1) = (   0.0000000   0.0000000   0.0000000), wk =   0.0138889
        k(    2) = (   0.0000000   0.0000000   0.1870098), wk =   0.0277778
        k(    3) = (   0.0000000   0.0000000  -0.3740196), wk =   0.0138889
        k(    4) = (   0.0000000   0.1835513   0.0000000), wk =   0.0277778
        k(    5) = (   0.0000000   0.1835513   0.1870098), wk =   0.0555556
        k(    6) = (   0.0000000   0.1835513  -0.3740196), wk =   0.0277778
        k(    7) = (   0.1666667   0.0000000   0.0624254), wk =   0.0277778
        k(    8) = (   0.1666667   0.0000000   0.2494352), wk =   0.0277778
        k(    9) = (   0.1666667   0.0000000  -0.3115942), wk =   0.0277778
        k(   10) = (   0.1666667   0.0000000  -0.1245844), wk =   0.0277778
        k(   11) = (   0.1666667   0.1835513   0.0624254), wk =   0.0555556
        k(   12) = (   0.1666667   0.1835513   0.2494352), wk =   0.0555556
        k(   13) = (   0.1666667   0.1835513  -0.3115942), wk =   0.0555556
        k(   14) = (   0.1666667   0.1835513  -0.1245844), wk =   0.0555556
        k(   15) = (   0.3333333   0.0000000   0.1248508), wk =   0.0277778
        k(   16) = (   0.3333333   0.0000000   0.3118606), wk =   0.0277778
        k(   17) = (   0.3333333   0.0000000  -0.2491688), wk =   0.0277778
        k(   18) = (   0.3333333   0.0000000  -0.0621590), wk =   0.0277778
        k(   19) = (   0.3333333   0.1835513   0.1248508), wk =   0.0555556
        k(   20) = (   0.3333333   0.1835513   0.3118606), wk =   0.0555556
        k(   21) = (   0.3333333   0.1835513  -0.2491688), wk =   0.0555556
        k(   22) = (   0.3333333   0.1835513  -0.0621590), wk =   0.0555556
        k(   23) = (  -0.5000000   0.0000000  -0.1872761), wk =   0.0138889
        k(   24) = (  -0.5000000   0.0000000  -0.0002664), wk =   0.0277778
        k(   25) = (  -0.5000000   0.0000000  -0.5612957), wk =   0.0138889
        k(   26) = (  -0.5000000   0.1835513  -0.1872761), wk =   0.0277778
        k(   27) = (  -0.5000000   0.1835513  -0.0002664), wk =   0.0555556
        k(   28) = (  -0.5000000   0.1835513  -0.5612957), wk =   0.0277778

                       cryst. coord.
        k(    1) = (   0.0000000   0.0000000   0.0000000), wk =   0.0138889
        k(    2) = (   0.0000000   0.0000000   0.2500000), wk =   0.0277778
        k(    3) = (   0.0000000   0.0000000  -0.5000000), wk =   0.0138889
        k(    4) = (   0.0000000   0.3333333   0.0000000), wk =   0.0277778
        k(    5) = (   0.0000000   0.3333333   0.2500000), wk =   0.0555556
        k(    6) = (   0.0000000   0.3333333  -0.5000000), wk =   0.0277778
        k(    7) = (   0.1666667   0.0000000   0.0000000), wk =   0.0277778
        k(    8) = (   0.1666667   0.0000000   0.2500000), wk =   0.0277778
        k(    9) = (   0.1666667   0.0000000  -0.5000000), wk =   0.0277778
        k(   10) = (   0.1666667   0.0000000  -0.2500000), wk =   0.0277778
        k(   11) = (   0.1666667   0.3333333   0.0000000), wk =   0.0555556
        k(   12) = (   0.1666667   0.3333333   0.2500000), wk =   0.0555556
        k(   13) = (   0.1666667   0.3333333  -0.5000000), wk =   0.0555556
        k(   14) = (   0.1666667   0.3333333  -0.2500000), wk =   0.0555556
        k(   15) = (   0.3333333   0.0000000   0.0000000), wk =   0.0277778
        k(   16) = (   0.3333333   0.0000000   0.2500000), wk =   0.0277778
        k(   17) = (   0.3333333   0.0000000  -0.5000000), wk =   0.0277778
        k(   18) = (   0.3333333   0.0000000  -0.2500000), wk =   0.0277778
        k(   19) = (   0.3333333   0.3333333   0.0000000), wk =   0.0555556
        k(   20) = (   0.3333333   0.3333333   0.2500000), wk =   0.0555556
        k(   21) = (   0.3333333   0.3333333  -0.5000000), wk =   0.0555556
        k(   22) = (   0.3333333   0.3333333  -0.2500000), wk =   0.0555556
        k(   23) = (  -0.5000000   0.0000000   0.0000000), wk =   0.0138889
        k(   24) = (  -0.5000000   0.0000000   0.2500000), wk =   0.0277778
        k(   25) = (  -0.5000000   0.0000000  -0.5000000), wk =   0.0138889
        k(   26) = (  -0.5000000   0.3333333   0.0000000), wk =   0.0277778
        k(   27) = (  -0.5000000   0.3333333   0.2500000), wk =   0.0555556
        k(   28) = (  -0.5000000   0.3333333  -0.5000000), wk =   0.0277778

     Dense  grid:  1561159 G-vectors     FFT dimensions: ( 108, 200, 160)

     Smooth grid:   551889 G-vectors     FFT dimensions: (  75, 144, 120)

     Dynamical RAM for                 wfc:      37.90 MB

     Dynamical RAM for     wfc (w. buffer):    2160.21 MB

     Dynamical RAM for           str. fact:      71.46 MB

     Dynamical RAM for           local pot:       0.00 MB

     Dynamical RAM for          nlocal pot:     101.06 MB

     Dynamical RAM for                qrad:       1.51 MB

     Dynamical RAM for          rho,v,vnew:     301.13 MB

     Dynamical RAM for               rhoin:     100.38 MB

     Dynamical RAM for            rho*nmix:     762.28 MB

     Dynamical RAM for           G-vectors:      93.54 MB

     Dynamical RAM for          h,s,v(r/c):       0.24 MB

     Dynamical RAM for          <psi|beta>:       0.05 MB

     Dynamical RAM for                 psi:      75.80 MB

     Dynamical RAM for                hpsi:      75.80 MB

     Dynamical RAM for                spsi:      75.80 MB

     Dynamical RAM for      wfcinit/wfcrot:     101.12 MB

     Dynamical RAM for           addusdens:    1143.43 MB

     Dynamical RAM for          addusforce:    1286.36 MB

     Dynamical RAM for         addusstress:    1226.80 MB

     Estimated static dynamical RAM per process >       3.01 GB

     Estimated max dynamical RAM per process >       5.01 GB
     Generating pointlists ...
     new r_m :   0.0787 (alat units)  1.2086 (a.u.) for type    1
     new r_m :   0.0787 (alat units)  1.2086 (a.u.) for type    2
     new r_m :   0.2029 (alat units)  3.1156 (a.u.) for type    3

     Initial potential from superposition of free atoms

     starting charge      59.9998, renormalised to      60.0000

     negative rho (up, down):  1.054E-05 8.620E-06
     Starting wfcs are   48 randomized atomic wfcs
     Checking if some PAW data can be deallocated... 

     total cpu time spent up to now is       23.2 secs

     Self-consistent Calculation
[tb_dev] Currently allocated     4.10E+01 Mbytes, locked:    0 /  16
[tb_pin] Currently allocated     0.00E+00 Mbytes, locked:    0 /   0

     iteration #  1     ecut=    60.00 Ry     beta= 0.40
     Davidson diagonalization with overlap

---- Real-time Memory Report at c_bands before calling an iterative solver
          4052 MiB given to the printing process from OS
          -339 MiB allocation reported by mallinfo(arena+hblkhd)
         55128 MiB available memory on the node where the printing process lives
     GPU memory used/free/total (MiB): 4052 / 12228 / 16280
------------------
     ethr =  1.00E-02,  avg # of iterations =  2.0

     negative rho (up, down):  3.130E-05 2.093E-06

     total cpu time spent up to now is       34.7 secs

     total energy              =    -313.35680146 Ry
     estimated scf accuracy    <       0.71142117 Ry

     total magnetization       =    12.00 Bohr mag/cell
     absolute magnetization    =    12.01 Bohr mag/cell
[tb_dev] Currently allocated     4.10E+01 Mbytes, locked:    0 /  14
[tb_pin] Currently allocated     0.00E+00 Mbytes, locked:    0 /   0

     iteration #  2     ecut=    60.00 Ry     beta= 0.40
     Davidson diagonalization with overlap

---- Real-time Memory Report at c_bands before calling an iterative solver
          4574 MiB given to the printing process from OS
            12 MiB allocation reported by mallinfo(arena+hblkhd)
         54770 MiB available memory on the node where the printing process lives
     GPU memory used/free/total (MiB): 5522 / 10758 / 16280
------------------
     ethr =  1.19E-03,  avg # of iterations =  6.3

     negative rho (up, down):  6.718E-05 1.449E-04

     total cpu time spent up to now is       50.8 secs

     total energy              =    -313.29767423 Ry
     estimated scf accuracy    <       3.72311492 Ry

     total magnetization       =    12.00 Bohr mag/cell
     absolute magnetization    =    12.82 Bohr mag/cell
[tb_dev] Currently allocated     4.10E+01 Mbytes, locked:    0 /  14
[tb_pin] Currently allocated     0.00E+00 Mbytes, locked:    0 /   0

     iteration #  3     ecut=    60.00 Ry     beta= 0.40
     Davidson diagonalization with overlap

---- Real-time Memory Report at c_bands before calling an iterative solver
          4793 MiB given to the printing process from OS
            77 MiB allocation reported by mallinfo(arena+hblkhd)
         54701 MiB available memory on the node where the printing process lives
     GPU memory used/free/total (MiB): 7336 / 8944 / 16280
------------------
     ethr =  1.19E-03,  avg # of iterations =  1.0

     negative rho (up, down):  1.130E-04 7.238E-05

     total cpu time spent up to now is       61.0 secs

     total energy              =    -313.09206222 Ry
     estimated scf accuracy    <      15.11937189 Ry

     total magnetization       =    11.88 Bohr mag/cell
     absolute magnetization    =    12.52 Bohr mag/cell
[tb_dev] Currently allocated     4.10E+01 Mbytes, locked:    0 /  14
[tb_pin] Currently allocated     0.00E+00 Mbytes, locked:    0 /   0

     iteration #  4     ecut=    60.00 Ry     beta= 0.40
     Davidson diagonalization with overlap

---- Real-time Memory Report at c_bands before calling an iterative solver
          4959 MiB given to the printing process from OS
           125 MiB allocation reported by mallinfo(arena+hblkhd)
         54651 MiB available memory on the node where the printing process lives
     GPU memory used/free/total (MiB): 7336 / 8944 / 16280
------------------
     ethr =  1.19E-03,  avg # of iterations =  4.2
     Minimization algorithm failed to find Fermi energy: reverting to bisection
     Possible cause: smearing is larger than the electronic band-gap.

     negative rho (up, down):  1.251E-04 5.897E-06

     total cpu time spent up to now is       73.6 secs

     total energy              =    -313.66471181 Ry
     estimated scf accuracy    <       3.36566095 Ry

     total magnetization       =    12.00 Bohr mag/cell
     absolute magnetization    =    12.59 Bohr mag/cell
[tb_dev] Currently allocated     4.10E+01 Mbytes, locked:    0 /  14
[tb_pin] Currently allocated     0.00E+00 Mbytes, locked:    0 /   0

     iteration #  5     ecut=    60.00 Ry     beta= 0.40
     Davidson diagonalization with overlap

---- Real-time Memory Report at c_bands before calling an iterative solver
          5077 MiB given to the printing process from OS
           174 MiB allocation reported by mallinfo(arena+hblkhd)
         54603 MiB available memory on the node where the printing process lives
     GPU memory used/free/total (MiB): 7336 / 8944 / 16280
------------------
     ethr =  1.19E-03,  avg # of iterations =  1.4
     Minimization algorithm failed to find Fermi energy: reverting to bisection
     Possible cause: smearing is larger than the electronic band-gap.

     negative rho (up, down):  1.493E-04 1.169E-04

     total cpu time spent up to now is       84.1 secs

     total energy              =    -313.58764639 Ry
     estimated scf accuracy    <       2.87193269 Ry

     total magnetization       =    12.00 Bohr mag/cell
     absolute magnetization    =    12.52 Bohr mag/cell
[tb_dev] Currently allocated     4.10E+01 Mbytes, locked:    0 /  14
[tb_pin] Currently allocated     0.00E+00 Mbytes, locked:    0 /   0

     iteration #  6     ecut=    60.00 Ry     beta= 0.40
     Davidson diagonalization with overlap

---- Real-time Memory Report at c_bands before calling an iterative solver
          5180 MiB given to the printing process from OS
           222 MiB allocation reported by mallinfo(arena+hblkhd)
         54555 MiB available memory on the node where the printing process lives
     GPU memory used/free/total (MiB): 7336 / 8944 / 16280
------------------
     ethr =  1.19E-03,  avg # of iterations =  1.0

     negative rho (up, down):  1.799E-04 5.792E-06

     total cpu time spent up to now is       94.4 secs

     total energy              =    -313.62488337 Ry
     estimated scf accuracy    <       0.31432947 Ry

     total magnetization       =    12.00 Bohr mag/cell
     absolute magnetization    =    12.03 Bohr mag/cell
[tb_dev] Currently allocated     4.10E+01 Mbytes, locked:    0 /  14
[tb_pin] Currently allocated     0.00E+00 Mbytes, locked:    0 /   0

     iteration #  7     ecut=    60.00 Ry     beta= 0.40
     Davidson diagonalization with overlap

---- Real-time Memory Report at c_bands before calling an iterative solver
          5300 MiB given to the printing process from OS
           287 MiB allocation reported by mallinfo(arena+hblkhd)
         54486 MiB available memory on the node where the printing process lives
     GPU memory used/free/total (MiB): 7336 / 8944 / 16280
------------------
     ethr =  5.24E-04,  avg # of iterations =  1.3

     negative rho (up, down):  1.823E-04 8.163E-05

     total cpu time spent up to now is      104.8 secs

     total energy              =    -313.65060910 Ry
     estimated scf accuracy    <       1.66069617 Ry

     total magnetization       =    12.00 Bohr mag/cell
     absolute magnetization    =    12.25 Bohr mag/cell
[tb_dev] Currently allocated     4.10E+01 Mbytes, locked:    0 /  14
[tb_pin] Currently allocated     0.00E+00 Mbytes, locked:    0 /   0

     iteration #  8     ecut=    60.00 Ry     beta= 0.40
     Davidson diagonalization with overlap

---- Real-time Memory Report at c_bands before calling an iterative solver
          5379 MiB given to the printing process from OS
           353 MiB allocation reported by mallinfo(arena+hblkhd)
         54422 MiB available memory on the node where the printing process lives
     GPU memory used/free/total (MiB): 7336 / 8944 / 16280
------------------
     ethr =  5.24E-04,  avg # of iterations =  1.0

     negative rho (up, down):  1.855E-04 1.349E-04

     total cpu time spent up to now is      115.2 secs

     total energy              =    -313.65654415 Ry
     estimated scf accuracy    <       0.66859518 Ry

     total magnetization       =    12.00 Bohr mag/cell
     absolute magnetization    =    12.07 Bohr mag/cell
[tb_dev] Currently allocated     4.10E+01 Mbytes, locked:    0 /  14
[tb_pin] Currently allocated     0.00E+00 Mbytes, locked:    0 /   0

     iteration #  9     ecut=    60.00 Ry     beta= 0.40
     Davidson diagonalization with overlap

---- Real-time Memory Report at c_bands before calling an iterative solver
          5423 MiB given to the printing process from OS
           410 MiB allocation reported by mallinfo(arena+hblkhd)
         54393 MiB available memory on the node where the printing process lives
     GPU memory used/free/total (MiB): 7336 / 8944 / 16280
------------------
     ethr =  5.24E-04,  avg # of iterations =  1.0

     negative rho (up, down):  1.875E-04 1.792E-04

     total cpu time spent up to now is      125.6 secs

     total energy              =    -313.64208137 Ry
     estimated scf accuracy    <       0.68797946 Ry

     total magnetization       =    12.00 Bohr mag/cell
     absolute magnetization    =    12.08 Bohr mag/cell
[tb_dev] Currently allocated     4.10E+01 Mbytes, locked:    0 /  14
[tb_pin] Currently allocated     0.00E+00 Mbytes, locked:    0 /   0

     iteration # 10     ecut=    60.00 Ry     beta= 0.40
     Davidson diagonalization with overlap

---- Real-time Memory Report at c_bands before calling an iterative solver
          5471 MiB given to the printing process from OS
           459 MiB allocation reported by mallinfo(arena+hblkhd)
         54346 MiB available memory on the node where the printing process lives
     GPU memory used/free/total (MiB): 7336 / 8944 / 16280
------------------
     ethr =  5.24E-04,  avg # of iterations =  1.0

     negative rho (up, down):  1.852E-04 9.086E-05

     total cpu time spent up to now is      135.9 secs

     total energy              =    -313.63759860 Ry
     estimated scf accuracy    <       0.10608978 Ry

     total magnetization       =    12.00 Bohr mag/cell
     absolute magnetization    =    12.04 Bohr mag/cell
[tb_dev] Currently allocated     4.10E+01 Mbytes, locked:    0 /  14
[tb_pin] Currently allocated     0.00E+00 Mbytes, locked:    0 /   0

     iteration # 11     ecut=    60.00 Ry     beta= 0.40
     Davidson diagonalization with overlap

---- Real-time Memory Report at c_bands before calling an iterative solver
          5519 MiB given to the printing process from OS
           473 MiB allocation reported by mallinfo(arena+hblkhd)
         54302 MiB available memory on the node where the printing process lives
     GPU memory used/free/total (MiB): 7336 / 8944 / 16280
------------------
     ethr =  1.77E-04,  avg # of iterations =  1.0

     negative rho (up, down):  1.885E-04 4.585E-06

     total cpu time spent up to now is      146.3 secs

     total energy              =    -313.62786306 Ry
     estimated scf accuracy    <       1.52960993 Ry

     total magnetization       =    12.00 Bohr mag/cell
     absolute magnetization    =    12.05 Bohr mag/cell
[tb_dev] Currently allocated     4.10E+01 Mbytes, locked:    0 /  14
[tb_pin] Currently allocated     0.00E+00 Mbytes, locked:    0 /   0

     iteration # 12     ecut=    60.00 Ry     beta= 0.40
     Davidson diagonalization with overlap

---- Real-time Memory Report at c_bands before calling an iterative solver
          5526 MiB given to the printing process from OS
           488 MiB allocation reported by mallinfo(arena+hblkhd)
         54289 MiB available memory on the node where the printing process lives
     GPU memory used/free/total (MiB): 7336 / 8944 / 16280
------------------
     ethr =  1.77E-04,  avg # of iterations =  1.0

     negative rho (up, down):  1.919E-04 8.239E-06

     total cpu time spent up to now is      156.7 secs

     total energy              =    -313.65127056 Ry
     estimated scf accuracy    <       0.13259396 Ry

     total magnetization       =    12.00 Bohr mag/cell
     absolute magnetization    =    12.05 Bohr mag/cell
[tb_dev] Currently allocated     4.10E+01 Mbytes, locked:    0 /  14
[tb_pin] Currently allocated     0.00E+00 Mbytes, locked:    0 /   0

     iteration # 13     ecut=    60.00 Ry     beta= 0.40
     Davidson diagonalization with overlap

---- Real-time Memory Report at c_bands before calling an iterative solver
          5540 MiB given to the printing process from OS
           502 MiB allocation reported by mallinfo(arena+hblkhd)
         54276 MiB available memory on the node where the printing process lives
     GPU memory used/free/total (MiB): 7336 / 8944 / 16280
------------------
     ethr =  1.77E-04,  avg # of iterations =  1.0

     negative rho (up, down):  1.922E-04 2.746E-05

     total cpu time spent up to now is      167.1 secs

     total energy              =    -313.65478204 Ry
     estimated scf accuracy    <       0.20992093 Ry

     total magnetization       =    12.00 Bohr mag/cell
     absolute magnetization    =    12.06 Bohr mag/cell
[tb_dev] Currently allocated     4.10E+01 Mbytes, locked:    0 /  14
[tb_pin] Currently allocated     0.00E+00 Mbytes, locked:    0 /   0

     iteration # 14     ecut=    60.00 Ry     beta= 0.40
     Davidson diagonalization with overlap

---- Real-time Memory Report at c_bands before calling an iterative solver
          5563 MiB given to the printing process from OS
           517 MiB allocation reported by mallinfo(arena+hblkhd)
         54261 MiB available memory on the node where the printing process lives
     GPU memory used/free/total (MiB): 7336 / 8944 / 16280
------------------
     ethr =  1.77E-04,  avg # of iterations =  1.0

     negative rho (up, down):  1.936E-04 6.338E-05

     total cpu time spent up to now is      177.5 secs

     total energy              =    -313.65337333 Ry
     estimated scf accuracy    <       0.47332043 Ry

     total magnetization       =    12.00 Bohr mag/cell
     absolute magnetization    =    12.07 Bohr mag/cell
[tb_dev] Currently allocated     4.10E+01 Mbytes, locked:    0 /  14
[tb_pin] Currently allocated     0.00E+00 Mbytes, locked:    0 /   0

     iteration # 15     ecut=    60.00 Ry     beta= 0.40
     Davidson diagonalization with overlap

---- Real-time Memory Report at c_bands before calling an iterative solver
          5571 MiB given to the printing process from OS
           532 MiB allocation reported by mallinfo(arena+hblkhd)
         54244 MiB available memory on the node where the printing process lives
     GPU memory used/free/total (MiB): 7336 / 8944 / 16280
------------------
     ethr =  1.77E-04,  avg # of iterations =  1.0

     negative rho (up, down):  1.900E-04 9.577E-05

     total cpu time spent up to now is      187.8 secs

     total energy              =    -313.65311885 Ry
     estimated scf accuracy    <       0.29130709 Ry

     total magnetization       =    12.00 Bohr mag/cell
     absolute magnetization    =    12.06 Bohr mag/cell
[tb_dev] Currently allocated     4.10E+01 Mbytes, locked:    0 /  14
[tb_pin] Currently allocated     0.00E+00 Mbytes, locked:    0 /   0

     iteration # 16     ecut=    60.00 Ry     beta= 0.40
     Davidson diagonalization with overlap

---- Real-time Memory Report at c_bands before calling an iterative solver
          5585 MiB given to the printing process from OS
           546 MiB allocation reported by mallinfo(arena+hblkhd)
         54233 MiB available memory on the node where the printing process lives
     GPU memory used/free/total (MiB): 7336 / 8944 / 16280
------------------
     ethr =  1.77E-04,  avg # of iterations =  1.0

     negative rho (up, down):  1.917E-04 8.109E-05

     total cpu time spent up to now is      198.2 secs

     total energy              =    -313.65204234 Ry
     estimated scf accuracy    <       0.37059896 Ry

     total magnetization       =    12.00 Bohr mag/cell
     absolute magnetization    =    12.07 Bohr mag/cell
[tb_dev] Currently allocated     4.10E+01 Mbytes, locked:    0 /  14
[tb_pin] Currently allocated     0.00E+00 Mbytes, locked:    0 /   0

     iteration # 17     ecut=    60.00 Ry     beta= 0.40
     Davidson diagonalization with overlap

---- Real-time Memory Report at c_bands before calling an iterative solver
          5607 MiB given to the printing process from OS
           561 MiB allocation reported by mallinfo(arena+hblkhd)
         54217 MiB available memory on the node where the printing process lives
     GPU memory used/free/total (MiB): 7336 / 8944 / 16280
------------------
     ethr =  1.77E-04,  avg # of iterations =  1.0

     negative rho (up, down):  1.905E-04 9.462E-05

     total cpu time spent up to now is      208.6 secs

     total energy              =    -313.65014063 Ry
     estimated scf accuracy    <       0.14164651 Ry

     total magnetization       =    12.00 Bohr mag/cell
     absolute magnetization    =    12.06 Bohr mag/cell
[tb_dev] Currently allocated     4.10E+01 Mbytes, locked:    0 /  14
[tb_pin] Currently allocated     0.00E+00 Mbytes, locked:    0 /   0

     iteration # 18     ecut=    60.00 Ry     beta= 0.40
     Davidson diagonalization with overlap

---- Real-time Memory Report at c_bands before calling an iterative solver
          5614 MiB given to the printing process from OS
           576 MiB allocation reported by mallinfo(arena+hblkhd)
         54199 MiB available memory on the node where the printing process lives
     GPU memory used/free/total (MiB): 7336 / 8944 / 16280
------------------
     ethr =  1.77E-04,  avg # of iterations =  1.0

     negative rho (up, down):  1.917E-04 8.978E-05

     total cpu time spent up to now is      218.9 secs

     total energy              =    -313.64906195 Ry
     estimated scf accuracy    <       0.12916008 Ry

     total magnetization       =    12.00 Bohr mag/cell
     absolute magnetization    =    12.05 Bohr mag/cell
[tb_dev] Currently allocated     4.10E+01 Mbytes, locked:    0 /  14
[tb_pin] Currently allocated     0.00E+00 Mbytes, locked:    0 /   0

     iteration # 19     ecut=    60.00 Ry     beta= 0.40
     Davidson diagonalization with overlap

---- Real-time Memory Report at c_bands before calling an iterative solver
          5628 MiB given to the printing process from OS
           590 MiB allocation reported by mallinfo(arena+hblkhd)
         54190 MiB available memory on the node where the printing process lives
     GPU memory used/free/total (MiB): 7336 / 8944 / 16280
------------------
     ethr =  1.77E-04,  avg # of iterations =  1.0

     negative rho (up, down):  1.923E-04 5.461E-05

     total cpu time spent up to now is      229.3 secs

     total energy              =    -313.64771972 Ry
     estimated scf accuracy    <       0.06157239 Ry

     total magnetization       =    12.00 Bohr mag/cell
     absolute magnetization    =    12.05 Bohr mag/cell
[tb_dev] Currently allocated     4.10E+01 Mbytes, locked:    0 /  14
[tb_pin] Currently allocated     0.00E+00 Mbytes, locked:    0 /   0

     iteration # 20     ecut=    60.00 Ry     beta= 0.40
     Davidson diagonalization with overlap

---- Real-time Memory Report at c_bands before calling an iterative solver
          5643 MiB given to the printing process from OS
           605 MiB allocation reported by mallinfo(arena+hblkhd)
         54172 MiB available memory on the node where the printing process lives
     GPU memory used/free/total (MiB): 7336 / 8944 / 16280
------------------
     ethr =  1.03E-04,  avg # of iterations =  1.0

     negative rho (up, down):  1.938E-04 2.376E-05

     total cpu time spent up to now is      239.6 secs

     total energy              =    -313.64822418 Ry
     estimated scf accuracy    <       0.00393304 Ry

     total magnetization       =    12.00 Bohr mag/cell
     absolute magnetization    =    12.04 Bohr mag/cell
[tb_dev] Currently allocated     4.10E+01 Mbytes, locked:    0 /  14
[tb_pin] Currently allocated     0.00E+00 Mbytes, locked:    0 /   0

     iteration # 21     ecut=    60.00 Ry     beta= 0.40
     Davidson diagonalization with overlap

---- Real-time Memory Report at c_bands before calling an iterative solver
          5658 MiB given to the printing process from OS
           619 MiB allocation reported by mallinfo(arena+hblkhd)
         54156 MiB available memory on the node where the printing process lives
     GPU memory used/free/total (MiB): 7336 / 8944 / 16280
------------------
     ethr =  6.56E-06,  avg # of iterations =  3.7

     negative rho (up, down):  1.948E-04 4.886E-06

     total cpu time spent up to now is      253.8 secs

     total energy              =    -313.64997684 Ry
     estimated scf accuracy    <       0.01415471 Ry

     total magnetization       =    12.00 Bohr mag/cell
     absolute magnetization    =    12.04 Bohr mag/cell
[tb_dev] Currently allocated     4.10E+01 Mbytes, locked:    0 /  14
[tb_pin] Currently allocated     0.00E+00 Mbytes, locked:    0 /   0

     iteration # 22     ecut=    60.00 Ry     beta= 0.40
     Davidson diagonalization with overlap

---- Real-time Memory Report at c_bands before calling an iterative solver
          5680 MiB given to the printing process from OS
           634 MiB allocation reported by mallinfo(arena+hblkhd)
         54145 MiB available memory on the node where the printing process lives
     GPU memory used/free/total (MiB): 7514 / 8766 / 16280
------------------
     ethr =  6.56E-06,  avg # of iterations =  1.0

     negative rho (up, down):  1.952E-04 1.843E-06

     total cpu time spent up to now is      264.1 secs

     total energy              =    -313.65026253 Ry
     estimated scf accuracy    <       0.02098273 Ry

     total magnetization       =    12.00 Bohr mag/cell
     absolute magnetization    =    12.04 Bohr mag/cell
[tb_dev] Currently allocated     4.10E+01 Mbytes, locked:    0 /  14
[tb_pin] Currently allocated     0.00E+00 Mbytes, locked:    0 /   0

     iteration # 23     ecut=    60.00 Ry     beta= 0.40
     Davidson diagonalization with overlap

---- Real-time Memory Report at c_bands before calling an iterative solver
          5688 MiB given to the printing process from OS
           649 MiB allocation reported by mallinfo(arena+hblkhd)
         54130 MiB available memory on the node where the printing process lives
     GPU memory used/free/total (MiB): 7514 / 8766 / 16280
------------------
     ethr =  6.56E-06,  avg # of iterations =  1.0

     negative rho (up, down):  1.968E-04 2.415E-06

     total cpu time spent up to now is      274.5 secs

     total energy              =    -313.65010787 Ry
     estimated scf accuracy    <       0.01566406 Ry

     total magnetization       =    12.00 Bohr mag/cell
     absolute magnetization    =    12.04 Bohr mag/cell
[tb_dev] Currently allocated     4.10E+01 Mbytes, locked:    0 /  14
[tb_pin] Currently allocated     0.00E+00 Mbytes, locked:    0 /   0

     iteration # 24     ecut=    60.00 Ry     beta= 0.40
     Davidson diagonalization with overlap

---- Real-time Memory Report at c_bands before calling an iterative solver
          5702 MiB given to the printing process from OS
           663 MiB allocation reported by mallinfo(arena+hblkhd)
         54113 MiB available memory on the node where the printing process lives
     GPU memory used/free/total (MiB): 7514 / 8766 / 16280
------------------
     ethr =  6.56E-06,  avg # of iterations =  1.8

     negative rho (up, down):  1.973E-04 2.205E-06

     total cpu time spent up to now is      285.3 secs

     total energy              =    -313.65088521 Ry
     estimated scf accuracy    <       0.01430729 Ry

     total magnetization       =    12.00 Bohr mag/cell
     absolute magnetization    =    12.04 Bohr mag/cell
[tb_dev] Currently allocated     4.10E+01 Mbytes, locked:    0 /  14
[tb_pin] Currently allocated     0.00E+00 Mbytes, locked:    0 /   0

     iteration # 25     ecut=    60.00 Ry     beta= 0.40
     Davidson diagonalization with overlap

---- Real-time Memory Report at c_bands before calling an iterative solver
          5723 MiB given to the printing process from OS
           678 MiB allocation reported by mallinfo(arena+hblkhd)
         54102 MiB available memory on the node where the printing process lives
     GPU memory used/free/total (MiB): 7514 / 8766 / 16280
------------------
     ethr =  6.56E-06,  avg # of iterations =  3.0

     negative rho (up, down):  1.967E-04 2.132E-06

     total cpu time spent up to now is      297.6 secs

     total energy              =    -313.65124133 Ry
     estimated scf accuracy    <       0.02242746 Ry

     total magnetization       =    12.00 Bohr mag/cell
     absolute magnetization    =    12.05 Bohr mag/cell
[tb_dev] Currently allocated     4.10E+01 Mbytes, locked:    0 /  14
[tb_pin] Currently allocated     0.00E+00 Mbytes, locked:    0 /   0

     iteration # 26     ecut=    60.00 Ry     beta= 0.40
     Davidson diagonalization with overlap

---- Real-time Memory Report at c_bands before calling an iterative solver
          5731 MiB given to the printing process from OS
           692 MiB allocation reported by mallinfo(arena+hblkhd)
         54084 MiB available memory on the node where the printing process lives
     GPU memory used/free/total (MiB): 7514 / 8766 / 16280
------------------
     ethr =  6.56E-06,  avg # of iterations =  1.0

     negative rho (up, down):  1.964E-04 2.519E-06

     total cpu time spent up to now is      308.0 secs

     total energy              =    -313.65078603 Ry
     estimated scf accuracy    <       0.01193475 Ry

     total magnetization       =    12.00 Bohr mag/cell
     absolute magnetization    =    12.05 Bohr mag/cell
[tb_dev] Currently allocated     4.10E+01 Mbytes, locked:    0 /  14
[tb_pin] Currently allocated     0.00E+00 Mbytes, locked:    0 /   0

     iteration # 27     ecut=    60.00 Ry     beta= 0.40
     Davidson diagonalization with overlap

---- Real-time Memory Report at c_bands before calling an iterative solver
          5746 MiB given to the printing process from OS
           707 MiB allocation reported by mallinfo(arena+hblkhd)
         54070 MiB available memory on the node where the printing process lives
     GPU memory used/free/total (MiB): 7514 / 8766 / 16280
------------------
     ethr =  6.56E-06,  avg # of iterations =  1.5

     negative rho (up, down):  1.969E-04 3.262E-06

     total cpu time spent up to now is      318.7 secs

     total energy              =    -313.65117593 Ry
     estimated scf accuracy    <       0.01635469 Ry

     total magnetization       =    12.00 Bohr mag/cell
     absolute magnetization    =    12.05 Bohr mag/cell
[tb_dev] Currently allocated     4.10E+01 Mbytes, locked:    0 /  14
[tb_pin] Currently allocated     0.00E+00 Mbytes, locked:    0 /   0

     iteration # 28     ecut=    60.00 Ry     beta= 0.40
     Davidson diagonalization with overlap

---- Real-time Memory Report at c_bands before calling an iterative solver
          5768 MiB given to the printing process from OS
           722 MiB allocation reported by mallinfo(arena+hblkhd)
         54034 MiB available memory on the node where the printing process lives
     GPU memory used/free/total (MiB): 7514 / 8766 / 16280
------------------
     ethr =  6.56E-06,  avg # of iterations =  1.0

     negative rho (up, down):  1.963E-04 2.949E-06

     total cpu time spent up to now is      329.1 secs

     total energy              =    -313.64902626 Ry
     estimated scf accuracy    <       0.01338399 Ry

     total magnetization       =    12.00 Bohr mag/cell
     absolute magnetization    =    12.05 Bohr mag/cell
[tb_dev] Currently allocated     4.10E+01 Mbytes, locked:    0 /  14
[tb_pin] Currently allocated     0.00E+00 Mbytes, locked:    0 /   0

     iteration # 29     ecut=    60.00 Ry     beta= 0.40
     Davidson diagonalization with overlap

---- Real-time Memory Report at c_bands before calling an iterative solver
          5782 MiB given to the printing process from OS
           736 MiB allocation reported by mallinfo(arena+hblkhd)
         54028 MiB available memory on the node where the printing process lives
     GPU memory used/free/total (MiB): 7514 / 8766 / 16280
------------------
     ethr =  6.56E-06,  avg # of iterations =  2.0

     negative rho (up, down):  1.965E-04 1.915E-06

     total cpu time spent up to now is      340.5 secs

     total energy              =    -313.65030666 Ry
     estimated scf accuracy    <       0.00812496 Ry

     total magnetization       =    12.00 Bohr mag/cell
     absolute magnetization    =    12.05 Bohr mag/cell
[tb_dev] Currently allocated     4.10E+01 Mbytes, locked:    0 /  14
[tb_pin] Currently allocated     0.00E+00 Mbytes, locked:    0 /   0

     iteration # 30     ecut=    60.00 Ry     beta= 0.40
     Davidson diagonalization with overlap

---- Real-time Memory Report at c_bands before calling an iterative solver
          5797 MiB given to the printing process from OS
           751 MiB allocation reported by mallinfo(arena+hblkhd)
         54017 MiB available memory on the node where the printing process lives
     GPU memory used/free/total (MiB): 7514 / 8766 / 16280
------------------
     ethr =  6.56E-06,  avg # of iterations =  2.0

     negative rho (up, down):  1.968E-04 1.995E-06

     total cpu time spent up to now is      351.8 secs

     total energy              =    -313.65100195 Ry
     estimated scf accuracy    <       0.00248329 Ry

     total magnetization       =    12.00 Bohr mag/cell
     absolute magnetization    =    12.05 Bohr mag/cell
[tb_dev] Currently allocated     4.10E+01 Mbytes, locked:    0 /  14
[tb_pin] Currently allocated     0.00E+00 Mbytes, locked:    0 /   0

     iteration # 31     ecut=    60.00 Ry     beta= 0.40
     Davidson diagonalization with overlap

---- Real-time Memory Report at c_bands before calling an iterative solver
          5804 MiB given to the printing process from OS
           765 MiB allocation reported by mallinfo(arena+hblkhd)
         54006 MiB available memory on the node where the printing process lives
     GPU memory used/free/total (MiB): 7514 / 8766 / 16280
------------------
     ethr =  4.14E-06,  avg # of iterations =  1.0

     negative rho (up, down):  1.967E-04 1.840E-06

     total cpu time spent up to now is      362.2 secs

     total energy              =    -313.65100094 Ry
     estimated scf accuracy    <       0.00361313 Ry

     total magnetization       =    12.00 Bohr mag/cell
     absolute magnetization    =    12.05 Bohr mag/cell
[tb_dev] Currently allocated     4.10E+01 Mbytes, locked:    0 /  14
[tb_pin] Currently allocated     0.00E+00 Mbytes, locked:    0 /   0

     iteration # 32     ecut=    60.00 Ry     beta= 0.40
     Davidson diagonalization with overlap

---- Real-time Memory Report at c_bands before calling an iterative solver
          5825 MiB given to the printing process from OS
           780 MiB allocation reported by mallinfo(arena+hblkhd)
         53980 MiB available memory on the node where the printing process lives
     GPU memory used/free/total (MiB): 7514 / 8766 / 16280
------------------
     ethr =  4.14E-06,  avg # of iterations =  1.0

     negative rho (up, down):  1.964E-04 2.263E-06

     total cpu time spent up to now is      372.5 secs

     total energy              =    -313.65067345 Ry
     estimated scf accuracy    <       0.00325624 Ry

     total magnetization       =    12.00 Bohr mag/cell
     absolute magnetization    =    12.05 Bohr mag/cell
[tb_dev] Currently allocated     4.10E+01 Mbytes, locked:    0 /  14
[tb_pin] Currently allocated     0.00E+00 Mbytes, locked:    0 /   0

     iteration # 33     ecut=    60.00 Ry     beta= 0.40
     Davidson diagonalization with overlap

---- Real-time Memory Report at c_bands before calling an iterative solver
          5834 MiB given to the printing process from OS
           795 MiB allocation reported by mallinfo(arena+hblkhd)
         53970 MiB available memory on the node where the printing process lives
     GPU memory used/free/total (MiB): 7514 / 8766 / 16280
------------------
     ethr =  4.14E-06,  avg # of iterations =  1.0

     negative rho (up, down):  1.964E-04 2.522E-06

     total cpu time spent up to now is      382.9 secs

     total energy              =    -313.65077302 Ry
     estimated scf accuracy    <       0.00269431 Ry

     total magnetization       =    12.00 Bohr mag/cell
     absolute magnetization    =    12.05 Bohr mag/cell
[tb_dev] Currently allocated     4.10E+01 Mbytes, locked:    0 /  14
[tb_pin] Currently allocated     0.00E+00 Mbytes, locked:    0 /   0

     iteration # 34     ecut=    60.00 Ry     beta= 0.40
     Davidson diagonalization with overlap

---- Real-time Memory Report at c_bands before calling an iterative solver
          5855 MiB given to the printing process from OS
           809 MiB allocation reported by mallinfo(arena+hblkhd)
         53961 MiB available memory on the node where the printing process lives
     GPU memory used/free/total (MiB): 7514 / 8766 / 16280
------------------
     ethr =  4.14E-06,  avg # of iterations =  3.0

     negative rho (up, down):  1.963E-04 1.688E-06

     total cpu time spent up to now is      395.6 secs

     total energy              =    -313.65142298 Ry
     estimated scf accuracy    <       0.00484379 Ry

     total magnetization       =    12.00 Bohr mag/cell
     absolute magnetization    =    12.05 Bohr mag/cell
[tb_dev] Currently allocated     4.10E+01 Mbytes, locked:    0 /  14
[tb_pin] Currently allocated     0.00E+00 Mbytes, locked:    0 /   0

     iteration # 35     ecut=    60.00 Ry     beta= 0.40
     Davidson diagonalization with overlap

---- Real-time Memory Report at c_bands before calling an iterative solver
          5870 MiB given to the printing process from OS
           824 MiB allocation reported by mallinfo(arena+hblkhd)
         53944 MiB available memory on the node where the printing process lives
     GPU memory used/free/total (MiB): 7514 / 8766 / 16280
------------------
     ethr =  4.14E-06,  avg # of iterations =  1.0

     negative rho (up, down):  1.962E-04 1.525E-06

     total cpu time spent up to now is      406.0 secs

     total energy              =    -313.65141057 Ry
     estimated scf accuracy    <       0.00361443 Ry

     total magnetization       =    12.00 Bohr mag/cell
     absolute magnetization    =    12.06 Bohr mag/cell
[tb_dev] Currently allocated     4.10E+01 Mbytes, locked:    0 /  14
[tb_pin] Currently allocated     0.00E+00 Mbytes, locked:    0 /   0

     iteration # 36     ecut=    60.00 Ry     beta= 0.40
     Davidson diagonalization with overlap

---- Real-time Memory Report at c_bands before calling an iterative solver
          5878 MiB given to the printing process from OS
           838 MiB allocation reported by mallinfo(arena+hblkhd)
         53931 MiB available memory on the node where the printing process lives
     GPU memory used/free/total (MiB): 7514 / 8766 / 16280
------------------
     ethr =  4.14E-06,  avg # of iterations =  1.0

     negative rho (up, down):  1.961E-04 1.469E-06

     total cpu time spent up to now is      416.4 secs

     total energy              =    -313.65135691 Ry
     estimated scf accuracy    <       0.00317955 Ry

     total magnetization       =    12.00 Bohr mag/cell
     absolute magnetization    =    12.06 Bohr mag/cell
[tb_dev] Currently allocated     4.10E+01 Mbytes, locked:    0 /  14
[tb_pin] Currently allocated     0.00E+00 Mbytes, locked:    0 /   0

     iteration # 37     ecut=    60.00 Ry     beta= 0.40
     Davidson diagonalization with overlap

---- Real-time Memory Report at c_bands before calling an iterative solver
          5892 MiB given to the printing process from OS
           853 MiB allocation reported by mallinfo(arena+hblkhd)
         53919 MiB available memory on the node where the printing process lives
     GPU memory used/free/total (MiB): 7514 / 8766 / 16280
------------------
     ethr =  4.14E-06,  avg # of iterations =  1.0

     negative rho (up, down):  1.957E-04 1.473E-06

     total cpu time spent up to now is      426.7 secs

     total energy              =    -313.65163449 Ry
     estimated scf accuracy    <       0.00213961 Ry

     total magnetization       =    12.00 Bohr mag/cell
     absolute magnetization    =    12.06 Bohr mag/cell
[tb_dev] Currently allocated     4.10E+01 Mbytes, locked:    0 /  14
[tb_pin] Currently allocated     0.00E+00 Mbytes, locked:    0 /   0

     iteration # 38     ecut=    60.00 Ry     beta= 0.40
     Davidson diagonalization with overlap

---- Real-time Memory Report at c_bands before calling an iterative solver
          5913 MiB given to the printing process from OS
           868 MiB allocation reported by mallinfo(arena+hblkhd)
         53902 MiB available memory on the node where the printing process lives
     GPU memory used/free/total (MiB): 7514 / 8766 / 16280
------------------
     ethr =  3.57E-06,  avg # of iterations =  3.5

     negative rho (up, down):  1.954E-04 1.633E-06

     total cpu time spent up to now is      439.5 secs

     total energy              =    -313.65138264 Ry
     estimated scf accuracy    <       0.00513268 Ry

     total magnetization       =    12.00 Bohr mag/cell
     absolute magnetization    =    12.06 Bohr mag/cell
[tb_dev] Currently allocated     4.10E+01 Mbytes, locked:    0 /  14
[tb_pin] Currently allocated     0.00E+00 Mbytes, locked:    0 /   0

     iteration # 39     ecut=    60.00 Ry     beta= 0.40
     Davidson diagonalization with overlap

---- Real-time Memory Report at c_bands before calling an iterative solver
          5944 MiB given to the printing process from OS
           882 MiB allocation reported by mallinfo(arena+hblkhd)
         53888 MiB available memory on the node where the printing process lives
     GPU memory used/free/total (MiB): 7514 / 8766 / 16280
------------------
     ethr =  3.57E-06,  avg # of iterations =  1.0

     negative rho (up, down):  1.955E-04 1.554E-06

     total cpu time spent up to now is      449.9 secs

     total energy              =    -313.65136273 Ry
     estimated scf accuracy    <       0.00459724 Ry

     total magnetization       =    12.00 Bohr mag/cell
     absolute magnetization    =    12.06 Bohr mag/cell
[tb_dev] Currently allocated     4.10E+01 Mbytes, locked:    0 /  14
[tb_pin] Currently allocated     0.00E+00 Mbytes, locked:    0 /   0

     iteration # 40     ecut=    60.00 Ry     beta= 0.40
     Davidson diagonalization with overlap

---- Real-time Memory Report at c_bands before calling an iterative solver
          5944 MiB given to the printing process from OS
           897 MiB allocation reported by mallinfo(arena+hblkhd)
         53878 MiB available memory on the node where the printing process lives
     GPU memory used/free/total (MiB): 7514 / 8766 / 16280
------------------
     ethr =  3.57E-06,  avg # of iterations =  1.0

     negative rho (up, down):  1.958E-04 1.752E-06

     total cpu time spent up to now is      460.2 secs

     total energy              =    -313.65141106 Ry
     estimated scf accuracy    <       0.00238865 Ry

     total magnetization       =    12.00 Bohr mag/cell
     absolute magnetization    =    12.06 Bohr mag/cell
[tb_dev] Currently allocated     4.10E+01 Mbytes, locked:    0 /  14
[tb_pin] Currently allocated     0.00E+00 Mbytes, locked:    0 /   0

     iteration # 41     ecut=    60.00 Ry     beta= 0.40
     Davidson diagonalization with overlap

---- Real-time Memory Report at c_bands before calling an iterative solver
          5975 MiB given to the printing process from OS
           911 MiB allocation reported by mallinfo(arena+hblkhd)
         53861 MiB available memory on the node where the printing process lives
     GPU memory used/free/total (MiB): 7514 / 8766 / 16280
------------------
     ethr =  3.57E-06,  avg # of iterations =  1.0

     negative rho (up, down):  1.959E-04 1.554E-06

     total cpu time spent up to now is      470.6 secs

     total energy              =    -313.65196834 Ry
     estimated scf accuracy    <       0.00744792 Ry

     total magnetization       =    12.00 Bohr mag/cell
     absolute magnetization    =    12.06 Bohr mag/cell
[tb_dev] Currently allocated     4.10E+01 Mbytes, locked:    0 /  14
[tb_pin] Currently allocated     0.00E+00 Mbytes, locked:    0 /   0

     iteration # 42     ecut=    60.00 Ry     beta= 0.40
     Davidson diagonalization with overlap

---- Real-time Memory Report at c_bands before calling an iterative solver
          5989 MiB given to the printing process from OS
           926 MiB allocation reported by mallinfo(arena+hblkhd)
         53845 MiB available memory on the node where the printing process lives
     GPU memory used/free/total (MiB): 7514 / 8766 / 16280
------------------
     ethr =  3.57E-06,  avg # of iterations =  1.5

     negative rho (up, down):  1.959E-04 1.608E-06

     total cpu time spent up to now is      481.4 secs

     total energy              =    -313.65206482 Ry
     estimated scf accuracy    <       0.00402053 Ry

     total magnetization       =    12.00 Bohr mag/cell
     absolute magnetization    =    12.06 Bohr mag/cell
[tb_dev] Currently allocated     4.10E+01 Mbytes, locked:    0 /  14
[tb_pin] Currently allocated     0.00E+00 Mbytes, locked:    0 /   0

     iteration # 43     ecut=    60.00 Ry     beta= 0.40
     Davidson diagonalization with overlap

---- Real-time Memory Report at c_bands before calling an iterative solver
          6004 MiB given to the printing process from OS
           941 MiB allocation reported by mallinfo(arena+hblkhd)
         53833 MiB available memory on the node where the printing process lives
     GPU memory used/free/total (MiB): 7514 / 8766 / 16280
------------------
     ethr =  3.57E-06,  avg # of iterations =  1.0

     negative rho (up, down):  1.959E-04 1.480E-06

     total cpu time spent up to now is      491.7 secs

     total energy              =    -313.65276881 Ry
     estimated scf accuracy    <       0.00273815 Ry

     total magnetization       =    12.00 Bohr mag/cell
     absolute magnetization    =    12.07 Bohr mag/cell
[tb_dev] Currently allocated     4.10E+01 Mbytes, locked:    0 /  14
[tb_pin] Currently allocated     0.00E+00 Mbytes, locked:    0 /   0

     iteration # 44     ecut=    60.00 Ry     beta= 0.40
     Davidson diagonalization with overlap

---- Real-time Memory Report at c_bands before calling an iterative solver
          6004 MiB given to the printing process from OS
           955 MiB allocation reported by mallinfo(arena+hblkhd)
         53817 MiB available memory on the node where the printing process lives
     GPU memory used/free/total (MiB): 7514 / 8766 / 16280
------------------
     ethr =  3.57E-06,  avg # of iterations =  3.2

     negative rho (up, down):  1.957E-04 1.469E-06

     total cpu time spent up to now is      504.8 secs

     total energy              =    -313.65253953 Ry
     estimated scf accuracy    <       0.00859856 Ry

     total magnetization       =    12.00 Bohr mag/cell
     absolute magnetization    =    12.07 Bohr mag/cell
[tb_dev] Currently allocated     4.10E+01 Mbytes, locked:    0 /  14
[tb_pin] Currently allocated     0.00E+00 Mbytes, locked:    0 /   0

     iteration # 45     ecut=    60.00 Ry     beta= 0.40
     Davidson diagonalization with overlap

---- Real-time Memory Report at c_bands before calling an iterative solver
          6015 MiB given to the printing process from OS
           970 MiB allocation reported by mallinfo(arena+hblkhd)
         53802 MiB available memory on the node where the printing process lives
     GPU memory used/free/total (MiB): 7514 / 8766 / 16280
------------------
     ethr =  3.57E-06,  avg # of iterations =  1.0

     negative rho (up, down):  1.957E-04 1.529E-06

     total cpu time spent up to now is      515.3 secs

     total energy              =    -313.65294574 Ry
     estimated scf accuracy    <       0.00855968 Ry

     total magnetization       =    12.00 Bohr mag/cell
     absolute magnetization    =    12.07 Bohr mag/cell
[tb_dev] Currently allocated     4.10E+01 Mbytes, locked:    0 /  14
[tb_pin] Currently allocated     0.00E+00 Mbytes, locked:    0 /   0

     iteration # 46     ecut=    60.00 Ry     beta= 0.40
     Davidson diagonalization with overlap

---- Real-time Memory Report at c_bands before calling an iterative solver
          6047 MiB given to the printing process from OS
           984 MiB allocation reported by mallinfo(arena+hblkhd)
         53791 MiB available memory on the node where the printing process lives
     GPU memory used/free/total (MiB): 7514 / 8766 / 16280
------------------
     ethr =  3.57E-06,  avg # of iterations =  1.0

     negative rho (up, down):  1.953E-04 1.757E-06

     total cpu time spent up to now is      525.7 secs

     total energy              =    -313.65197641 Ry
     estimated scf accuracy    <       0.00858439 Ry

     total magnetization       =    12.00 Bohr mag/cell
     absolute magnetization    =    12.07 Bohr mag/cell
[tb_dev] Currently allocated     4.10E+01 Mbytes, locked:    0 /  14
[tb_pin] Currently allocated     0.00E+00 Mbytes, locked:    0 /   0

     iteration # 47     ecut=    60.00 Ry     beta= 0.40
     Davidson diagonalization with overlap

---- Real-time Memory Report at c_bands before calling an iterative solver
          6062 MiB given to the printing process from OS
           999 MiB allocation reported by mallinfo(arena+hblkhd)
         53773 MiB available memory on the node where the printing process lives
     GPU memory used/free/total (MiB): 7514 / 8766 / 16280
------------------
     ethr =  3.57E-06,  avg # of iterations =  1.6

     negative rho (up, down):  1.958E-04 2.003E-06

     total cpu time spent up to now is      536.4 secs

     total energy              =    -313.65106753 Ry
     estimated scf accuracy    <       0.00641873 Ry

     total magnetization       =    12.00 Bohr mag/cell
     absolute magnetization    =    12.07 Bohr mag/cell
[tb_dev] Currently allocated     4.10E+01 Mbytes, locked:    0 /  14
[tb_pin] Currently allocated     0.00E+00 Mbytes, locked:    0 /   0

     iteration # 48     ecut=    60.00 Ry     beta= 0.40
     Davidson diagonalization with overlap

---- Real-time Memory Report at c_bands before calling an iterative solver
          6077 MiB given to the printing process from OS
          1014 MiB allocation reported by mallinfo(arena+hblkhd)
         53758 MiB available memory on the node where the printing process lives
     GPU memory used/free/total (MiB): 7514 / 8766 / 16280
------------------
     ethr =  3.57E-06,  avg # of iterations =  5.0

     negative rho (up, down):  1.956E-04 1.767E-06

     total cpu time spent up to now is      551.3 secs

     total energy              =    -313.65193832 Ry
     estimated scf accuracy    <       0.00326746 Ry

     total magnetization       =    12.00 Bohr mag/cell
     absolute magnetization    =    12.06 Bohr mag/cell
[tb_dev] Currently allocated     4.10E+01 Mbytes, locked:    0 /  14
[tb_pin] Currently allocated     0.00E+00 Mbytes, locked:    0 /   0

     iteration # 49     ecut=    60.00 Ry     beta= 0.40
     Davidson diagonalization with overlap

---- Real-time Memory Report at c_bands before calling an iterative solver
          6092 MiB given to the printing process from OS
          1028 MiB allocation reported by mallinfo(arena+hblkhd)
         53746 MiB available memory on the node where the printing process lives
     GPU memory used/free/total (MiB): 7514 / 8766 / 16280
------------------
     ethr =  3.57E-06,  avg # of iterations =  1.0

     negative rho (up, down):  1.955E-04 1.836E-06

     total cpu time spent up to now is      561.7 secs

     total energy              =    -313.65158269 Ry
     estimated scf accuracy    <       0.00403783 Ry

     total magnetization       =    12.00 Bohr mag/cell
     absolute magnetization    =    12.07 Bohr mag/cell
[tb_dev] Currently allocated     4.10E+01 Mbytes, locked:    0 /  14
[tb_pin] Currently allocated     0.00E+00 Mbytes, locked:    0 /   0

     iteration # 50     ecut=    60.00 Ry     beta= 0.40
     Davidson diagonalization with overlap

---- Real-time Memory Report at c_bands before calling an iterative solver
          6092 MiB given to the printing process from OS
          1043 MiB allocation reported by mallinfo(arena+hblkhd)
         53730 MiB available memory on the node where the printing process lives
     GPU memory used/free/total (MiB): 7514 / 8766 / 16280
------------------
     ethr =  3.57E-06,  avg # of iterations =  1.4

     negative rho (up, down):  1.955E-04 1.519E-06

     total cpu time spent up to now is      572.3 secs

     total energy              =    -313.65201114 Ry
     estimated scf accuracy    <       0.00197552 Ry

     total magnetization       =    12.00 Bohr mag/cell
     absolute magnetization    =    12.07 Bohr mag/cell
[tb_dev] Currently allocated     4.10E+01 Mbytes, locked:    0 /  14
[tb_pin] Currently allocated     0.00E+00 Mbytes, locked:    0 /   0

     iteration # 51     ecut=    60.00 Ry     beta= 0.40
     Davidson diagonalization with overlap

---- Real-time Memory Report at c_bands before calling an iterative solver
          6120 MiB given to the printing process from OS
          1057 MiB allocation reported by mallinfo(arena+hblkhd)
         53715 MiB available memory on the node where the printing process lives
     GPU memory used/free/total (MiB): 7514 / 8766 / 16280
------------------
     ethr =  3.29E-06,  avg # of iterations =  1.0

     negative rho (up, down):  1.954E-04 2.093E-06

     total cpu time spent up to now is      582.7 secs

     total energy              =    -313.65171132 Ry
     estimated scf accuracy    <       0.00133229 Ry

     total magnetization       =    12.00 Bohr mag/cell
     absolute magnetization    =    12.07 Bohr mag/cell
[tb_dev] Currently allocated     4.10E+01 Mbytes, locked:    0 /  14
[tb_pin] Currently allocated     0.00E+00 Mbytes, locked:    0 /   0

     iteration # 52     ecut=    60.00 Ry     beta= 0.40
     Davidson diagonalization with overlap

---- Real-time Memory Report at c_bands before calling an iterative solver
          6135 MiB given to the printing process from OS
          1072 MiB allocation reported by mallinfo(arena+hblkhd)
         53702 MiB available memory on the node where the printing process lives
     GPU memory used/free/total (MiB): 7514 / 8766 / 16280
------------------
     ethr =  2.22E-06,  avg # of iterations =  1.0

     negative rho (up, down):  1.952E-04 1.730E-06

     total cpu time spent up to now is      593.2 secs

     total energy              =    -313.65184891 Ry
     estimated scf accuracy    <       0.00624849 Ry

     total magnetization       =    12.00 Bohr mag/cell
     absolute magnetization    =    12.06 Bohr mag/cell
[tb_dev] Currently allocated     4.10E+01 Mbytes, locked:    0 /  14
[tb_pin] Currently allocated     0.00E+00 Mbytes, locked:    0 /   0

     iteration # 53     ecut=    60.00 Ry     beta= 0.40
     Davidson diagonalization with overlap

---- Real-time Memory Report at c_bands before calling an iterative solver
          6149 MiB given to the printing process from OS
          1087 MiB allocation reported by mallinfo(arena+hblkhd)
         53687 MiB available memory on the node where the printing process lives
     GPU memory used/free/total (MiB): 7514 / 8766 / 16280
------------------
     ethr =  2.22E-06,  avg # of iterations =  1.0

     negative rho (up, down):  1.943E-04 2.074E-06

     total cpu time spent up to now is      603.6 secs

     total energy              =    -313.65113109 Ry
     estimated scf accuracy    <       0.00235593 Ry

     total magnetization       =    12.00 Bohr mag/cell
     absolute magnetization    =    12.07 Bohr mag/cell
[tb_dev] Currently allocated     4.10E+01 Mbytes, locked:    0 /  14
[tb_pin] Currently allocated     0.00E+00 Mbytes, locked:    0 /   0

     iteration # 54     ecut=    60.00 Ry     beta= 0.40
     Davidson diagonalization with overlap

---- Real-time Memory Report at c_bands before calling an iterative solver
          6164 MiB given to the printing process from OS
          1101 MiB allocation reported by mallinfo(arena+hblkhd)
         53671 MiB available memory on the node where the printing process lives
     GPU memory used/free/total (MiB): 7514 / 8766 / 16280
------------------
     ethr =  2.22E-06,  avg # of iterations =  1.5

     negative rho (up, down):  1.943E-04 1.695E-06

     total cpu time spent up to now is      614.4 secs

     total energy              =    -313.65152215 Ry
     estimated scf accuracy    <       0.00054269 Ry

     total magnetization       =    12.00 Bohr mag/cell
     absolute magnetization    =    12.07 Bohr mag/cell
[tb_dev] Currently allocated     4.10E+01 Mbytes, locked:    0 /  14
[tb_pin] Currently allocated     0.00E+00 Mbytes, locked:    0 /   0

     iteration # 55     ecut=    60.00 Ry     beta= 0.40
     Davidson diagonalization with overlap

---- Real-time Memory Report at c_bands before calling an iterative solver
          6179 MiB given to the printing process from OS
          1089 MiB allocation reported by mallinfo(arena+hblkhd)
         53684 MiB available memory on the node where the printing process lives
     GPU memory used/free/total (MiB): 7514 / 8766 / 16280
------------------
     ethr =  9.04E-07,  avg # of iterations =  1.0

     negative rho (up, down):  1.946E-04 1.900E-06

     total cpu time spent up to now is      624.8 secs

     total energy              =    -313.65133663 Ry
     estimated scf accuracy    <       0.00057748 Ry

     total magnetization       =    12.00 Bohr mag/cell
     absolute magnetization    =    12.07 Bohr mag/cell
[tb_dev] Currently allocated     4.10E+01 Mbytes, locked:    0 /  14
[tb_pin] Currently allocated     0.00E+00 Mbytes, locked:    0 /   0

     iteration # 56     ecut=    60.00 Ry     beta= 0.40
     Davidson diagonalization with overlap

---- Real-time Memory Report at c_bands before calling an iterative solver
          6194 MiB given to the printing process from OS
          1104 MiB allocation reported by mallinfo(arena+hblkhd)
         53666 MiB available memory on the node where the printing process lives
     GPU memory used/free/total (MiB): 7514 / 8766 / 16280
------------------
     ethr =  9.04E-07,  avg # of iterations =  1.7

     negative rho (up, down):  1.949E-04 1.736E-06

     total cpu time spent up to now is      636.1 secs

     total energy              =    -313.65139502 Ry
     estimated scf accuracy    <       0.00118643 Ry

     total magnetization       =    12.00 Bohr mag/cell
     absolute magnetization    =    12.07 Bohr mag/cell
[tb_dev] Currently allocated     4.10E+01 Mbytes, locked:    0 /  14
[tb_pin] Currently allocated     0.00E+00 Mbytes, locked:    0 /   0

     iteration # 57     ecut=    60.00 Ry     beta= 0.40
     Davidson diagonalization with overlap

---- Real-time Memory Report at c_bands before calling an iterative solver
          6208 MiB given to the printing process from OS
          1119 MiB allocation reported by mallinfo(arena+hblkhd)
         53655 MiB available memory on the node where the printing process lives
     GPU memory used/free/total (MiB): 7514 / 8766 / 16280
------------------
     ethr =  9.04E-07,  avg # of iterations =  1.5

     negative rho (up, down):  1.952E-04 1.861E-06

     total cpu time spent up to now is      647.0 secs

     total energy              =    -313.65126491 Ry
     estimated scf accuracy    <       0.00101372 Ry

     total magnetization       =    12.00 Bohr mag/cell
     absolute magnetization    =    12.08 Bohr mag/cell
[tb_dev] Currently allocated     4.10E+01 Mbytes, locked:    0 /  14
[tb_pin] Currently allocated     0.00E+00 Mbytes, locked:    0 /   0

     iteration # 58     ecut=    60.00 Ry     beta= 0.40
     Davidson diagonalization with overlap

---- Real-time Memory Report at c_bands before calling an iterative solver
          6223 MiB given to the printing process from OS
          1133 MiB allocation reported by mallinfo(arena+hblkhd)
         53640 MiB available memory on the node where the printing process lives
     GPU memory used/free/total (MiB): 7514 / 8766 / 16280
------------------
     ethr =  9.04E-07,  avg # of iterations =  2.1

     negative rho (up, down):  1.950E-04 1.761E-06

     total cpu time spent up to now is      658.5 secs

     total energy              =    -313.65138918 Ry
     estimated scf accuracy    <       0.00034311 Ry

     total magnetization       =    12.00 Bohr mag/cell
     absolute magnetization    =    12.09 Bohr mag/cell
[tb_dev] Currently allocated     4.10E+01 Mbytes, locked:    0 /  14
[tb_pin] Currently allocated     0.00E+00 Mbytes, locked:    0 /   0

     iteration # 59     ecut=    60.00 Ry     beta= 0.40
     Davidson diagonalization with overlap

---- Real-time Memory Report at c_bands before calling an iterative solver
          6237 MiB given to the printing process from OS
          1148 MiB allocation reported by mallinfo(arena+hblkhd)
         53624 MiB available memory on the node where the printing process lives
     GPU memory used/free/total (MiB): 7514 / 8766 / 16280
------------------
     ethr =  5.72E-07,  avg # of iterations =  4.0

     negative rho (up, down):  1.948E-04 1.752E-06

     total cpu time spent up to now is      672.9 secs

     total energy              =    -313.65176112 Ry
     estimated scf accuracy    <       0.00208967 Ry

     total magnetization       =    12.00 Bohr mag/cell
     absolute magnetization    =    12.09 Bohr mag/cell
[tb_dev] Currently allocated     4.10E+01 Mbytes, locked:    0 /  14
[tb_pin] Currently allocated     0.00E+00 Mbytes, locked:    0 /   0

     iteration # 60     ecut=    60.00 Ry     beta= 0.40
     Davidson diagonalization with overlap

---- Real-time Memory Report at c_bands before calling an iterative solver
          6252 MiB given to the printing process from OS
          1215 MiB allocation reported by mallinfo(arena+hblkhd)
         53563 MiB available memory on the node where the printing process lives
     GPU memory used/free/total (MiB): 7514 / 8766 / 16280
------------------
     ethr =  5.72E-07,  avg # of iterations =  1.0

     negative rho (up, down):  1.951E-04 2.371E-06

     total cpu time spent up to now is      683.2 secs

     total energy              =    -313.65170920 Ry
     estimated scf accuracy    <       0.00347272 Ry

     total magnetization       =    12.00 Bohr mag/cell
     absolute magnetization    =    12.09 Bohr mag/cell
[tb_dev] Currently allocated     4.10E+01 Mbytes, locked:    0 /  14
[tb_pin] Currently allocated     0.00E+00 Mbytes, locked:    0 /   0

     iteration # 61     ecut=    60.00 Ry     beta= 0.40
     Davidson diagonalization with overlap

---- Real-time Memory Report at c_bands before calling an iterative solver
          6266 MiB given to the printing process from OS
          1177 MiB allocation reported by mallinfo(arena+hblkhd)
         53596 MiB available memory on the node where the printing process lives
     GPU memory used/free/total (MiB): 7514 / 8766 / 16280
------------------
     ethr =  5.72E-07,  avg # of iterations =  2.5

     negative rho (up, down):  1.948E-04 2.389E-06

     total cpu time spent up to now is      694.8 secs

     total energy              =    -313.65173412 Ry
     estimated scf accuracy    <       0.00191731 Ry

     total magnetization       =    12.00 Bohr mag/cell
     absolute magnetization    =    12.10 Bohr mag/cell
[tb_dev] Currently allocated     4.10E+01 Mbytes, locked:    0 /  14
[tb_pin] Currently allocated     0.00E+00 Mbytes, locked:    0 /   0

     iteration # 62     ecut=    60.00 Ry     beta= 0.40
     Davidson diagonalization with overlap

---- Real-time Memory Report at c_bands before calling an iterative solver
          6266 MiB given to the printing process from OS
          1244 MiB allocation reported by mallinfo(arena+hblkhd)
         53580 MiB available memory on the node where the printing process lives
     GPU memory used/free/total (MiB): 7514 / 8766 / 16280
------------------
     ethr =  5.72E-07,  avg # of iterations =  1.5

     negative rho (up, down):  1.950E-04 3.384E-06

     total cpu time spent up to now is      705.5 secs

     total energy              =    -313.65151735 Ry
     estimated scf accuracy    <       0.00217457 Ry

     total magnetization       =    12.00 Bohr mag/cell
     absolute magnetization    =    12.10 Bohr mag/cell
[tb_dev] Currently allocated     4.10E+01 Mbytes, locked:    0 /  14
[tb_pin] Currently allocated     0.00E+00 Mbytes, locked:    0 /   0

     iteration # 63     ecut=    60.00 Ry     beta= 0.40
     Davidson diagonalization with overlap

---- Real-time Memory Report at c_bands before calling an iterative solver
          6266 MiB given to the printing process from OS
          1259 MiB allocation reported by mallinfo(arena+hblkhd)
         53568 MiB available memory on the node where the printing process lives
     GPU memory used/free/total (MiB): 7514 / 8766 / 16280
------------------
     ethr =  5.72E-07,  avg # of iterations =  1.6

     negative rho (up, down):  1.950E-04 2.489E-06

     total cpu time spent up to now is      716.8 secs

     total energy              =    -313.65162105 Ry
     estimated scf accuracy    <       0.00124061 Ry

     total magnetization       =    12.00 Bohr mag/cell
     absolute magnetization    =    12.10 Bohr mag/cell
[tb_dev] Currently allocated     4.10E+01 Mbytes, locked:    0 /  14
[tb_pin] Currently allocated     0.00E+00 Mbytes, locked:    0 /   0

     iteration # 64     ecut=    60.00 Ry     beta= 0.40
     Davidson diagonalization with overlap

---- Real-time Memory Report at c_bands before calling an iterative solver
          6266 MiB given to the printing process from OS
          1274 MiB allocation reported by mallinfo(arena+hblkhd)
         53550 MiB available memory on the node where the printing process lives
     GPU memory used/free/total (MiB): 7514 / 8766 / 16280
------------------
     ethr =  5.72E-07,  avg # of iterations =  1.5

     negative rho (up, down):  1.953E-04 2.259E-06

     total cpu time spent up to now is      727.8 secs

     total energy              =    -313.65169337 Ry
     estimated scf accuracy    <       0.00134958 Ry

     total magnetization       =    12.00 Bohr mag/cell
     absolute magnetization    =    12.09 Bohr mag/cell
[tb_dev] Currently allocated     4.10E+01 Mbytes, locked:    0 /  14
[tb_pin] Currently allocated     0.00E+00 Mbytes, locked:    0 /   0

     iteration # 65     ecut=    60.00 Ry     beta= 0.40
     Davidson diagonalization with overlap

---- Real-time Memory Report at c_bands before calling an iterative solver
          6274 MiB given to the printing process from OS
          1288 MiB allocation reported by mallinfo(arena+hblkhd)
         53537 MiB available memory on the node where the printing process lives
     GPU memory used/free/total (MiB): 7514 / 8766 / 16280
------------------
     ethr =  5.72E-07,  avg # of iterations =  1.0

     negative rho (up, down):  1.953E-04 1.979E-06

     total cpu time spent up to now is      738.2 secs

     total energy              =    -313.65171588 Ry
     estimated scf accuracy    <       0.00100863 Ry

     total magnetization       =    12.00 Bohr mag/cell
     absolute magnetization    =    12.09 Bohr mag/cell
[tb_dev] Currently allocated     4.10E+01 Mbytes, locked:    0 /  14
[tb_pin] Currently allocated     0.00E+00 Mbytes, locked:    0 /   0

     iteration # 66     ecut=    60.00 Ry     beta= 0.40
     Davidson diagonalization with overlap

---- Real-time Memory Report at c_bands before calling an iterative solver
          6289 MiB given to the printing process from OS
          1303 MiB allocation reported by mallinfo(arena+hblkhd)
         53524 MiB available memory on the node where the printing process lives
     GPU memory used/free/total (MiB): 7514 / 8766 / 16280
------------------
     ethr =  5.72E-07,  avg # of iterations =  1.0

     negative rho (up, down):  1.953E-04 1.799E-06

     total cpu time spent up to now is      748.7 secs

     total energy              =    -313.65169898 Ry
     estimated scf accuracy    <       0.00094032 Ry

     total magnetization       =    12.00 Bohr mag/cell
     absolute magnetization    =    12.09 Bohr mag/cell
[tb_dev] Currently allocated     4.10E+01 Mbytes, locked:    0 /  14
[tb_pin] Currently allocated     0.00E+00 Mbytes, locked:    0 /   0

     iteration # 67     ecut=    60.00 Ry     beta= 0.40
     Davidson diagonalization with overlap

---- Real-time Memory Report at c_bands before calling an iterative solver
          6303 MiB given to the printing process from OS
          1317 MiB allocation reported by mallinfo(arena+hblkhd)
         53507 MiB available memory on the node where the printing process lives
     GPU memory used/free/total (MiB): 7514 / 8766 / 16280
------------------
     ethr =  5.72E-07,  avg # of iterations =  1.0

     negative rho (up, down):  1.945E-04 2.036E-06

     total cpu time spent up to now is      759.2 secs

     total energy              =    -313.65135644 Ry
     estimated scf accuracy    <       0.00101560 Ry

     total magnetization       =    12.00 Bohr mag/cell
     absolute magnetization    =    12.10 Bohr mag/cell
[tb_dev] Currently allocated     4.10E+01 Mbytes, locked:    0 /  14
[tb_pin] Currently allocated     0.00E+00 Mbytes, locked:    0 /   0

     iteration # 68     ecut=    60.00 Ry     beta= 0.40
     Davidson diagonalization with overlap

---- Real-time Memory Report at c_bands before calling an iterative solver
          6318 MiB given to the printing process from OS
          1332 MiB allocation reported by mallinfo(arena+hblkhd)
         53494 MiB available memory on the node where the printing process lives
     GPU memory used/free/total (MiB): 7514 / 8766 / 16280
------------------
     ethr =  5.72E-07,  avg # of iterations =  4.7

     negative rho (up, down):  1.948E-04 1.626E-06

     total cpu time spent up to now is      774.2 secs

     total energy              =    -313.65173488 Ry
     estimated scf accuracy    <       0.00215479 Ry

     total magnetization       =    12.00 Bohr mag/cell
     absolute magnetization    =    12.09 Bohr mag/cell
[tb_dev] Currently allocated     4.10E+01 Mbytes, locked:    0 /  14
[tb_pin] Currently allocated     0.00E+00 Mbytes, locked:    0 /   0

     iteration # 69     ecut=    60.00 Ry     beta= 0.40
     Davidson diagonalization with overlap

---- Real-time Memory Report at c_bands before calling an iterative solver
          6333 MiB given to the printing process from OS
          1347 MiB allocation reported by mallinfo(arena+hblkhd)
         53481 MiB available memory on the node where the printing process lives
     GPU memory used/free/total (MiB): 7514 / 8766 / 16280
------------------
     ethr =  5.72E-07,  avg # of iterations =  1.8

     negative rho (up, down):  1.947E-04 1.568E-06

     total cpu time spent up to now is      785.3 secs

     total energy              =    -313.65178149 Ry
     estimated scf accuracy    <       0.00031981 Ry

     total magnetization       =    12.00 Bohr mag/cell
     absolute magnetization    =    12.10 Bohr mag/cell
[tb_dev] Currently allocated     4.10E+01 Mbytes, locked:    0 /  14
[tb_pin] Currently allocated     0.00E+00 Mbytes, locked:    0 /   0

     iteration # 70     ecut=    60.00 Ry     beta= 0.40
     Davidson diagonalization with overlap

---- Real-time Memory Report at c_bands before calling an iterative solver
          6348 MiB given to the printing process from OS
          1361 MiB allocation reported by mallinfo(arena+hblkhd)
         53465 MiB available memory on the node where the printing process lives
     GPU memory used/free/total (MiB): 7514 / 8766 / 16280
------------------
     ethr =  5.33E-07,  avg # of iterations =  1.0

     negative rho (up, down):  1.948E-04 1.512E-06

     total cpu time spent up to now is      795.7 secs

     total energy              =    -313.65173515 Ry
     estimated scf accuracy    <       0.00048080 Ry

     total magnetization       =    12.00 Bohr mag/cell
     absolute magnetization    =    12.10 Bohr mag/cell
[tb_dev] Currently allocated     4.10E+01 Mbytes, locked:    0 /  14
[tb_pin] Currently allocated     0.00E+00 Mbytes, locked:    0 /   0

     iteration # 71     ecut=    60.00 Ry     beta= 0.40
     Davidson diagonalization with overlap

---- Real-time Memory Report at c_bands before calling an iterative solver
          6362 MiB given to the printing process from OS
          1376 MiB allocation reported by mallinfo(arena+hblkhd)
         53449 MiB available memory on the node where the printing process lives
     GPU memory used/free/total (MiB): 7514 / 8766 / 16280
------------------
     ethr =  5.33E-07,  avg # of iterations =  1.4

     negative rho (up, down):  1.947E-04 1.509E-06

     total cpu time spent up to now is      806.3 secs

     total energy              =    -313.65172860 Ry
     estimated scf accuracy    <       0.00117960 Ry

     total magnetization       =    12.00 Bohr mag/cell
     absolute magnetization    =    12.10 Bohr mag/cell
[tb_dev] Currently allocated     4.10E+01 Mbytes, locked:    0 /  14
[tb_pin] Currently allocated     0.00E+00 Mbytes, locked:    0 /   0

     iteration # 72     ecut=    60.00 Ry     beta= 0.40
     Davidson diagonalization with overlap

---- Real-time Memory Report at c_bands before calling an iterative solver
          6376 MiB given to the printing process from OS
          1364 MiB allocation reported by mallinfo(arena+hblkhd)
         53421 MiB available memory on the node where the printing process lives
     GPU memory used/free/total (MiB): 7514 / 8766 / 16280
------------------
     ethr =  5.33E-07,  avg # of iterations =  1.0

     negative rho (up, down):  1.949E-04 1.622E-06

     total cpu time spent up to now is      816.7 secs

     total energy              =    -313.65169195 Ry
     estimated scf accuracy    <       0.00143265 Ry

     total magnetization       =    12.00 Bohr mag/cell
     absolute magnetization    =    12.10 Bohr mag/cell
[tb_dev] Currently allocated     4.10E+01 Mbytes, locked:    0 /  14
[tb_pin] Currently allocated     0.00E+00 Mbytes, locked:    0 /   0

     iteration # 73     ecut=    60.00 Ry     beta= 0.40
     Davidson diagonalization with overlap

---- Real-time Memory Report at c_bands before calling an iterative solver
          6391 MiB given to the printing process from OS
          1379 MiB allocation reported by mallinfo(arena+hblkhd)
         53409 MiB available memory on the node where the printing process lives
     GPU memory used/free/total (MiB): 7514 / 8766 / 16280
------------------
     ethr =  5.33E-07,  avg # of iterations =  1.0

     negative rho (up, down):  1.949E-04 1.662E-06

     total cpu time spent up to now is      827.1 secs

     total energy              =    -313.65170398 Ry
     estimated scf accuracy    <       0.00035451 Ry

     total magnetization       =    12.00 Bohr mag/cell
     absolute magnetization    =    12.10 Bohr mag/cell
[tb_dev] Currently allocated     4.10E+01 Mbytes, locked:    0 /  14
[tb_pin] Currently allocated     0.00E+00 Mbytes, locked:    0 /   0

     iteration # 74     ecut=    60.00 Ry     beta= 0.40
     Davidson diagonalization with overlap

---- Real-time Memory Report at c_bands before calling an iterative solver
          6405 MiB given to the printing process from OS
          1393 MiB allocation reported by mallinfo(arena+hblkhd)
         53399 MiB available memory on the node where the printing process lives
     GPU memory used/free/total (MiB): 7514 / 8766 / 16280
------------------
     ethr =  5.33E-07,  avg # of iterations =  1.0

     negative rho (up, down):  1.949E-04 1.519E-06

     total cpu time spent up to now is      837.5 secs

     total energy              =    -313.65168385 Ry
     estimated scf accuracy    <       0.00041871 Ry

     total magnetization       =    12.00 Bohr mag/cell
     absolute magnetization    =    12.10 Bohr mag/cell
[tb_dev] Currently allocated     4.10E+01 Mbytes, locked:    0 /  14
[tb_pin] Currently allocated     0.00E+00 Mbytes, locked:    0 /   0

     iteration # 75     ecut=    60.00 Ry     beta= 0.40
     Davidson diagonalization with overlap

---- Real-time Memory Report at c_bands before calling an iterative solver
          6421 MiB given to the printing process from OS
          1408 MiB allocation reported by mallinfo(arena+hblkhd)
         53385 MiB available memory on the node where the printing process lives
     GPU memory used/free/total (MiB): 7514 / 8766 / 16280
------------------
     ethr =  5.33E-07,  avg # of iterations =  1.0

     negative rho (up, down):  1.949E-04 1.508E-06

     total cpu time spent up to now is      848.0 secs

     total energy              =    -313.65172698 Ry
     estimated scf accuracy    <       0.00043269 Ry

     total magnetization       =    12.00 Bohr mag/cell
     absolute magnetization    =    12.10 Bohr mag/cell
[tb_dev] Currently allocated     4.10E+01 Mbytes, locked:    0 /  14
[tb_pin] Currently allocated     0.00E+00 Mbytes, locked:    0 /   0

     iteration # 76     ecut=    60.00 Ry     beta= 0.40
     Davidson diagonalization with overlap

---- Real-time Memory Report at c_bands before calling an iterative solver
          6436 MiB given to the printing process from OS
          1422 MiB allocation reported by mallinfo(arena+hblkhd)
         53371 MiB available memory on the node where the printing process lives
     GPU memory used/free/total (MiB): 7514 / 8766 / 16280
------------------
     ethr =  5.33E-07,  avg # of iterations =  1.0

     negative rho (up, down):  1.948E-04 1.501E-06

     total cpu time spent up to now is      858.4 secs

     total energy              =    -313.65177767 Ry
     estimated scf accuracy    <       0.00021645 Ry

     total magnetization       =    12.00 Bohr mag/cell
     absolute magnetization    =    12.10 Bohr mag/cell
[tb_dev] Currently allocated     4.10E+01 Mbytes, locked:    0 /  14
[tb_pin] Currently allocated     0.00E+00 Mbytes, locked:    0 /   0

     iteration # 77     ecut=    60.00 Ry     beta= 0.40
     Davidson diagonalization with overlap

---- Real-time Memory Report at c_bands before calling an iterative solver
          6450 MiB given to the printing process from OS
          1437 MiB allocation reported by mallinfo(arena+hblkhd)
         53356 MiB available memory on the node where the printing process lives
     GPU memory used/free/total (MiB): 7514 / 8766 / 16280
------------------
     ethr =  3.61E-07,  avg # of iterations =  4.0

     negative rho (up, down):  1.947E-04 1.539E-06

     total cpu time spent up to now is      872.4 secs

     total energy              =    -313.65188857 Ry
     estimated scf accuracy    <       0.00038780 Ry

     total magnetization       =    12.00 Bohr mag/cell
     absolute magnetization    =    12.10 Bohr mag/cell
[tb_dev] Currently allocated     4.10E+01 Mbytes, locked:    0 /  14
[tb_pin] Currently allocated     0.00E+00 Mbytes, locked:    0 /   0

     iteration # 78     ecut=    60.00 Ry     beta= 0.40
     Davidson diagonalization with overlap

---- Real-time Memory Report at c_bands before calling an iterative solver
          6464 MiB given to the printing process from OS
          1452 MiB allocation reported by mallinfo(arena+hblkhd)
         53345 MiB available memory on the node where the printing process lives
     GPU memory used/free/total (MiB): 7514 / 8766 / 16280
------------------
     ethr =  3.61E-07,  avg # of iterations =  1.0

     negative rho (up, down):  1.946E-04 1.623E-06

     total cpu time spent up to now is      882.8 secs

     total energy              =    -313.65185241 Ry
     estimated scf accuracy    <       0.00029608 Ry

     total magnetization       =    12.00 Bohr mag/cell
     absolute magnetization    =    12.11 Bohr mag/cell
[tb_dev] Currently allocated     4.10E+01 Mbytes, locked:    0 /  14
[tb_pin] Currently allocated     0.00E+00 Mbytes, locked:    0 /   0

     iteration # 79     ecut=    60.00 Ry     beta= 0.40
     Davidson diagonalization with overlap

---- Real-time Memory Report at c_bands before calling an iterative solver
          6479 MiB given to the printing process from OS
          1466 MiB allocation reported by mallinfo(arena+hblkhd)
         53328 MiB available memory on the node where the printing process lives
     GPU memory used/free/total (MiB): 7514 / 8766 / 16280
------------------
     ethr =  3.61E-07,  avg # of iterations =  1.0

     negative rho (up, down):  1.947E-04 1.646E-06

     total cpu time spent up to now is      893.2 secs

     total energy              =    -313.65182775 Ry
     estimated scf accuracy    <       0.00046224 Ry

     total magnetization       =    12.00 Bohr mag/cell
     absolute magnetization    =    12.11 Bohr mag/cell
[tb_dev] Currently allocated     4.10E+01 Mbytes, locked:    0 /  14
[tb_pin] Currently allocated     0.00E+00 Mbytes, locked:    0 /   0

     iteration # 80     ecut=    60.00 Ry     beta= 0.40
     Davidson diagonalization with overlap

---- Real-time Memory Report at c_bands before calling an iterative solver
          6493 MiB given to the printing process from OS
          1481 MiB allocation reported by mallinfo(arena+hblkhd)
         53315 MiB available memory on the node where the printing process lives
     GPU memory used/free/total (MiB): 7514 / 8766 / 16280
------------------
     ethr =  3.61E-07,  avg # of iterations =  1.5

     negative rho (up, down):  1.947E-04 1.636E-06

     total cpu time spent up to now is      904.2 secs

     total energy              =    -313.65183261 Ry
     estimated scf accuracy    <       0.00021261 Ry

     total magnetization       =    12.00 Bohr mag/cell
     absolute magnetization    =    12.11 Bohr mag/cell

     End of self-consistent calculation

     convergence NOT achieved after  80 iterations: stopping

     Writing config to output data dir ./out/aiida.save/
 
     init_run     :     57.40s CPU     22.66s WALL (       1 calls)
     electrons    :   1800.91s CPU    881.32s WALL (       1 calls)

     Called by init_run:
     wfcinit      :      7.54s CPU      9.88s WALL (       1 calls)
                                        9.88s GPU  (       1 calls)
     wfcinit:atom :      0.04s CPU      0.13s WALL (      56 calls)
                                        0.13s GPU  (      56 calls)
     wfcinit:wfcr :      3.76s CPU      4.57s WALL (      56 calls)
                                        4.57s GPU  (      56 calls)
     potinit      :     28.23s CPU      2.64s WALL (       1 calls)
     hinit0       :     14.43s CPU      8.21s WALL (       1 calls)

     Called by electrons:
     c_bands      :    556.61s CPU    572.30s WALL (      80 calls)
     sum_band     :    173.26s CPU    176.14s WALL (      80 calls)
     v_of_rho     :     50.28s CPU     19.34s WALL (      81 calls)
     v_h          :     30.99s CPU      2.93s WALL (      81 calls)
     v_xc         :     19.28s CPU     16.41s WALL (      81 calls)
     newd         :    178.28s CPU     23.82s WALL (      81 calls)
                                       23.81s GPU  (      81 calls)
     PAW_pot      :    535.00s CPU     49.74s WALL (      81 calls)
     mix_rho      :    233.67s CPU     30.49s WALL (      80 calls)

     Called by c_bands:
     init_us_2    :     10.17s CPU     14.98s WALL (    9016 calls)
     init_us_2:gp :      9.97s CPU     14.80s WALL (    9016 calls)
     cegterg      :    440.36s CPU    448.16s WALL (    4480 calls)

     Called by sum_band:
     sum_band:wei :      0.21s CPU      0.21s WALL (      80 calls)
                                        0.21s GPU  (      80 calls)
     sum_band:loo :    143.98s CPU    146.74s WALL (      80 calls)
                                      146.74s GPU  (      80 calls)
     sum_band:buf :     54.84s CPU     55.33s WALL (    4480 calls)
                                       55.29s GPU  (    4480 calls)
     sum_band:ini :      4.72s CPU      5.80s WALL (    4480 calls)
                                        5.77s GPU  (    4480 calls)
     sum_band:cal :      0.21s CPU      5.28s WALL (    4480 calls)
                                        3.93s GPU  (    4480 calls)
     sum_band:bec :      1.29s CPU      1.37s WALL (    4480 calls)
                                        1.31s GPU  (    4480 calls)
     addusdens    :     10.53s CPU     10.57s WALL (      80 calls)
                                       10.57s GPU  (      80 calls)
     addusd:skk   :      0.13s CPU      0.13s WALL (     240 calls)
                                        0.13s GPU  (     240 calls)

     Called by *egterg:
     cdiaghg      :     28.66s CPU     33.07s WALL (   11622 calls)
                                       32.98s GPU  (   11622 calls)
     cegterg:over :     10.60s CPU     10.87s WALL (    7142 calls)
     cegterg:upda :      7.40s CPU      7.98s WALL (    7142 calls)
     cegterg:last :      6.53s CPU      6.71s WALL (    6167 calls)
     h_psi        :    363.36s CPU    365.75s WALL (   11678 calls)
                                      365.03s GPU  (   11678 calls)
     s_psi        :      2.98s CPU     12.16s WALL (   11678 calls)
                                       10.59s GPU  (   11678 calls)
     g_psi        :      0.06s CPU      1.46s WALL (    7142 calls)
                                        1.42s GPU  (    7142 calls)

     Called by h_psi:
     h_psi:calbec :      0.45s CPU     10.32s WALL (   11678 calls)
                                       10.25s GPU  (   11678 calls)
     vloc_psi     :    337.93s CPU    339.95s WALL (   11678 calls)
                                      339.88s GPU  (   11678 calls)
     add_vuspsi   :      3.24s CPU     12.09s WALL (   11678 calls)
                                       12.01s GPU  (   11678 calls)

     General routines
     calbec       :      0.49s CPU      0.50s WALL (   16158 calls)
     fft          :     11.15s CPU      2.48s WALL (    2023 calls)
                                        1.64s GPU  (    1861 calls)
     ffts         :      1.20s CPU      0.27s WALL (     322 calls)
                                        0.07s GPU  (     160 calls)
     fftw         :      1.94s CPU    323.04s WALL (   73946 calls)
                                      322.15s GPU  (   73946 calls)
     interpolate  :     46.60s CPU      4.09s WALL (     162 calls)
     davcio       :      0.04s CPU      1.68s WALL (      74 calls)
 
     Parallel routines

     PAW routines
     PAW_pot      :    535.00s CPU     49.74s WALL (      81 calls)
     PAW_symme    :      0.07s CPU      0.01s WALL (     161 calls)
 
     PWSCF        :  31m 1.13s CPU  15m 6.66s WALL

 
   This run was terminated on:  17:44:51  23Oct2023            

=------------------------------------------------------------------------------=
   JOB DONE.
=------------------------------------------------------------------------------=
