
     Program PWSCF v.7.2 starts on 23Oct2023 at 18:13:16 

     This program is part of the open-source Quantum ESPRESSO suite
     for quantum simulation of materials; please cite
         "P. Giannozzi et al., J. Phys.:Condens. Matter 21 395502 (2009);
         "P. Giannozzi et al., J. Phys.:Condens. Matter 29 465901 (2017);
         "P. Giannozzi et al., J. Chem. Phys. 152 154105 (2020);
          URL http://www.quantum-espresso.org", 
     in publications or presentations arising from this work. More details at
     http://www.quantum-espresso.org/quote

     Parallel version (MPI & OpenMP), running on      12 processor cores
     Number of MPI processes:                 1
     Threads/MPI process:                    12

     MPI processes distributed on     1 nodes
     60257 MiB available memory on the printing compute node when the environment starts
 
     Reading input from aiida.in

     Current dimensions of program PWSCF are:
     Max number of different atomic species (ntypx) = 10
     Max number of k-points (npk) =  40000
     Max angular momentum in pseudopotentials (lmaxx) =  4
     Message from routine setup:
     using ibrav=0 with symmetry is DISCOURAGED, use correct ibrav instead
 
     Subspace diagonalization in iterative solution of the eigenvalue problem:
     a serial algorithm will be used

 
     G-vector sticks info
     --------------------
     sticks:   dense  smooth     PW     G-vecs:    dense   smooth      PW
     Sum        1531     769    241                39693    14163    2421
 
     Using Slab Decomposition
 


     bravais-lattice index     =            0
     lattice parameter (alat)  =       8.3515  a.u.
     unit-cell volume          =     411.8857 (a.u.)^3
     number of atoms/cell      =            4
     number of atomic types    =            4
     number of electrons       =        42.00
     number of Kohn-Sham states=           25
     kinetic-energy cutoff     =      40.0000  Ry
     charge density cutoff     =     320.0000  Ry
     scf convergence threshold =      8.0E-10
     mixing beta               =       0.1000
     number of iterations used =            8  plain     mixing
     Exchange-correlation= SLA  PW   PSX  PSC
                           (   1   4  10   8   0   0   0)

     GPU acceleration is ACTIVE.


     GPU used by master process:

        Device Number: 0
        Device name: Tesla P100-PCIE-16GB
        Compute capability : 60
        Ratio of single to double precision performance  : 2
        Memory Clock Rate (KHz): 715000
        Memory Bus Width (bits): 4096
        Peak Memory Bandwidth (GB/s): 732.16

     celldm(1)=   8.351488  celldm(2)=   0.000000  celldm(3)=   0.000000
     celldm(4)=   0.000000  celldm(5)=   0.000000  celldm(6)=   0.000000

     crystal axes: (cart. coord. in units of alat)
               a(1) = (   0.000000   0.707107   0.707107 )  
               a(2) = (   0.707107   0.000000   0.707107 )  
               a(3) = (   0.707107   0.707107   0.000000 )  

     reciprocal axes: (cart. coord. in units 2 pi/alat)
               b(1) = ( -0.707107  0.707107  0.707107 )  
               b(2) = (  0.707107 -0.707107  0.707107 )  
               b(3) = (  0.707107  0.707107 -0.707107 )  


     PseudoPot. # 1 for Cr read from file:
     ./pseudo/cr_pbesol_v1.5.uspp.F.UPF
     MD5 check sum: a621641e0be27168676a837af8893d0f
     Pseudo is Ultrasoft + core correction, Zval = 14.0
     Generated by new atomic code, or converted to UPF format
     Using radial grid of  857 points,  6 beta functions with: 
                l(1) =   0
                l(2) =   0
                l(3) =   1
                l(4) =   1
                l(5) =   2
                l(6) =   2
     Q(r) pseudized with  8 coefficients,  rinner =    0.950   0.950   0.950
                                                       0.950   0.950

     PseudoPot. # 2 for Si read from file:
     ./pseudo/Si.pbesol-n-rrkjus_psl.1.0.0.UPF
     MD5 check sum: c4212819de858c94c3a1644338846ac9
     Pseudo is Ultrasoft + core correction, Zval =  4.0
     Generated using "atomic" code by A. Dal Corso  v.6.0 svn rev. 13079
     Using radial grid of 1141 points,  6 beta functions with: 
                l(1) =   0
                l(2) =   0
                l(3) =   1
                l(4) =   1
                l(5) =   2
                l(6) =   2
     Q(r) pseudized with 0 coefficients 


     PseudoPot. # 3 for V  read from file:
     ./pseudo/v_pbesol_v1.4.uspp.F.UPF
     MD5 check sum: 72fa7d0034c41d8adc50bbc8c632b9f9
     Pseudo is Ultrasoft + core correction, Zval = 13.0
     Generated by new atomic code, or converted to UPF format
     Using radial grid of  853 points,  6 beta functions with: 
                l(1) =   0
                l(2) =   0
                l(3) =   1
                l(4) =   1
                l(5) =   2
                l(6) =   2
     Q(r) pseudized with  8 coefficients,  rinner =    1.100   1.100   1.100
                                                       1.100   1.100

     PseudoPot. # 4 for Y  read from file:
     ./pseudo/y_pbesol_v1.4.uspp.F.UPF
     MD5 check sum: dac24993bfd4491f22c7b9129ad9e93d
     Pseudo is Ultrasoft + core correction, Zval = 11.0
     Generated by new atomic code, or converted to UPF format
     Using radial grid of  885 points,  6 beta functions with: 
                l(1) =   0
                l(2) =   0
                l(3) =   1
                l(4) =   1
                l(5) =   2
                l(6) =   2
     Q(r) pseudized with  8 coefficients,  rinner =    1.200   1.200   1.200
                                                       1.200   1.200

     atomic species   valence    mass     pseudopotential
        Cr            14.00    51.99610     Cr( 1.00)
        Si             4.00    28.08550     Si( 1.00)
        V             13.00    50.94150     V ( 1.00)
        Y             11.00    88.90585     Y ( 1.00)

     Starting magnetic structure 
     atomic species   magnetization
        Cr           0.357
        Si           0.100
        V            0.385
        Y            0.455

     24 Sym. Ops. (no inversion) found


                                    s                        frac. trans.

      isym =  1     identity                                     

 cryst.   s( 1) = (     1          0          0      )
                  (     0          1          0      )
                  (     0          0          1      )

 cart.    s( 1) = (  1.0000000 -0.0000000  0.0000000 )
                  ( -0.0000000  1.0000000  0.0000000 )
                  ( -0.0000000  0.0000000  1.0000000 )


      isym =  2     180 deg rotation - cart. axis [0,0,1]        

 cryst.   s( 2) = (     0          1         -1      )
                  (     1          0         -1      )
                  (     0          0         -1      )

 cart.    s( 2) = ( -1.0000000  0.0000000  0.0000000 )
                  (  0.0000000 -1.0000000  0.0000000 )
                  (  0.0000000 -0.0000000  1.0000000 )


      isym =  3     180 deg rotation - cart. axis [0,1,0]        

 cryst.   s( 3) = (     0         -1          1      )
                  (     0         -1          0      )
                  (     1         -1          0      )

 cart.    s( 3) = ( -1.0000000 -0.0000000 -0.0000000 )
                  (  0.0000000  1.0000000 -0.0000000 )
                  (  0.0000000  0.0000000 -1.0000000 )


      isym =  4     180 deg rotation - cart. axis [1,0,0]        

 cryst.   s( 4) = (    -1          0          0      )
                  (    -1          0          1      )
                  (    -1          1          0      )

 cart.    s( 4) = (  1.0000000  0.0000000 -0.0000000 )
                  ( -0.0000000 -1.0000000 -0.0000000 )
                  ( -0.0000000 -0.0000000 -1.0000000 )


      isym =  5     120 deg rotation - cart. axis [-1,-1,-1]     

 cryst.   s( 5) = (     0          0          1      )
                  (     1          0          0      )
                  (     0          1          0      )

 cart.    s( 5) = (  0.0000000  1.0000000 -0.0000000 )
                  (  0.0000000 -0.0000000  1.0000000 )
                  (  1.0000000 -0.0000000  0.0000000 )


      isym =  6     120 deg rotation - cart. axis [-1,1,1]       

 cryst.   s( 6) = (     1         -1          0      )
                  (     0         -1          1      )
                  (     0         -1          0      )

 cart.    s( 6) = ( -0.0000000 -1.0000000 -0.0000000 )
                  ( -0.0000000  0.0000000  1.0000000 )
                  ( -1.0000000  0.0000000  0.0000000 )


      isym =  7     120 deg rotation - cart. axis [1,1,-1]       

 cryst.   s( 7) = (    -1          1          0      )
                  (    -1          0          0      )
                  (    -1          0          1      )

 cart.    s( 7) = ( -0.0000000  1.0000000  0.0000000 )
                  ( -0.0000000 -0.0000000 -1.0000000 )
                  ( -1.0000000 -0.0000000 -0.0000000 )


      isym =  8     120 deg rotation - cart. axis [1,-1,1]       

 cryst.   s( 8) = (     0          0         -1      )
                  (     0          1         -1      )
                  (     1          0         -1      )

 cart.    s( 8) = (  0.0000000 -1.0000000  0.0000000 )
                  (  0.0000000  0.0000000 -1.0000000 )
                  (  1.0000000  0.0000000 -0.0000000 )


      isym =  9     120 deg rotation - cart. axis [1,1,1]        

 cryst.   s( 9) = (     0          1          0      )
                  (     0          0          1      )
                  (     1          0          0      )

 cart.    s( 9) = ( -0.0000000  0.0000000  1.0000000 )
                  (  1.0000000  0.0000000 -0.0000000 )
                  (  0.0000000  1.0000000 -0.0000000 )


      isym = 10     120 deg rotation - cart. axis [-1,1,-1]      

 cryst.   s(10) = (    -1          0          1      )
                  (    -1          1          0      )
                  (    -1          0          0      )

 cart.    s(10) = (  0.0000000 -0.0000000  1.0000000 )
                  ( -1.0000000 -0.0000000 -0.0000000 )
                  ( -0.0000000 -1.0000000 -0.0000000 )


      isym = 11     120 deg rotation - cart. axis [1,-1,-1]      

 cryst.   s(11) = (     1          0         -1      )
                  (     0          0         -1      )
                  (     0          1         -1      )

 cart.    s(11) = (  0.0000000  0.0000000 -1.0000000 )
                  ( -1.0000000  0.0000000  0.0000000 )
                  ( -0.0000000  1.0000000  0.0000000 )


      isym = 12     120 deg rotation - cart. axis [-1,-1,1]      

 cryst.   s(12) = (     0         -1          0      )
                  (     1         -1          0      )
                  (     0         -1          1      )

 cart.    s(12) = ( -0.0000000 -0.0000000 -1.0000000 )
                  (  1.0000000 -0.0000000  0.0000000 )
                  (  0.0000000 -1.0000000  0.0000000 )


      isym = 13     inv. 180 deg rotation - cart. axis [1,1,0]   

 cryst.   s(13) = (     1          0         -1      )
                  (     0          1         -1      )
                  (     0          0         -1      )

 cart.    s(13) = (  0.0000000 -1.0000000  0.0000000 )
                  ( -1.0000000  0.0000000  0.0000000 )
                  ( -0.0000000  0.0000000  1.0000000 )


      isym = 14     inv. 180 deg rotation - cart. axis [1,-1,0]  

 cryst.   s(14) = (     0          1          0      )
                  (     1          0          0      )
                  (     0          0          1      )

 cart.    s(14) = ( -0.0000000  1.0000000  0.0000000 )
                  (  1.0000000 -0.0000000  0.0000000 )
                  (  0.0000000 -0.0000000  1.0000000 )


      isym = 15     inv.  90 deg rotation - cart. axis [0,0,-1]  

 cryst.   s(15) = (     0         -1          0      )
                  (     0         -1          1      )
                  (     1         -1          0      )

 cart.    s(15) = ( -0.0000000 -1.0000000 -0.0000000 )
                  (  1.0000000  0.0000000 -0.0000000 )
                  (  0.0000000  0.0000000 -1.0000000 )


      isym = 16     inv.  90 deg rotation - cart. axis [0,0,1]   

 cryst.   s(16) = (    -1          0          1      )
                  (    -1          0          0      )
                  (    -1          1          0      )

 cart.    s(16) = (  0.0000000  1.0000000 -0.0000000 )
                  ( -1.0000000 -0.0000000 -0.0000000 )
                  ( -0.0000000 -0.0000000 -1.0000000 )


      isym = 17     inv. 180 deg rotation - cart. axis [1,0,1]   

 cryst.   s(17) = (     1         -1          0      )
                  (     0         -1          0      )
                  (     0         -1          1      )

 cart.    s(17) = ( -0.0000000 -0.0000000 -1.0000000 )
                  ( -0.0000000  1.0000000  0.0000000 )
                  ( -1.0000000  0.0000000  0.0000000 )


      isym = 18     inv. 180 deg rotation - cart. axis [-1,0,1]  

 cryst.   s(18) = (     0          0          1      )
                  (     0          1          0      )
                  (     1          0          0      )

 cart.    s(18) = (  0.0000000 -0.0000000  1.0000000 )
                  (  0.0000000  1.0000000 -0.0000000 )
                  (  1.0000000  0.0000000 -0.0000000 )


      isym = 19     inv.  90 deg rotation - cart. axis [0,1,0]   

 cryst.   s(19) = (     0          0         -1      )
                  (     1          0         -1      )
                  (     0          1         -1      )

 cart.    s(19) = (  0.0000000  0.0000000 -1.0000000 )
                  (  0.0000000 -1.0000000  0.0000000 )
                  (  1.0000000 -0.0000000  0.0000000 )


      isym = 20     inv.  90 deg rotation - cart. axis [0,-1,0]  

 cryst.   s(20) = (    -1          1          0      )
                  (    -1          0          1      )
                  (    -1          0          0      )

 cart.    s(20) = ( -0.0000000  0.0000000  1.0000000 )
                  ( -0.0000000 -1.0000000 -0.0000000 )
                  ( -1.0000000 -0.0000000 -0.0000000 )


      isym = 21     inv. 180 deg rotation - cart. axis [0,1,1]   

 cryst.   s(21) = (    -1          0          0      )
                  (    -1          1          0      )
                  (    -1          0          1      )

 cart.    s(21) = (  1.0000000 -0.0000000  0.0000000 )
                  ( -0.0000000 -0.0000000 -1.0000000 )
                  ( -0.0000000 -1.0000000 -0.0000000 )


      isym = 22     inv. 180 deg rotation - cart. axis [0,1,-1]  

 cryst.   s(22) = (     1          0          0      )
                  (     0          0          1      )
                  (     0          1          0      )

 cart.    s(22) = (  1.0000000  0.0000000 -0.0000000 )
                  ( -0.0000000  0.0000000  1.0000000 )
                  ( -0.0000000  1.0000000  0.0000000 )


      isym = 23     inv.  90 deg rotation - cart. axis [-1,0,0]  

 cryst.   s(23) = (     0          1         -1      )
                  (     0          0         -1      )
                  (     1          0         -1      )

 cart.    s(23) = ( -1.0000000  0.0000000  0.0000000 )
                  (  0.0000000  0.0000000 -1.0000000 )
                  (  0.0000000  1.0000000 -0.0000000 )


      isym = 24     inv.  90 deg rotation - cart. axis [1,0,0]   

 cryst.   s(24) = (     0         -1          1      )
                  (     1         -1          0      )
                  (     0         -1          0      )

 cart.    s(24) = ( -1.0000000 -0.0000000 -0.0000000 )
                  (  0.0000000 -0.0000000  1.0000000 )
                  (  0.0000000 -1.0000000  0.0000000 )


   Cartesian axes

     site n.     atom                  positions (alat units)
         1           Y   tau(   1) = (   0.3535534   0.3535534   0.3535534  )
         2           V   tau(   2) = (   0.7071068   0.0000000   0.0000000  )
         3           Cr  tau(   3) = (   0.0000000   0.0000000   0.0000000  )
         4           Si  tau(   4) = (   0.3535534   0.3535534   1.0606602  )

   Crystallographic axes

     site n.     atom                  positions (cryst. coord.)
         1           Y   tau(   1) = (  0.2500000  0.2500000  0.2500000  )
         2           V   tau(   2) = ( -0.5000000  0.5000000  0.5000000  )
         3           Cr  tau(   3) = (  0.0000000  0.0000000  0.0000000  )
         4           Si  tau(   4) = (  0.7500000  0.7500000 -0.2500000  )

     number of k points=    72  Marzari-Vanderbilt smearing, width (Ry)=  0.0100
                       cart. coord. in units 2pi/alat
        k(    1) = (   0.0000000   0.0000000   0.0000000), wk =   0.0005787
        k(    2) = (   0.0589256   0.0589256  -0.0589256), wk =   0.0046296
        k(    3) = (   0.1178511   0.1178511  -0.1178511), wk =   0.0046296
        k(    4) = (   0.1767767   0.1767767  -0.1767767), wk =   0.0046296
        k(    5) = (   0.2357023   0.2357023  -0.2357023), wk =   0.0046296
        k(    6) = (   0.2946278   0.2946278  -0.2946278), wk =   0.0046296
        k(    7) = (  -0.3535534  -0.3535534   0.3535534), wk =   0.0023148
        k(    8) = (   0.1178511   0.0000000  -0.0000000), wk =   0.0034722
        k(    9) = (   0.1767767   0.0589256  -0.0589256), wk =   0.0138889
        k(   10) = (   0.2357023   0.1178511  -0.1178511), wk =   0.0138889
        k(   11) = (   0.2946278   0.1767767  -0.1767767), wk =   0.0138889
        k(   12) = (   0.3535534   0.2357023  -0.2357023), wk =   0.0138889
        k(   13) = (  -0.2946278  -0.4124790   0.4124790), wk =   0.0138889
        k(   14) = (  -0.2357023  -0.3535534   0.3535534), wk =   0.0138889
        k(   15) = (  -0.1767767  -0.2946278   0.2946278), wk =   0.0138889
        k(   16) = (  -0.1178511  -0.2357023   0.2357023), wk =   0.0138889
        k(   17) = (  -0.0589256  -0.1767767   0.1767767), wk =   0.0138889
        k(   18) = (  -0.0000000  -0.1178511   0.1178511), wk =   0.0069444
        k(   19) = (   0.2357023   0.0000000  -0.0000000), wk =   0.0034722
        k(   20) = (   0.2946278   0.0589256  -0.0589256), wk =   0.0138889
        k(   21) = (   0.3535534   0.1178511  -0.1178511), wk =   0.0138889
        k(   22) = (   0.4124790   0.1767767  -0.1767767), wk =   0.0138889
        k(   23) = (  -0.2357023  -0.4714045   0.4714045), wk =   0.0138889
        k(   24) = (  -0.1767767  -0.4124790   0.4124790), wk =   0.0138889
        k(   25) = (  -0.1178511  -0.3535534   0.3535534), wk =   0.0138889
        k(   26) = (  -0.0589256  -0.2946278   0.2946278), wk =   0.0138889
        k(   27) = (   0.0000000  -0.2357023   0.2357023), wk =   0.0069444
        k(   28) = (   0.3535534   0.0000000   0.0000000), wk =   0.0034722
        k(   29) = (   0.4124790   0.0589256  -0.0589256), wk =   0.0138889
        k(   30) = (   0.4714045   0.1178511  -0.1178511), wk =   0.0138889
        k(   31) = (  -0.1767767  -0.5303301   0.5303301), wk =   0.0138889
        k(   32) = (  -0.1178511  -0.4714045   0.4714045), wk =   0.0138889
        k(   33) = (  -0.0589256  -0.4124790   0.4124790), wk =   0.0138889
        k(   34) = (   0.0000000  -0.3535534   0.3535534), wk =   0.0069444
        k(   35) = (   0.4714045   0.0000000  -0.0000000), wk =   0.0034722
        k(   36) = (   0.5303301   0.0589256  -0.0589256), wk =   0.0138889
        k(   37) = (  -0.1178511  -0.5892557   0.5892557), wk =   0.0138889
        k(   38) = (  -0.0589256  -0.5303301   0.5303301), wk =   0.0138889
        k(   39) = (  -0.0000000  -0.4714045   0.4714045), wk =   0.0069444
        k(   40) = (   0.5892557   0.0000000  -0.0000000), wk =   0.0034722
        k(   41) = (  -0.0589256  -0.6481812   0.6481812), wk =   0.0138889
        k(   42) = (   0.0000000  -0.5892557   0.5892557), wk =   0.0069444
        k(   43) = (  -0.7071068   0.0000000   0.0000000), wk =   0.0017361
        k(   44) = (   0.2357023   0.1178511   0.0000000), wk =   0.0138889
        k(   45) = (   0.2946278   0.1767767  -0.0589256), wk =   0.0277778
        k(   46) = (   0.3535534   0.2357023  -0.1178511), wk =   0.0277778
        k(   47) = (  -0.2946278  -0.4124790   0.5303301), wk =   0.0277778
        k(   48) = (  -0.2357023  -0.3535534   0.4714045), wk =   0.0138889
        k(   49) = (   0.3535534   0.1178511  -0.0000000), wk =   0.0138889
        k(   50) = (   0.4124790   0.1767767  -0.0589256), wk =   0.0277778
        k(   51) = (  -0.2357023  -0.4714045   0.5892557), wk =   0.0277778
        k(   52) = (  -0.1767767  -0.4124790   0.5303301), wk =   0.0277778
        k(   53) = (  -0.1178511  -0.3535534   0.4714045), wk =   0.0277778
        k(   54) = (  -0.0589256  -0.2946278   0.4124790), wk =   0.0277778
        k(   55) = (   0.0000000  -0.2357023   0.3535534), wk =   0.0138889
        k(   56) = (   0.4714045   0.1178511  -0.0000000), wk =   0.0138889
        k(   57) = (  -0.1767767  -0.5303301   0.6481812), wk =   0.0277778
        k(   58) = (  -0.1178511  -0.4714045   0.5892557), wk =   0.0277778
        k(   59) = (  -0.0589256  -0.4124790   0.5303301), wk =   0.0277778
        k(   60) = (   0.0000000  -0.3535534   0.4714045), wk =   0.0138889
        k(   61) = (  -0.1178511  -0.5892557   0.7071068), wk =   0.0138889
        k(   62) = (  -0.0589256  -0.5303301   0.6481812), wk =   0.0277778
        k(   63) = (  -0.0000000  -0.4714045   0.5892557), wk =   0.0138889
        k(   64) = (  -0.7071068   0.1178511  -0.0000000), wk =   0.0069444
        k(   65) = (  -0.2357023  -0.4714045   0.7071068), wk =   0.0138889
        k(   66) = (  -0.1767767  -0.4124790   0.6481812), wk =   0.0277778
        k(   67) = (  -0.1178511  -0.3535534   0.5892557), wk =   0.0138889
        k(   68) = (  -0.1178511  -0.4714045   0.7071068), wk =   0.0138889
        k(   69) = (  -0.0589256  -0.4124790   0.6481812), wk =   0.0277778
        k(   70) = (   0.0000000  -0.3535534   0.5892557), wk =   0.0138889
        k(   71) = (  -0.7071068   0.2357023   0.0000000), wk =   0.0069444
        k(   72) = (  -0.7071068   0.3535534   0.0000000), wk =   0.0034722

                       cryst. coord.
        k(    1) = (   0.0000000   0.0000000   0.0000000), wk =   0.0005787
        k(    2) = (   0.0000000   0.0000000   0.0833333), wk =   0.0046296
        k(    3) = (   0.0000000   0.0000000   0.1666667), wk =   0.0046296
        k(    4) = (   0.0000000   0.0000000   0.2500000), wk =   0.0046296
        k(    5) = (   0.0000000   0.0000000   0.3333333), wk =   0.0046296
        k(    6) = (  -0.0000000  -0.0000000   0.4166667), wk =   0.0046296
        k(    7) = (  -0.0000000  -0.0000000  -0.5000000), wk =   0.0023148
        k(    8) = (  -0.0000000   0.0833333   0.0833333), wk =   0.0034722
        k(    9) = (   0.0000000   0.0833333   0.1666667), wk =   0.0138889
        k(   10) = (  -0.0000000   0.0833333   0.2500000), wk =   0.0138889
        k(   11) = (   0.0000000   0.0833333   0.3333333), wk =   0.0138889
        k(   12) = (  -0.0000000   0.0833333   0.4166667), wk =   0.0138889
        k(   13) = (  -0.0000000   0.0833333  -0.5000000), wk =   0.0138889
        k(   14) = (   0.0000000   0.0833333  -0.4166667), wk =   0.0138889
        k(   15) = (  -0.0000000   0.0833333  -0.3333333), wk =   0.0138889
        k(   16) = (  -0.0000000   0.0833333  -0.2500000), wk =   0.0138889
        k(   17) = (   0.0000000   0.0833333  -0.1666667), wk =   0.0138889
        k(   18) = (   0.0000000   0.0833333  -0.0833333), wk =   0.0069444
        k(   19) = (  -0.0000000   0.1666667   0.1666667), wk =   0.0034722
        k(   20) = (  -0.0000000   0.1666667   0.2500000), wk =   0.0138889
        k(   21) = (   0.0000000   0.1666667   0.3333333), wk =   0.0138889
        k(   22) = (   0.0000000   0.1666667   0.4166667), wk =   0.0138889
        k(   23) = (  -0.0000000   0.1666667  -0.5000000), wk =   0.0138889
        k(   24) = (  -0.0000000   0.1666667  -0.4166667), wk =   0.0138889
        k(   25) = (  -0.0000000   0.1666667  -0.3333333), wk =   0.0138889
        k(   26) = (   0.0000000   0.1666667  -0.2500000), wk =   0.0138889
        k(   27) = (   0.0000000   0.1666667  -0.1666667), wk =   0.0069444
        k(   28) = (   0.0000000   0.2500000   0.2500000), wk =   0.0034722
        k(   29) = (  -0.0000000   0.2500000   0.3333333), wk =   0.0138889
        k(   30) = (  -0.0000000   0.2500000   0.4166667), wk =   0.0138889
        k(   31) = (   0.0000000   0.2500000  -0.5000000), wk =   0.0138889
        k(   32) = (  -0.0000000   0.2500000  -0.4166667), wk =   0.0138889
        k(   33) = (  -0.0000000   0.2500000  -0.3333333), wk =   0.0138889
        k(   34) = (  -0.0000000   0.2500000  -0.2500000), wk =   0.0069444
        k(   35) = (  -0.0000000   0.3333333   0.3333333), wk =   0.0034722
        k(   36) = (  -0.0000000   0.3333333   0.4166667), wk =   0.0138889
        k(   37) = (   0.0000000   0.3333333  -0.5000000), wk =   0.0138889
        k(   38) = (  -0.0000000   0.3333333  -0.4166667), wk =   0.0138889
        k(   39) = (   0.0000000   0.3333333  -0.3333333), wk =   0.0069444
        k(   40) = (   0.0000000   0.4166667   0.4166667), wk =   0.0034722
        k(   41) = (   0.0000000   0.4166667  -0.5000000), wk =   0.0138889
        k(   42) = (   0.0000000   0.4166667  -0.4166667), wk =   0.0069444
        k(   43) = (   0.0000000  -0.5000000  -0.5000000), wk =   0.0017361
        k(   44) = (   0.0833333   0.1666667   0.2500000), wk =   0.0138889
        k(   45) = (   0.0833333   0.1666667   0.3333333), wk =   0.0277778
        k(   46) = (   0.0833333   0.1666667   0.4166667), wk =   0.0277778
        k(   47) = (   0.0833333   0.1666667  -0.5000000), wk =   0.0277778
        k(   48) = (   0.0833333   0.1666667  -0.4166667), wk =   0.0138889
        k(   49) = (   0.0833333   0.2500000   0.3333333), wk =   0.0138889
        k(   50) = (   0.0833333   0.2500000   0.4166667), wk =   0.0277778
        k(   51) = (   0.0833333   0.2500000  -0.5000000), wk =   0.0277778
        k(   52) = (   0.0833333   0.2500000  -0.4166667), wk =   0.0277778
        k(   53) = (   0.0833333   0.2500000  -0.3333333), wk =   0.0277778
        k(   54) = (   0.0833333   0.2500000  -0.2500000), wk =   0.0277778
        k(   55) = (   0.0833333   0.2500000  -0.1666667), wk =   0.0138889
        k(   56) = (   0.0833333   0.3333333   0.4166667), wk =   0.0138889
        k(   57) = (   0.0833333   0.3333333  -0.5000000), wk =   0.0277778
        k(   58) = (   0.0833333   0.3333333  -0.4166667), wk =   0.0277778
        k(   59) = (   0.0833333   0.3333333  -0.3333333), wk =   0.0277778
        k(   60) = (   0.0833333   0.3333333  -0.2500000), wk =   0.0138889
        k(   61) = (   0.0833333   0.4166667  -0.5000000), wk =   0.0138889
        k(   62) = (   0.0833333   0.4166667  -0.4166667), wk =   0.0277778
        k(   63) = (   0.0833333   0.4166667  -0.3333333), wk =   0.0138889
        k(   64) = (   0.0833333  -0.5000000  -0.4166667), wk =   0.0069444
        k(   65) = (   0.1666667   0.3333333  -0.5000000), wk =   0.0138889
        k(   66) = (   0.1666667   0.3333333  -0.4166667), wk =   0.0277778
        k(   67) = (   0.1666667   0.3333333  -0.3333333), wk =   0.0138889
        k(   68) = (   0.1666667   0.4166667  -0.4166667), wk =   0.0138889
        k(   69) = (   0.1666667   0.4166667  -0.3333333), wk =   0.0277778
        k(   70) = (   0.1666667   0.4166667  -0.2500000), wk =   0.0138889
        k(   71) = (   0.1666667  -0.5000000  -0.3333333), wk =   0.0069444
        k(   72) = (   0.2500000  -0.5000000  -0.2500000), wk =   0.0034722

     Dense  grid:    39693 G-vectors     FFT dimensions: (  48,  48,  48)

     Smooth grid:    14163 G-vectors     FFT dimensions: (  36,  36,  36)

     Dynamical RAM for                 wfc:       0.67 MB

     Dynamical RAM for     wfc (w. buffer):      97.35 MB

     Dynamical RAM for           str. fact:       2.42 MB

     Dynamical RAM for           local pot:       0.00 MB

     Dynamical RAM for          nlocal pot:       1.93 MB

     Dynamical RAM for                qrad:       5.74 MB

     Dynamical RAM for          rho,v,vnew:       8.70 MB

     Dynamical RAM for               rhoin:       2.90 MB

     Dynamical RAM for            rho*nmix:      19.38 MB

     Dynamical RAM for           G-vectors:       2.38 MB

     Dynamical RAM for          h,s,v(r/c):       0.11 MB

     Dynamical RAM for          <psi|beta>:       0.03 MB

     Dynamical RAM for                 psi:       1.34 MB

     Dynamical RAM for                hpsi:       1.34 MB

     Dynamical RAM for                spsi:       1.34 MB

     Dynamical RAM for      wfcinit/wfcrot:       1.36 MB

     Dynamical RAM for           addusdens:     113.87 MB

     Dynamical RAM for          addusforce:     113.87 MB

     Dynamical RAM for         addusstress:     122.65 MB

     Estimated static dynamical RAM per process >     129.52 MB

     Estimated max dynamical RAM per process >     271.54 MB

     Atomic positions and unit cell read from directory:
     ./out/aiida.save/
 

     Check: negative core charge=   -0.000004
     Generating pointlists ...
     new r_m :   0.2526 (alat units)  2.1096 (a.u.) for type    1
     new r_m :   0.2526 (alat units)  2.1096 (a.u.) for type    2
     new r_m :   0.2526 (alat units)  2.1096 (a.u.) for type    3
     new r_m :   0.2526 (alat units)  2.1096 (a.u.) for type    4

     The initial density is read from file :
     ./out/aiida.save/charge-density


     negative rho (up, down):  2.092E-04 1.630E-03
     Starting wfcs from file

     total cpu time spent up to now is        3.3 secs

     per-process dynamical memory:   386.6 Mb

     Self-consistent Calculation
[tb_dev] Currently allocated     3.05E-05 Mbytes, locked:    0 /   2
[tb_pin] Currently allocated     0.00E+00 Mbytes, locked:    0 /   0

     iteration #  1     ecut=    40.00 Ry     beta= 0.10
     Davidson diagonalization with overlap

---- Real-time Memory Report at c_bands before calling an iterative solver
           489 MiB given to the printing process from OS
           377 MiB allocation reported by mallinfo(arena+hblkhd)
         59640 MiB available memory on the node where the printing process lives
     GPU memory used/free/total (MiB): 590 / 15690 / 16280
------------------
     ethr =  1.00E-05,  avg # of iterations =  2.0

     Threshold (ethr) on eigenvalues was too large:
     Diagonalizing with lowered threshold

     Davidson diagonalization with overlap

---- Real-time Memory Report at c_bands before calling an iterative solver
           945 MiB given to the printing process from OS
           786 MiB allocation reported by mallinfo(arena+hblkhd)
         58719 MiB available memory on the node where the printing process lives
     GPU memory used/free/total (MiB): 952 / 15328 / 16280
------------------
     ethr =  1.81E-07,  avg # of iterations =  5.4

     negative rho (up, down):  2.104E-04 1.629E-03

     total cpu time spent up to now is       10.2 secs

     total energy              =    -424.30171869 Ry
     estimated scf accuracy    <       0.00007102 Ry

     total magnetization       =     3.16 Bohr mag/cell
     absolute magnetization    =     3.32 Bohr mag/cell
[tb_dev] Currently allocated     4.69E-01 Mbytes, locked:    0 /   6
[tb_pin] Currently allocated     0.00E+00 Mbytes, locked:    0 /   0

     iteration #  2     ecut=    40.00 Ry     beta= 0.10
     Davidson diagonalization with overlap

---- Real-time Memory Report at c_bands before calling an iterative solver
           977 MiB given to the printing process from OS
           789 MiB allocation reported by mallinfo(arena+hblkhd)
         58709 MiB available memory on the node where the printing process lives
     GPU memory used/free/total (MiB): 954 / 15326 / 16280
------------------
     ethr =  1.69E-07,  avg # of iterations =  1.0

     negative rho (up, down):  2.110E-04 1.628E-03

     total cpu time spent up to now is       12.0 secs

     total energy              =    -424.30172720 Ry
     estimated scf accuracy    <       0.00007145 Ry

     total magnetization       =     3.15 Bohr mag/cell
     absolute magnetization    =     3.31 Bohr mag/cell
[tb_dev] Currently allocated     4.69E-01 Mbytes, locked:    0 /   6
[tb_pin] Currently allocated     0.00E+00 Mbytes, locked:    0 /   0

     iteration #  3     ecut=    40.00 Ry     beta= 0.10
     Davidson diagonalization with overlap

---- Real-time Memory Report at c_bands before calling an iterative solver
           980 MiB given to the printing process from OS
           789 MiB allocation reported by mallinfo(arena+hblkhd)
         58708 MiB available memory on the node where the printing process lives
     GPU memory used/free/total (MiB): 954 / 15326 / 16280
------------------
     ethr =  1.69E-07,  avg # of iterations =  1.0

     negative rho (up, down):  2.209E-04 1.619E-03

     total cpu time spent up to now is       13.8 secs

     total energy              =    -424.30180436 Ry
     estimated scf accuracy    <       0.00006908 Ry

     total magnetization       =     3.15 Bohr mag/cell
     absolute magnetization    =     3.31 Bohr mag/cell
[tb_dev] Currently allocated     4.69E-01 Mbytes, locked:    0 /   6
[tb_pin] Currently allocated     0.00E+00 Mbytes, locked:    0 /   0

     iteration #  4     ecut=    40.00 Ry     beta= 0.10
     Davidson diagonalization with overlap

---- Real-time Memory Report at c_bands before calling an iterative solver
           982 MiB given to the printing process from OS
           790 MiB allocation reported by mallinfo(arena+hblkhd)
         58708 MiB available memory on the node where the printing process lives
     GPU memory used/free/total (MiB): 954 / 15326 / 16280
------------------
     ethr =  1.64E-07,  avg # of iterations =  3.9

     negative rho (up, down):  2.206E-04 1.620E-03

     total cpu time spent up to now is       16.9 secs

     total energy              =    -424.30185243 Ry
     estimated scf accuracy    <       0.00006657 Ry

     total magnetization       =     3.09 Bohr mag/cell
     absolute magnetization    =     3.24 Bohr mag/cell
[tb_dev] Currently allocated     4.69E-01 Mbytes, locked:    0 /   6
[tb_pin] Currently allocated     0.00E+00 Mbytes, locked:    0 /   0

     iteration #  5     ecut=    40.00 Ry     beta= 0.10
     Davidson diagonalization with overlap

---- Real-time Memory Report at c_bands before calling an iterative solver
           984 MiB given to the printing process from OS
           791 MiB allocation reported by mallinfo(arena+hblkhd)
         58707 MiB available memory on the node where the printing process lives
     GPU memory used/free/total (MiB): 954 / 15326 / 16280
------------------
     ethr =  1.59E-07,  avg # of iterations =  1.1

     negative rho (up, down):  2.222E-04 1.618E-03

     total cpu time spent up to now is       18.7 secs

     total energy              =    -424.30187241 Ry
     estimated scf accuracy    <       0.00006723 Ry

     total magnetization       =     3.09 Bohr mag/cell
     absolute magnetization    =     3.25 Bohr mag/cell
[tb_dev] Currently allocated     4.69E-01 Mbytes, locked:    0 /   6
[tb_pin] Currently allocated     0.00E+00 Mbytes, locked:    0 /   0

     iteration #  6     ecut=    40.00 Ry     beta= 0.10
     Davidson diagonalization with overlap

---- Real-time Memory Report at c_bands before calling an iterative solver
           987 MiB given to the printing process from OS
           792 MiB allocation reported by mallinfo(arena+hblkhd)
         58706 MiB available memory on the node where the printing process lives
     GPU memory used/free/total (MiB): 954 / 15326 / 16280
------------------
     ethr =  1.59E-07,  avg # of iterations =  1.0

     negative rho (up, down):  2.672E-04 1.579E-03

     total cpu time spent up to now is       20.5 secs

     total energy              =    -424.30143312 Ry
     estimated scf accuracy    <       0.00006931 Ry

     total magnetization       =     3.08 Bohr mag/cell
     absolute magnetization    =     3.23 Bohr mag/cell
[tb_dev] Currently allocated     4.69E-01 Mbytes, locked:    0 /   6
[tb_pin] Currently allocated     0.00E+00 Mbytes, locked:    0 /   0

     iteration #  7     ecut=    40.00 Ry     beta= 0.10
     Davidson diagonalization with overlap

---- Real-time Memory Report at c_bands before calling an iterative solver
           989 MiB given to the printing process from OS
           793 MiB allocation reported by mallinfo(arena+hblkhd)
         58704 MiB available memory on the node where the printing process lives
     GPU memory used/free/total (MiB): 954 / 15326 / 16280
------------------
     ethr =  1.59E-07,  avg # of iterations =  8.1

     negative rho (up, down):  2.164E-04 1.624E-03

     total cpu time spent up to now is       26.1 secs

     total energy              =    -424.30016140 Ry
     estimated scf accuracy    <       0.00028092 Ry

     total magnetization       =     2.74 Bohr mag/cell
     absolute magnetization    =     2.90 Bohr mag/cell
[tb_dev] Currently allocated     4.69E-01 Mbytes, locked:    0 /   6
[tb_pin] Currently allocated     0.00E+00 Mbytes, locked:    0 /   0

     iteration #  8     ecut=    40.00 Ry     beta= 0.10
     Davidson diagonalization with overlap

---- Real-time Memory Report at c_bands before calling an iterative solver
           991 MiB given to the printing process from OS
           793 MiB allocation reported by mallinfo(arena+hblkhd)
         58703 MiB available memory on the node where the printing process lives
     GPU memory used/free/total (MiB): 954 / 15326 / 16280
------------------
     ethr =  1.59E-07,  avg # of iterations =  7.9

     negative rho (up, down):  1.874E-04 1.650E-03

     total cpu time spent up to now is       31.2 secs

     total energy              =    -424.30093974 Ry
     estimated scf accuracy    <       0.00009862 Ry

     total magnetization       =     3.13 Bohr mag/cell
     absolute magnetization    =     3.29 Bohr mag/cell
[tb_dev] Currently allocated     4.69E-01 Mbytes, locked:    0 /   6
[tb_pin] Currently allocated     0.00E+00 Mbytes, locked:    0 /   0

     iteration #  9     ecut=    40.00 Ry     beta= 0.10
     Davidson diagonalization with overlap

---- Real-time Memory Report at c_bands before calling an iterative solver
           993 MiB given to the printing process from OS
           795 MiB allocation reported by mallinfo(arena+hblkhd)
         58702 MiB available memory on the node where the printing process lives
     GPU memory used/free/total (MiB): 954 / 15326 / 16280
------------------
     ethr =  1.59E-07,  avg # of iterations =  7.2

     negative rho (up, down):  2.680E-04 1.577E-03

     total cpu time spent up to now is       36.2 secs

     total energy              =    -424.29889631 Ry
     estimated scf accuracy    <       0.00008129 Ry

     total magnetization       =     3.32 Bohr mag/cell
     absolute magnetization    =     3.48 Bohr mag/cell
[tb_dev] Currently allocated     4.69E-01 Mbytes, locked:    0 /   6
[tb_pin] Currently allocated     0.00E+00 Mbytes, locked:    0 /   0

     iteration # 10     ecut=    40.00 Ry     beta= 0.10
     Davidson diagonalization with overlap

---- Real-time Memory Report at c_bands before calling an iterative solver
           994 MiB given to the printing process from OS
           795 MiB allocation reported by mallinfo(arena+hblkhd)
         58701 MiB available memory on the node where the printing process lives
     GPU memory used/free/total (MiB): 966 / 15314 / 16280
------------------
     ethr =  1.59E-07,  avg # of iterations =  9.5

     negative rho (up, down):  2.266E-04 1.615E-03

     total cpu time spent up to now is       42.2 secs

     total energy              =    -424.30075056 Ry
     estimated scf accuracy    <       0.00094438 Ry

     total magnetization       =     2.66 Bohr mag/cell
     absolute magnetization    =     2.83 Bohr mag/cell
[tb_dev] Currently allocated     4.69E-01 Mbytes, locked:    0 /   6
[tb_pin] Currently allocated     0.00E+00 Mbytes, locked:    0 /   0

     iteration # 11     ecut=    40.00 Ry     beta= 0.10
     Davidson diagonalization with overlap

---- Real-time Memory Report at c_bands before calling an iterative solver
           994 MiB given to the printing process from OS
           796 MiB allocation reported by mallinfo(arena+hblkhd)
         58702 MiB available memory on the node where the printing process lives
     GPU memory used/free/total (MiB): 966 / 15314 / 16280
------------------
     ethr =  1.59E-07,  avg # of iterations =  7.3

     negative rho (up, down):  1.945E-04 1.643E-03

     total cpu time spent up to now is       47.3 secs

     total energy              =    -424.30091898 Ry
     estimated scf accuracy    <       0.00038536 Ry

     total magnetization       =     3.04 Bohr mag/cell
     absolute magnetization    =     3.19 Bohr mag/cell
[tb_dev] Currently allocated     4.69E-01 Mbytes, locked:    0 /   6
[tb_pin] Currently allocated     0.00E+00 Mbytes, locked:    0 /   0

     iteration # 12     ecut=    40.00 Ry     beta= 0.10
     Davidson diagonalization with overlap

---- Real-time Memory Report at c_bands before calling an iterative solver
           995 MiB given to the printing process from OS
           796 MiB allocation reported by mallinfo(arena+hblkhd)
         58702 MiB available memory on the node where the printing process lives
     GPU memory used/free/total (MiB): 966 / 15314 / 16280
------------------
     ethr =  1.59E-07,  avg # of iterations =  7.2

     negative rho (up, down):  1.858E-04 1.651E-03

     total cpu time spent up to now is       52.0 secs

     total energy              =    -424.30135751 Ry
     estimated scf accuracy    <       0.00023856 Ry

     total magnetization       =     3.27 Bohr mag/cell
     absolute magnetization    =     3.43 Bohr mag/cell
[tb_dev] Currently allocated     4.69E-01 Mbytes, locked:    0 /   6
[tb_pin] Currently allocated     0.00E+00 Mbytes, locked:    0 /   0

     iteration # 13     ecut=    40.00 Ry     beta= 0.10
     Davidson diagonalization with overlap

---- Real-time Memory Report at c_bands before calling an iterative solver
           995 MiB given to the printing process from OS
           796 MiB allocation reported by mallinfo(arena+hblkhd)
         58702 MiB available memory on the node where the printing process lives
     GPU memory used/free/total (MiB): 966 / 15314 / 16280
------------------
     ethr =  1.59E-07,  avg # of iterations =  3.5

     negative rho (up, down):  1.054E-04 1.722E-03

     total cpu time spent up to now is       54.8 secs

     total energy              =    -424.29672894 Ry
     estimated scf accuracy    <       0.00023735 Ry

     total magnetization       =     3.32 Bohr mag/cell
     absolute magnetization    =     3.48 Bohr mag/cell
[tb_dev] Currently allocated     4.69E-01 Mbytes, locked:    0 /   6
[tb_pin] Currently allocated     0.00E+00 Mbytes, locked:    0 /   0

     iteration # 14     ecut=    40.00 Ry     beta= 0.10
     Davidson diagonalization with overlap

---- Real-time Memory Report at c_bands before calling an iterative solver
           995 MiB given to the printing process from OS
           796 MiB allocation reported by mallinfo(arena+hblkhd)
         58701 MiB available memory on the node where the printing process lives
     GPU memory used/free/total (MiB): 966 / 15314 / 16280
------------------
     c_bands:  1 eigenvalues not converged
     ethr =  1.59E-07,  avg # of iterations =  9.7

     negative rho (up, down):  1.973E-04 1.642E-03

     total cpu time spent up to now is       60.9 secs

     total energy              =    -424.29781234 Ry
     estimated scf accuracy    <       0.00048775 Ry

     total magnetization       =     3.76 Bohr mag/cell
     absolute magnetization    =     3.93 Bohr mag/cell
[tb_dev] Currently allocated     4.69E-01 Mbytes, locked:    0 /   6
[tb_pin] Currently allocated     0.00E+00 Mbytes, locked:    0 /   0

     iteration # 15     ecut=    40.00 Ry     beta= 0.10
     Davidson diagonalization with overlap

---- Real-time Memory Report at c_bands before calling an iterative solver
           995 MiB given to the printing process from OS
           796 MiB allocation reported by mallinfo(arena+hblkhd)
         58703 MiB available memory on the node where the printing process lives
     GPU memory used/free/total (MiB): 966 / 15314 / 16280
------------------
     ethr =  1.59E-07,  avg # of iterations =  9.9

     negative rho (up, down):  1.837E-04 1.653E-03

     total cpu time spent up to now is       67.4 secs

     total energy              =    -424.30127520 Ry
     estimated scf accuracy    <       0.00012183 Ry

     total magnetization       =     3.25 Bohr mag/cell
     absolute magnetization    =     3.40 Bohr mag/cell
[tb_dev] Currently allocated     4.69E-01 Mbytes, locked:    0 /   6
[tb_pin] Currently allocated     0.00E+00 Mbytes, locked:    0 /   0

     iteration # 16     ecut=    40.00 Ry     beta= 0.10
     Davidson diagonalization with overlap

---- Real-time Memory Report at c_bands before calling an iterative solver
           995 MiB given to the printing process from OS
           796 MiB allocation reported by mallinfo(arena+hblkhd)
         58702 MiB available memory on the node where the printing process lives
     GPU memory used/free/total (MiB): 966 / 15314 / 16280
------------------
     ethr =  1.59E-07,  avg # of iterations =  4.9

     negative rho (up, down):  1.238E-05 1.800E-03

     total cpu time spent up to now is       71.0 secs

     total energy              =    -424.28296727 Ry
     estimated scf accuracy    <       0.00018126 Ry

     total magnetization       =     3.33 Bohr mag/cell
     absolute magnetization    =     3.49 Bohr mag/cell
[tb_dev] Currently allocated     4.69E-01 Mbytes, locked:    0 /   6
[tb_pin] Currently allocated     0.00E+00 Mbytes, locked:    0 /   0

     iteration # 17     ecut=    40.00 Ry     beta= 0.10
     Davidson diagonalization with overlap

---- Real-time Memory Report at c_bands before calling an iterative solver
           995 MiB given to the printing process from OS
           796 MiB allocation reported by mallinfo(arena+hblkhd)
         58703 MiB available memory on the node where the printing process lives
     GPU memory used/free/total (MiB): 966 / 15314 / 16280
------------------
     c_bands:  1 eigenvalues not converged
     c_bands:  1 eigenvalues not converged
     c_bands:  1 eigenvalues not converged
     ethr =  1.59E-07,  avg # of iterations = 12.4

     negative rho (up, down):  2.401E-04 1.605E-03

     total cpu time spent up to now is       78.6 secs

     total energy              =    -424.28083647 Ry
     estimated scf accuracy    <       0.00173934 Ry

     total magnetization       =     4.23 Bohr mag/cell
     absolute magnetization    =     4.42 Bohr mag/cell
[tb_dev] Currently allocated     4.69E-01 Mbytes, locked:    0 /   6
[tb_pin] Currently allocated     0.00E+00 Mbytes, locked:    0 /   0

     iteration # 18     ecut=    40.00 Ry     beta= 0.10
     Davidson diagonalization with overlap

---- Real-time Memory Report at c_bands before calling an iterative solver
           995 MiB given to the printing process from OS
           796 MiB allocation reported by mallinfo(arena+hblkhd)
         58703 MiB available memory on the node where the printing process lives
     GPU memory used/free/total (MiB): 966 / 15314 / 16280
------------------
     c_bands:  1 eigenvalues not converged
     c_bands:  1 eigenvalues not converged
     c_bands:  1 eigenvalues not converged
     c_bands:  1 eigenvalues not converged
     c_bands:  1 eigenvalues not converged
     c_bands:  1 eigenvalues not converged
     c_bands:  1 eigenvalues not converged
     c_bands:  1 eigenvalues not converged
     ethr =  1.59E-07,  avg # of iterations = 13.6

     negative rho (up, down):  1.825E-04 1.654E-03

     total cpu time spent up to now is       86.7 secs

     total energy              =    -424.29944417 Ry
     estimated scf accuracy    <       0.00013940 Ry

     total magnetization       =     2.94 Bohr mag/cell
     absolute magnetization    =     3.10 Bohr mag/cell
[tb_dev] Currently allocated     4.69E-01 Mbytes, locked:    0 /   6
[tb_pin] Currently allocated     0.00E+00 Mbytes, locked:    0 /   0

     iteration # 19     ecut=    40.00 Ry     beta= 0.10
     Davidson diagonalization with overlap

---- Real-time Memory Report at c_bands before calling an iterative solver
           995 MiB given to the printing process from OS
           796 MiB allocation reported by mallinfo(arena+hblkhd)
         58703 MiB available memory on the node where the printing process lives
     GPU memory used/free/total (MiB): 966 / 15314 / 16280
------------------
     ethr =  1.59E-07,  avg # of iterations =  8.2

     negative rho (up, down):  1.466E-04 1.684E-03

     total cpu time spent up to now is       92.2 secs

     total energy              =    -424.30014229 Ry
     estimated scf accuracy    <       0.00009522 Ry

     total magnetization       =     3.34 Bohr mag/cell
     absolute magnetization    =     3.50 Bohr mag/cell
[tb_dev] Currently allocated     4.69E-01 Mbytes, locked:    0 /   6
[tb_pin] Currently allocated     0.00E+00 Mbytes, locked:    0 /   0

     iteration # 20     ecut=    40.00 Ry     beta= 0.10
     Davidson diagonalization with overlap

---- Real-time Memory Report at c_bands before calling an iterative solver
           995 MiB given to the printing process from OS
           796 MiB allocation reported by mallinfo(arena+hblkhd)
         58703 MiB available memory on the node where the printing process lives
     GPU memory used/free/total (MiB): 966 / 15314 / 16280
------------------
     ethr =  1.59E-07,  avg # of iterations =  7.3

     negative rho (up, down):  1.594E-04 1.674E-03

     total cpu time spent up to now is       97.1 secs

     total energy              =    -424.30091395 Ry
     estimated scf accuracy    <       0.00017791 Ry

     total magnetization       =     3.54 Bohr mag/cell
     absolute magnetization    =     3.70 Bohr mag/cell
[tb_dev] Currently allocated     4.69E-01 Mbytes, locked:    0 /   6
[tb_pin] Currently allocated     0.00E+00 Mbytes, locked:    0 /   0

     iteration # 21     ecut=    40.00 Ry     beta= 0.10
     Davidson diagonalization with overlap

---- Real-time Memory Report at c_bands before calling an iterative solver
           995 MiB given to the printing process from OS
           796 MiB allocation reported by mallinfo(arena+hblkhd)
         58703 MiB available memory on the node where the printing process lives
     GPU memory used/free/total (MiB): 966 / 15314 / 16280
------------------
     ethr =  1.59E-07,  avg # of iterations =  4.7

     negative rho (up, down):  2.617E-04 1.587E-03

     total cpu time spent up to now is      100.5 secs

     total energy              =    -424.29708243 Ry
     estimated scf accuracy    <       0.00015018 Ry

     total magnetization       =     3.47 Bohr mag/cell
     absolute magnetization    =     3.64 Bohr mag/cell
[tb_dev] Currently allocated     4.69E-01 Mbytes, locked:    0 /   6
[tb_pin] Currently allocated     0.00E+00 Mbytes, locked:    0 /   0

     iteration # 22     ecut=    40.00 Ry     beta= 0.10
     Davidson diagonalization with overlap

---- Real-time Memory Report at c_bands before calling an iterative solver
           996 MiB given to the printing process from OS
           796 MiB allocation reported by mallinfo(arena+hblkhd)
         58703 MiB available memory on the node where the printing process lives
     GPU memory used/free/total (MiB): 966 / 15314 / 16280
------------------
     c_bands:  1 eigenvalues not converged
     ethr =  1.59E-07,  avg # of iterations = 10.8

     negative rho (up, down):  2.753E-04 1.576E-03

     total cpu time spent up to now is      107.6 secs

     total energy              =    -424.30271702 Ry
     estimated scf accuracy    <       0.00019701 Ry

     total magnetization       =     2.75 Bohr mag/cell
     absolute magnetization    =     2.91 Bohr mag/cell
[tb_dev] Currently allocated     4.69E-01 Mbytes, locked:    0 /   6
[tb_pin] Currently allocated     0.00E+00 Mbytes, locked:    0 /   0

     iteration # 23     ecut=    40.00 Ry     beta= 0.10
     Davidson diagonalization with overlap

---- Real-time Memory Report at c_bands before calling an iterative solver
           996 MiB given to the printing process from OS
           796 MiB allocation reported by mallinfo(arena+hblkhd)
         58704 MiB available memory on the node where the printing process lives
     GPU memory used/free/total (MiB): 966 / 15314 / 16280
------------------
     ethr =  1.59E-07,  avg # of iterations =  5.7

     negative rho (up, down):  2.579E-04 1.590E-03

     total cpu time spent up to now is      111.6 secs

     total energy              =    -424.30224963 Ry
     estimated scf accuracy    <       0.00028136 Ry

     total magnetization       =     2.63 Bohr mag/cell
     absolute magnetization    =     2.81 Bohr mag/cell
[tb_dev] Currently allocated     4.69E-01 Mbytes, locked:    0 /   6
[tb_pin] Currently allocated     0.00E+00 Mbytes, locked:    0 /   0

     iteration # 24     ecut=    40.00 Ry     beta= 0.10
     Davidson diagonalization with overlap

---- Real-time Memory Report at c_bands before calling an iterative solver
           996 MiB given to the printing process from OS
           796 MiB allocation reported by mallinfo(arena+hblkhd)
         58704 MiB available memory on the node where the printing process lives
     GPU memory used/free/total (MiB): 966 / 15314 / 16280
------------------
     ethr =  1.59E-07,  avg # of iterations =  5.3

     negative rho (up, down):  2.006E-04 1.639E-03

     total cpu time spent up to now is      115.4 secs

     total energy              =    -424.29954165 Ry
     estimated scf accuracy    <       0.00018105 Ry

     total magnetization       =     2.79 Bohr mag/cell
     absolute magnetization    =     2.95 Bohr mag/cell
[tb_dev] Currently allocated     4.69E-01 Mbytes, locked:    0 /   6
[tb_pin] Currently allocated     0.00E+00 Mbytes, locked:    0 /   0

     iteration # 25     ecut=    40.00 Ry     beta= 0.10
     Davidson diagonalization with overlap

---- Real-time Memory Report at c_bands before calling an iterative solver
           996 MiB given to the printing process from OS
           796 MiB allocation reported by mallinfo(arena+hblkhd)
         58704 MiB available memory on the node where the printing process lives
     GPU memory used/free/total (MiB): 966 / 15314 / 16280
------------------
     ethr =  1.59E-07,  avg # of iterations =  8.1

     negative rho (up, down):  2.548E-04 1.593E-03

     total cpu time spent up to now is      121.3 secs

     total energy              =    -424.30074083 Ry
     estimated scf accuracy    <       0.00007090 Ry

     total magnetization       =     3.23 Bohr mag/cell
     absolute magnetization    =     3.39 Bohr mag/cell
[tb_dev] Currently allocated     4.69E-01 Mbytes, locked:    0 /   6
[tb_pin] Currently allocated     0.00E+00 Mbytes, locked:    0 /   0

     iteration # 26     ecut=    40.00 Ry     beta= 0.10
     Davidson diagonalization with overlap

---- Real-time Memory Report at c_bands before calling an iterative solver
           996 MiB given to the printing process from OS
           796 MiB allocation reported by mallinfo(arena+hblkhd)
         58704 MiB available memory on the node where the printing process lives
     GPU memory used/free/total (MiB): 966 / 15314 / 16280
------------------
     ethr =  1.59E-07,  avg # of iterations =  7.7

     negative rho (up, down):  8.163E-05 1.741E-03

     total cpu time spent up to now is      126.4 secs

     total energy              =    -424.28302076 Ry
     estimated scf accuracy    <       0.00015041 Ry

     total magnetization       =     2.81 Bohr mag/cell
     absolute magnetization    =     2.98 Bohr mag/cell
[tb_dev] Currently allocated     4.69E-01 Mbytes, locked:    0 /   6
[tb_pin] Currently allocated     0.00E+00 Mbytes, locked:    0 /   0

     iteration # 27     ecut=    40.00 Ry     beta= 0.10
     Davidson diagonalization with overlap

---- Real-time Memory Report at c_bands before calling an iterative solver
           996 MiB given to the printing process from OS
           796 MiB allocation reported by mallinfo(arena+hblkhd)
         58704 MiB available memory on the node where the printing process lives
     GPU memory used/free/total (MiB): 966 / 15314 / 16280
------------------
     c_bands:  1 eigenvalues not converged
     c_bands:  1 eigenvalues not converged
     c_bands:  1 eigenvalues not converged
     ethr =  1.59E-07,  avg # of iterations = 12.5

     negative rho (up, down):  1.367E-06 1.809E-03

     total cpu time spent up to now is      133.9 secs

     total energy              =    -424.29281418 Ry
     estimated scf accuracy    <       0.00058540 Ry

     total magnetization       =     3.88 Bohr mag/cell
     absolute magnetization    =     4.06 Bohr mag/cell
[tb_dev] Currently allocated     4.69E-01 Mbytes, locked:    0 /   6
[tb_pin] Currently allocated     0.00E+00 Mbytes, locked:    0 /   0

     iteration # 28     ecut=    40.00 Ry     beta= 0.10
     Davidson diagonalization with overlap

---- Real-time Memory Report at c_bands before calling an iterative solver
           996 MiB given to the printing process from OS
           796 MiB allocation reported by mallinfo(arena+hblkhd)
         58704 MiB available memory on the node where the printing process lives
     GPU memory used/free/total (MiB): 966 / 15314 / 16280
------------------
     c_bands:  1 eigenvalues not converged
     c_bands:  1 eigenvalues not converged
     c_bands:  1 eigenvalues not converged
     c_bands:  1 eigenvalues not converged
     c_bands:  1 eigenvalues not converged
     c_bands:  1 eigenvalues not converged
     c_bands:  1 eigenvalues not converged
     c_bands:  1 eigenvalues not converged
     ethr =  1.59E-07,  avg # of iterations = 10.3

     negative rho (up, down):  1.704E-04 1.666E-03

     total cpu time spent up to now is      140.4 secs

     total energy              =    -424.29007783 Ry
     estimated scf accuracy    <       0.00164798 Ry

     total magnetization       =     4.29 Bohr mag/cell
     absolute magnetization    =     4.48 Bohr mag/cell
[tb_dev] Currently allocated     4.69E-01 Mbytes, locked:    0 /   6
[tb_pin] Currently allocated     0.00E+00 Mbytes, locked:    0 /   0

     iteration # 29     ecut=    40.00 Ry     beta= 0.10
     Davidson diagonalization with overlap

---- Real-time Memory Report at c_bands before calling an iterative solver
           996 MiB given to the printing process from OS
           796 MiB allocation reported by mallinfo(arena+hblkhd)
         58705 MiB available memory on the node where the printing process lives
     GPU memory used/free/total (MiB): 966 / 15314 / 16280
------------------
     c_bands:  1 eigenvalues not converged
     c_bands:  1 eigenvalues not converged
     c_bands:  1 eigenvalues not converged
     c_bands:  1 eigenvalues not converged
     c_bands:  1 eigenvalues not converged
     ethr =  1.59E-07,  avg # of iterations = 12.5

     negative rho (up, down):  1.721E-04 1.664E-03

     total cpu time spent up to now is      148.1 secs

     total energy              =    -424.30119361 Ry
     estimated scf accuracy    <       0.00010743 Ry

     total magnetization       =     3.41 Bohr mag/cell
     absolute magnetization    =     3.58 Bohr mag/cell
[tb_dev] Currently allocated     4.69E-01 Mbytes, locked:    0 /   6
[tb_pin] Currently allocated     0.00E+00 Mbytes, locked:    0 /   0

     iteration # 30     ecut=    40.00 Ry     beta= 0.10
     Davidson diagonalization with overlap

---- Real-time Memory Report at c_bands before calling an iterative solver
           996 MiB given to the printing process from OS
           796 MiB allocation reported by mallinfo(arena+hblkhd)
         58704 MiB available memory on the node where the printing process lives
     GPU memory used/free/total (MiB): 966 / 15314 / 16280
------------------
     ethr =  1.59E-07,  avg # of iterations =  1.6

     negative rho (up, down):  1.844E-04 1.654E-03

     total cpu time spent up to now is      150.1 secs

     total energy              =    -424.30129889 Ry
     estimated scf accuracy    <       0.00010621 Ry

     total magnetization       =     3.40 Bohr mag/cell
     absolute magnetization    =     3.57 Bohr mag/cell
[tb_dev] Currently allocated     4.69E-01 Mbytes, locked:    0 /   6
[tb_pin] Currently allocated     0.00E+00 Mbytes, locked:    0 /   0

     iteration # 31     ecut=    40.00 Ry     beta= 0.10
     Davidson diagonalization with overlap

---- Real-time Memory Report at c_bands before calling an iterative solver
           996 MiB given to the printing process from OS
           796 MiB allocation reported by mallinfo(arena+hblkhd)
         58704 MiB available memory on the node where the printing process lives
     GPU memory used/free/total (MiB): 966 / 15314 / 16280
------------------
     ethr =  1.59E-07,  avg # of iterations =  5.0

     negative rho (up, down):  1.870E-04 1.652E-03

     total cpu time spent up to now is      153.6 secs

     total energy              =    -424.30140619 Ry
     estimated scf accuracy    <       0.00009391 Ry

     total magnetization       =     3.33 Bohr mag/cell
     absolute magnetization    =     3.49 Bohr mag/cell
[tb_dev] Currently allocated     4.69E-01 Mbytes, locked:    0 /   6
[tb_pin] Currently allocated     0.00E+00 Mbytes, locked:    0 /   0

     iteration # 32     ecut=    40.00 Ry     beta= 0.10
     Davidson diagonalization with overlap

---- Real-time Memory Report at c_bands before calling an iterative solver
           996 MiB given to the printing process from OS
           796 MiB allocation reported by mallinfo(arena+hblkhd)
         58704 MiB available memory on the node where the printing process lives
     GPU memory used/free/total (MiB): 966 / 15314 / 16280
------------------
     ethr =  1.59E-07,  avg # of iterations =  1.2

     negative rho (up, down):  1.784E-04 1.659E-03

     total cpu time spent up to now is      155.5 secs

     total energy              =    -424.30125482 Ry
     estimated scf accuracy    <       0.00008934 Ry

     total magnetization       =     3.32 Bohr mag/cell
     absolute magnetization    =     3.48 Bohr mag/cell
[tb_dev] Currently allocated     4.69E-01 Mbytes, locked:    0 /   6
[tb_pin] Currently allocated     0.00E+00 Mbytes, locked:    0 /   0

     iteration # 33     ecut=    40.00 Ry     beta= 0.10
     Davidson diagonalization with overlap

---- Real-time Memory Report at c_bands before calling an iterative solver
           996 MiB given to the printing process from OS
           796 MiB allocation reported by mallinfo(arena+hblkhd)
         58704 MiB available memory on the node where the printing process lives
     GPU memory used/free/total (MiB): 966 / 15314 / 16280
------------------
     ethr =  1.59E-07,  avg # of iterations =  2.0

     negative rho (up, down):  1.724E-04 1.664E-03

     total cpu time spent up to now is      157.7 secs

     total energy              =    -424.30117948 Ry
     estimated scf accuracy    <       0.00010138 Ry

     total magnetization       =     3.37 Bohr mag/cell
     absolute magnetization    =     3.53 Bohr mag/cell
[tb_dev] Currently allocated     4.69E-01 Mbytes, locked:    0 /   6
[tb_pin] Currently allocated     0.00E+00 Mbytes, locked:    0 /   0

     iteration # 34     ecut=    40.00 Ry     beta= 0.10
     Davidson diagonalization with overlap

---- Real-time Memory Report at c_bands before calling an iterative solver
           996 MiB given to the printing process from OS
           796 MiB allocation reported by mallinfo(arena+hblkhd)
         58705 MiB available memory on the node where the printing process lives
     GPU memory used/free/total (MiB): 966 / 15314 / 16280
------------------
     ethr =  1.59E-07,  avg # of iterations =  3.4

     negative rho (up, down):  2.211E-04 1.623E-03

     total cpu time spent up to now is      160.5 secs

     total energy              =    -424.30068832 Ry
     estimated scf accuracy    <       0.00010561 Ry

     total magnetization       =     3.40 Bohr mag/cell
     absolute magnetization    =     3.56 Bohr mag/cell
[tb_dev] Currently allocated     4.69E-01 Mbytes, locked:    0 /   6
[tb_pin] Currently allocated     0.00E+00 Mbytes, locked:    0 /   0

     iteration # 35     ecut=    40.00 Ry     beta= 0.10
     Davidson diagonalization with overlap

---- Real-time Memory Report at c_bands before calling an iterative solver
           996 MiB given to the printing process from OS
           796 MiB allocation reported by mallinfo(arena+hblkhd)
         58704 MiB available memory on the node where the printing process lives
     GPU memory used/free/total (MiB): 966 / 15314 / 16280
------------------
     ethr =  1.59E-07,  avg # of iterations =  7.4

     negative rho (up, down):  2.182E-04 1.625E-03

     total cpu time spent up to now is      165.5 secs

     total energy              =    -424.30181880 Ry
     estimated scf accuracy    <       0.00008215 Ry

     total magnetization       =     3.09 Bohr mag/cell
     absolute magnetization    =     3.25 Bohr mag/cell
[tb_dev] Currently allocated     4.69E-01 Mbytes, locked:    0 /   6
[tb_pin] Currently allocated     0.00E+00 Mbytes, locked:    0 /   0

     iteration # 36     ecut=    40.00 Ry     beta= 0.10
     Davidson diagonalization with overlap

---- Real-time Memory Report at c_bands before calling an iterative solver
           996 MiB given to the printing process from OS
           796 MiB allocation reported by mallinfo(arena+hblkhd)
         58704 MiB available memory on the node where the printing process lives
     GPU memory used/free/total (MiB): 966 / 15314 / 16280
------------------
     ethr =  1.59E-07,  avg # of iterations =  1.1

     negative rho (up, down):  2.322E-04 1.613E-03

     total cpu time spent up to now is      167.3 secs

     total energy              =    -424.30190826 Ry
     estimated scf accuracy    <       0.00008204 Ry

     total magnetization       =     3.11 Bohr mag/cell
     absolute magnetization    =     3.27 Bohr mag/cell
[tb_dev] Currently allocated     4.69E-01 Mbytes, locked:    0 /   6
[tb_pin] Currently allocated     0.00E+00 Mbytes, locked:    0 /   0

     iteration # 37     ecut=    40.00 Ry     beta= 0.10
     Davidson diagonalization with overlap

---- Real-time Memory Report at c_bands before calling an iterative solver
           996 MiB given to the printing process from OS
           796 MiB allocation reported by mallinfo(arena+hblkhd)
         58704 MiB available memory on the node where the printing process lives
     GPU memory used/free/total (MiB): 966 / 15314 / 16280
------------------
     ethr =  1.59E-07,  avg # of iterations =  5.0

     negative rho (up, down):  8.097E-05 1.742E-03

     total cpu time spent up to now is      171.1 secs

     total energy              =    -424.28751560 Ry
     estimated scf accuracy    <       0.00008877 Ry

     total magnetization       =     3.00 Bohr mag/cell
     absolute magnetization    =     3.16 Bohr mag/cell
[tb_dev] Currently allocated     4.69E-01 Mbytes, locked:    0 /   6
[tb_pin] Currently allocated     0.00E+00 Mbytes, locked:    0 /   0

     iteration # 38     ecut=    40.00 Ry     beta= 0.10
     Davidson diagonalization with overlap

---- Real-time Memory Report at c_bands before calling an iterative solver
           996 MiB given to the printing process from OS
           796 MiB allocation reported by mallinfo(arena+hblkhd)
         58705 MiB available memory on the node where the printing process lives
     GPU memory used/free/total (MiB): 966 / 15314 / 16280
------------------
     c_bands:  1 eigenvalues not converged
     c_bands:  1 eigenvalues not converged
     c_bands:  1 eigenvalues not converged
     ethr =  1.59E-07,  avg # of iterations = 12.1

     negative rho (up, down):  1.304E-04 1.700E-03

     total cpu time spent up to now is      178.4 secs

     total energy              =    -424.29938220 Ry
     estimated scf accuracy    <       0.00067987 Ry

     total magnetization       =     3.88 Bohr mag/cell
     absolute magnetization    =     4.06 Bohr mag/cell
[tb_dev] Currently allocated     4.69E-01 Mbytes, locked:    0 /   6
[tb_pin] Currently allocated     0.00E+00 Mbytes, locked:    0 /   0

     iteration # 39     ecut=    40.00 Ry     beta= 0.10
     Davidson diagonalization with overlap

---- Real-time Memory Report at c_bands before calling an iterative solver
           996 MiB given to the printing process from OS
           796 MiB allocation reported by mallinfo(arena+hblkhd)
         58705 MiB available memory on the node where the printing process lives
     GPU memory used/free/total (MiB): 966 / 15314 / 16280
------------------
     ethr =  1.59E-07,  avg # of iterations =  7.2

     negative rho (up, down):  1.755E-04 1.663E-03

     total cpu time spent up to now is      183.3 secs

     total energy              =    -424.30032161 Ry
     estimated scf accuracy    <       0.00034710 Ry

     total magnetization       =     3.63 Bohr mag/cell
     absolute magnetization    =     3.80 Bohr mag/cell
[tb_dev] Currently allocated     4.69E-01 Mbytes, locked:    0 /   6
[tb_pin] Currently allocated     0.00E+00 Mbytes, locked:    0 /   0

     iteration # 40     ecut=    40.00 Ry     beta= 0.10
     Davidson diagonalization with overlap

---- Real-time Memory Report at c_bands before calling an iterative solver
           996 MiB given to the printing process from OS
           796 MiB allocation reported by mallinfo(arena+hblkhd)
         58705 MiB available memory on the node where the printing process lives
     GPU memory used/free/total (MiB): 966 / 15314 / 16280
------------------
     ethr =  1.59E-07,  avg # of iterations =  7.6

     negative rho (up, down):  2.480E-04 1.603E-03

     total cpu time spent up to now is      188.5 secs

     total energy              =    -424.29949027 Ry
     estimated scf accuracy    <       0.00009916 Ry

     total magnetization       =     3.38 Bohr mag/cell
     absolute magnetization    =     3.55 Bohr mag/cell
[tb_dev] Currently allocated     4.69E-01 Mbytes, locked:    0 /   6
[tb_pin] Currently allocated     0.00E+00 Mbytes, locked:    0 /   0

     iteration # 41     ecut=    40.00 Ry     beta= 0.10
     Davidson diagonalization with overlap

---- Real-time Memory Report at c_bands before calling an iterative solver
           996 MiB given to the printing process from OS
           796 MiB allocation reported by mallinfo(arena+hblkhd)
         58706 MiB available memory on the node where the printing process lives
     GPU memory used/free/total (MiB): 966 / 15314 / 16280
------------------
     c_bands:  1 eigenvalues not converged
     c_bands:  1 eigenvalues not converged
     c_bands:  1 eigenvalues not converged
     ethr =  1.59E-07,  avg # of iterations =  9.7

     negative rho (up, down):  1.630E-04 1.671E-03

     total cpu time spent up to now is      194.6 secs

     total energy              =    -424.29691678 Ry
     estimated scf accuracy    <       0.00013821 Ry

     total magnetization       =     2.88 Bohr mag/cell
     absolute magnetization    =     3.04 Bohr mag/cell
[tb_dev] Currently allocated     4.69E-01 Mbytes, locked:    0 /   6
[tb_pin] Currently allocated     0.00E+00 Mbytes, locked:    0 /   0

     iteration # 42     ecut=    40.00 Ry     beta= 0.10
     Davidson diagonalization with overlap

---- Real-time Memory Report at c_bands before calling an iterative solver
           996 MiB given to the printing process from OS
           796 MiB allocation reported by mallinfo(arena+hblkhd)
         58706 MiB available memory on the node where the printing process lives
     GPU memory used/free/total (MiB): 966 / 15314 / 16280
------------------
     ethr =  1.59E-07,  avg # of iterations =  9.7

     negative rho (up, down):  1.989E-04 1.641E-03

     total cpu time spent up to now is      200.6 secs

     total energy              =    -424.30095945 Ry
     estimated scf accuracy    <       0.00012531 Ry

     total magnetization       =     3.45 Bohr mag/cell
     absolute magnetization    =     3.62 Bohr mag/cell
[tb_dev] Currently allocated     4.69E-01 Mbytes, locked:    0 /   6
[tb_pin] Currently allocated     0.00E+00 Mbytes, locked:    0 /   0

     iteration # 43     ecut=    40.00 Ry     beta= 0.10
     Davidson diagonalization with overlap

---- Real-time Memory Report at c_bands before calling an iterative solver
           996 MiB given to the printing process from OS
           796 MiB allocation reported by mallinfo(arena+hblkhd)
         58706 MiB available memory on the node where the printing process lives
     GPU memory used/free/total (MiB): 966 / 15314 / 16280
------------------
     ethr =  1.59E-07,  avg # of iterations =  7.3

     negative rho (up, down):  2.064E-04 1.634E-03

     total cpu time spent up to now is      205.3 secs

     total energy              =    -424.30163788 Ry
     estimated scf accuracy    <       0.00006844 Ry

     total magnetization       =     3.24 Bohr mag/cell
     absolute magnetization    =     3.40 Bohr mag/cell
[tb_dev] Currently allocated     4.69E-01 Mbytes, locked:    0 /   6
[tb_pin] Currently allocated     0.00E+00 Mbytes, locked:    0 /   0

     iteration # 44     ecut=    40.00 Ry     beta= 0.10
     Davidson diagonalization with overlap

---- Real-time Memory Report at c_bands before calling an iterative solver
           996 MiB given to the printing process from OS
           796 MiB allocation reported by mallinfo(arena+hblkhd)
         58706 MiB available memory on the node where the printing process lives
     GPU memory used/free/total (MiB): 966 / 15314 / 16280
------------------
     ethr =  1.59E-07,  avg # of iterations =  3.1

     negative rho (up, down):  2.061E-04 1.635E-03

     total cpu time spent up to now is      207.9 secs

     total energy              =    -424.30166565 Ry
     estimated scf accuracy    <       0.00006470 Ry

     total magnetization       =     3.19 Bohr mag/cell
     absolute magnetization    =     3.35 Bohr mag/cell
[tb_dev] Currently allocated     4.69E-01 Mbytes, locked:    0 /   6
[tb_pin] Currently allocated     0.00E+00 Mbytes, locked:    0 /   0

     iteration # 45     ecut=    40.00 Ry     beta= 0.10
     Davidson diagonalization with overlap

---- Real-time Memory Report at c_bands before calling an iterative solver
           996 MiB given to the printing process from OS
           796 MiB allocation reported by mallinfo(arena+hblkhd)
         58704 MiB available memory on the node where the printing process lives
     GPU memory used/free/total (MiB): 966 / 15314 / 16280
------------------
     ethr =  1.54E-07,  avg # of iterations =  1.0

     negative rho (up, down):  1.080E-04 1.717E-03

     total cpu time spent up to now is      209.7 secs

     total energy              =    -424.29523558 Ry
     estimated scf accuracy    <       0.00006633 Ry

     total magnetization       =     3.19 Bohr mag/cell
     absolute magnetization    =     3.35 Bohr mag/cell
[tb_dev] Currently allocated     4.69E-01 Mbytes, locked:    0 /   6
[tb_pin] Currently allocated     0.00E+00 Mbytes, locked:    0 /   0

     iteration # 46     ecut=    40.00 Ry     beta= 0.10
     Davidson diagonalization with overlap

---- Real-time Memory Report at c_bands before calling an iterative solver
           996 MiB given to the printing process from OS
           796 MiB allocation reported by mallinfo(arena+hblkhd)
         58705 MiB available memory on the node where the printing process lives
     GPU memory used/free/total (MiB): 966 / 15314 / 16280
------------------
     ethr =  1.54E-07,  avg # of iterations = 10.4

     negative rho (up, down):  2.569E-04 1.594E-03

     total cpu time spent up to now is      216.2 secs

     total energy              =    -424.29202323 Ry
     estimated scf accuracy    <       0.00036859 Ry

     total magnetization       =     3.74 Bohr mag/cell
     absolute magnetization    =     3.91 Bohr mag/cell
[tb_dev] Currently allocated     4.69E-01 Mbytes, locked:    0 /   6
[tb_pin] Currently allocated     0.00E+00 Mbytes, locked:    0 /   0

     iteration # 47     ecut=    40.00 Ry     beta= 0.10
     Davidson diagonalization with overlap

---- Real-time Memory Report at c_bands before calling an iterative solver
           996 MiB given to the printing process from OS
           796 MiB allocation reported by mallinfo(arena+hblkhd)
         58705 MiB available memory on the node where the printing process lives
     GPU memory used/free/total (MiB): 966 / 15314 / 16280
------------------
     c_bands:  1 eigenvalues not converged
     ethr =  1.54E-07,  avg # of iterations = 12.5

     negative rho (up, down):  2.681E-04 1.584E-03

     total cpu time spent up to now is      223.6 secs

     total energy              =    -424.30260557 Ry
     estimated scf accuracy    <       0.00023775 Ry

     total magnetization       =     2.80 Bohr mag/cell
     absolute magnetization    =     2.96 Bohr mag/cell
[tb_dev] Currently allocated     4.69E-01 Mbytes, locked:    0 /   6
[tb_pin] Currently allocated     0.00E+00 Mbytes, locked:    0 /   0

     iteration # 48     ecut=    40.00 Ry     beta= 0.10
     Davidson diagonalization with overlap

---- Real-time Memory Report at c_bands before calling an iterative solver
           996 MiB given to the printing process from OS
           796 MiB allocation reported by mallinfo(arena+hblkhd)
         58705 MiB available memory on the node where the printing process lives
     GPU memory used/free/total (MiB): 966 / 15314 / 16280
------------------
     ethr =  1.54E-07,  avg # of iterations =  5.2

     negative rho (up, down):  2.462E-04 1.601E-03

     total cpu time spent up to now is      227.2 secs

     total energy              =    -424.30193470 Ry
     estimated scf accuracy    <       0.00037049 Ry

     total magnetization       =     2.70 Bohr mag/cell
     absolute magnetization    =     2.87 Bohr mag/cell
[tb_dev] Currently allocated     4.69E-01 Mbytes, locked:    0 /   6
[tb_pin] Currently allocated     0.00E+00 Mbytes, locked:    0 /   0

     iteration # 49     ecut=    40.00 Ry     beta= 0.10
     Davidson diagonalization with overlap

---- Real-time Memory Report at c_bands before calling an iterative solver
           996 MiB given to the printing process from OS
           796 MiB allocation reported by mallinfo(arena+hblkhd)
         58706 MiB available memory on the node where the printing process lives
     GPU memory used/free/total (MiB): 966 / 15314 / 16280
------------------
     ethr =  1.54E-07,  avg # of iterations =  6.0

     negative rho (up, down):  2.828E-04 1.571E-03

     total cpu time spent up to now is      231.3 secs

     total energy              =    -424.30218567 Ry
     estimated scf accuracy    <       0.00028399 Ry

     total magnetization       =     2.88 Bohr mag/cell
     absolute magnetization    =     3.04 Bohr mag/cell
[tb_dev] Currently allocated     4.69E-01 Mbytes, locked:    0 /   6
[tb_pin] Currently allocated     0.00E+00 Mbytes, locked:    0 /   0

     iteration # 50     ecut=    40.00 Ry     beta= 0.10
     Davidson diagonalization with overlap

[...]
     c_bands:  1 eigenvalues not converged
     c_bands:  1 eigenvalues not converged
     ethr =  1.54E-07,  avg # of iterations = 12.5

     negative rho (up, down):  2.436E-04 1.608E-03

     total cpu time spent up to now is      297.2 secs

     total energy              =    -424.29013303 Ry
     estimated scf accuracy    <       0.00061213 Ry

     total magnetization       =     3.89 Bohr mag/cell
     absolute magnetization    =     4.07 Bohr mag/cell
[tb_dev] Currently allocated     4.69E-01 Mbytes, locked:    0 /   6
[tb_pin] Currently allocated     0.00E+00 Mbytes, locked:    0 /   0

     iteration # 66     ecut=    40.00 Ry     beta= 0.10
     Davidson diagonalization with overlap

---- Real-time Memory Report at c_bands before calling an iterative solver
           996 MiB given to the printing process from OS
           796 MiB allocation reported by mallinfo(arena+hblkhd)
         58706 MiB available memory on the node where the printing process lives
     GPU memory used/free/total (MiB): 966 / 15314 / 16280
------------------
     c_bands:  1 eigenvalues not converged
     c_bands:  1 eigenvalues not converged
     c_bands:  1 eigenvalues not converged
     ethr =  1.54E-07,  avg # of iterations = 12.6

     negative rho (up, down):  2.386E-04 1.612E-03

     total cpu time spent up to now is      304.6 secs

     total energy              =    -424.30210348 Ry
     estimated scf accuracy    <       0.00013921 Ry

     total magnetization       =     2.92 Bohr mag/cell
     absolute magnetization    =     3.08 Bohr mag/cell
[tb_dev] Currently allocated     4.69E-01 Mbytes, locked:    0 /   6
[tb_pin] Currently allocated     0.00E+00 Mbytes, locked:    0 /   0

     iteration # 67     ecut=    40.00 Ry     beta= 0.10
     Davidson diagonalization with overlap

---- Real-time Memory Report at c_bands before calling an iterative solver
           996 MiB given to the printing process from OS
           796 MiB allocation reported by mallinfo(arena+hblkhd)
         58706 MiB available memory on the node where the printing process lives
     GPU memory used/free/total (MiB): 966 / 15314 / 16280
------------------
     ethr =  1.54E-07,  avg # of iterations =  1.5

     negative rho (up, down):  2.707E-04 1.586E-03

     total cpu time spent up to now is      306.7 secs

     total energy              =    -424.30208217 Ry
     estimated scf accuracy    <       0.00012322 Ry

     total magnetization       =     2.96 Bohr mag/cell
     absolute magnetization    =     3.12 Bohr mag/cell
[tb_dev] Currently allocated     4.69E-01 Mbytes, locked:    0 /   6
[tb_pin] Currently allocated     0.00E+00 Mbytes, locked:    0 /   0

     iteration # 68     ecut=    40.00 Ry     beta= 0.10
     Davidson diagonalization with overlap

---- Real-time Memory Report at c_bands before calling an iterative solver
           996 MiB given to the printing process from OS
           796 MiB allocation reported by mallinfo(arena+hblkhd)
         58705 MiB available memory on the node where the printing process lives
     GPU memory used/free/total (MiB): 966 / 15314 / 16280
------------------
     ethr =  1.54E-07,  avg # of iterations =  7.2

     negative rho (up, down):  2.590E-04 1.598E-03

     total cpu time spent up to now is      311.4 secs

     total energy              =    -424.30239286 Ry
     estimated scf accuracy    <       0.00032122 Ry

     total magnetization       =     2.68 Bohr mag/cell
     absolute magnetization    =     2.86 Bohr mag/cell
[tb_dev] Currently allocated     4.69E-01 Mbytes, locked:    0 /   6
[tb_pin] Currently allocated     0.00E+00 Mbytes, locked:    0 /   0

     iteration # 69     ecut=    40.00 Ry     beta= 0.10
     Davidson diagonalization with overlap

---- Real-time Memory Report at c_bands before calling an iterative solver
           996 MiB given to the printing process from OS
           796 MiB allocation reported by mallinfo(arena+hblkhd)
         58706 MiB available memory on the node where the printing process lives
     GPU memory used/free/total (MiB): 966 / 15314 / 16280
------------------
     ethr =  1.54E-07,  avg # of iterations =  3.5

     negative rho (up, down):  2.754E-04 1.585E-03

     total cpu time spent up to now is      314.3 secs

     total energy              =    -424.30267360 Ry
     estimated scf accuracy    <       0.00025895 Ry

     total magnetization       =     2.79 Bohr mag/cell
     absolute magnetization    =     2.96 Bohr mag/cell
[tb_dev] Currently allocated     4.69E-01 Mbytes, locked:    0 /   6
[tb_pin] Currently allocated     0.00E+00 Mbytes, locked:    0 /   0

     iteration # 70     ecut=    40.00 Ry     beta= 0.10
     Davidson diagonalization with overlap

---- Real-time Memory Report at c_bands before calling an iterative solver
           996 MiB given to the printing process from OS
           796 MiB allocation reported by mallinfo(arena+hblkhd)
         58706 MiB available memory on the node where the printing process lives
     GPU memory used/free/total (MiB): 966 / 15314 / 16280
------------------
     ethr =  1.54E-07,  avg # of iterations =  5.0

     negative rho (up, down):  2.498E-04 1.605E-03

     total cpu time spent up to now is      317.9 secs

     total energy              =    -424.30186239 Ry
     estimated scf accuracy    <       0.00040342 Ry

     total magnetization       =     2.64 Bohr mag/cell
     absolute magnetization    =     2.82 Bohr mag/cell
[tb_dev] Currently allocated     4.69E-01 Mbytes, locked:    0 /   6
[tb_pin] Currently allocated     0.00E+00 Mbytes, locked:    0 /   0

     iteration # 71     ecut=    40.00 Ry     beta= 0.10
     Davidson diagonalization with overlap

---- Real-time Memory Report at c_bands before calling an iterative solver
           996 MiB given to the printing process from OS
           796 MiB allocation reported by mallinfo(arena+hblkhd)
         58706 MiB available memory on the node where the printing process lives
     GPU memory used/free/total (MiB): 966 / 15314 / 16280
------------------
     ethr =  1.54E-07,  avg # of iterations =  6.4

     negative rho (up, down):  2.604E-04 1.598E-03

     total cpu time spent up to now is      322.1 secs

     total energy              =    -424.30243810 Ry
     estimated scf accuracy    <       0.00021858 Ry

     total magnetization       =     2.87 Bohr mag/cell
     absolute magnetization    =     3.03 Bohr mag/cell
[tb_dev] Currently allocated     4.69E-01 Mbytes, locked:    0 /   6
[tb_pin] Currently allocated     0.00E+00 Mbytes, locked:    0 /   0

     iteration # 72     ecut=    40.00 Ry     beta= 0.10
     Davidson diagonalization with overlap

---- Real-time Memory Report at c_bands before calling an iterative solver
           996 MiB given to the printing process from OS
           796 MiB allocation reported by mallinfo(arena+hblkhd)
         58706 MiB available memory on the node where the printing process lives
     GPU memory used/free/total (MiB): 966 / 15314 / 16280
------------------
     ethr =  1.54E-07,  avg # of iterations =  4.0

     negative rho (up, down):  2.026E-04 1.644E-03

     total cpu time spent up to now is      325.1 secs

     total energy              =    -424.29956156 Ry
     estimated scf accuracy    <       0.00027314 Ry

     total magnetization       =     2.78 Bohr mag/cell
     absolute magnetization    =     2.95 Bohr mag/cell
[tb_dev] Currently allocated     4.69E-01 Mbytes, locked:    0 /   6
[tb_pin] Currently allocated     0.00E+00 Mbytes, locked:    0 /   0

     iteration # 73     ecut=    40.00 Ry     beta= 0.10
     Davidson diagonalization with overlap

---- Real-time Memory Report at c_bands before calling an iterative solver
           996 MiB given to the printing process from OS
           796 MiB allocation reported by mallinfo(arena+hblkhd)
         58704 MiB available memory on the node where the printing process lives
     GPU memory used/free/total (MiB): 966 / 15314 / 16280
------------------
     ethr =  1.54E-07,  avg # of iterations =  8.3

     negative rho (up, down):  1.968E-04 1.646E-03

     total cpu time spent up to now is      330.8 secs

     total energy              =    -424.30151242 Ry
     estimated scf accuracy    <       0.00012579 Ry

     total magnetization       =     3.22 Bohr mag/cell
     absolute magnetization    =     3.38 Bohr mag/cell
[tb_dev] Currently allocated     4.69E-01 Mbytes, locked:    0 /   6
[tb_pin] Currently allocated     0.00E+00 Mbytes, locked:    0 /   0

     iteration # 74     ecut=    40.00 Ry     beta= 0.10
     Davidson diagonalization with overlap

---- Real-time Memory Report at c_bands before calling an iterative solver
           996 MiB given to the printing process from OS
           796 MiB allocation reported by mallinfo(arena+hblkhd)
         58706 MiB available memory on the node where the printing process lives
     GPU memory used/free/total (MiB): 966 / 15314 / 16280
------------------
     ethr =  1.54E-07,  avg # of iterations =  4.3

     negative rho (up, down):  1.004E-04 1.726E-03

     total cpu time spent up to now is      333.9 secs

     total energy              =    -424.29526083 Ry
     estimated scf accuracy    <       0.00008665 Ry

     total magnetization       =     3.26 Bohr mag/cell
     absolute magnetization    =     3.42 Bohr mag/cell
[tb_dev] Currently allocated     4.69E-01 Mbytes, locked:    0 /   6
[tb_pin] Currently allocated     0.00E+00 Mbytes, locked:    0 /   0

     iteration # 75     ecut=    40.00 Ry     beta= 0.10
     Davidson diagonalization with overlap

---- Real-time Memory Report at c_bands before calling an iterative solver
           996 MiB given to the printing process from OS
           796 MiB allocation reported by mallinfo(arena+hblkhd)
         58706 MiB available memory on the node where the printing process lives
     GPU memory used/free/total (MiB): 966 / 15314 / 16280
------------------
     c_bands:  1 eigenvalues not converged
     c_bands:  1 eigenvalues not converged
     ethr =  1.54E-07,  avg # of iterations = 10.7

     negative rho (up, down):  1.792E-04 1.663E-03

     total cpu time spent up to now is      340.4 secs

     total energy              =    -424.29860785 Ry
     estimated scf accuracy    <       0.00048724 Ry

     total magnetization       =     3.78 Bohr mag/cell
     absolute magnetization    =     3.96 Bohr mag/cell
[tb_dev] Currently allocated     4.69E-01 Mbytes, locked:    0 /   6
[tb_pin] Currently allocated     0.00E+00 Mbytes, locked:    0 /   0

     iteration # 76     ecut=    40.00 Ry     beta= 0.10
     Davidson diagonalization with overlap

---- Real-time Memory Report at c_bands before calling an iterative solver
           996 MiB given to the printing process from OS
           796 MiB allocation reported by mallinfo(arena+hblkhd)
         58706 MiB available memory on the node where the printing process lives
     GPU memory used/free/total (MiB): 966 / 15314 / 16280
------------------
     ethr =  1.54E-07,  avg # of iterations =  9.5

     negative rho (up, down):  2.050E-04 1.642E-03

     total cpu time spent up to now is      346.4 secs

     total energy              =    -424.30131065 Ry
     estimated scf accuracy    <       0.00012097 Ry

     total magnetization       =     3.37 Bohr mag/cell
     absolute magnetization    =     3.53 Bohr mag/cell
[tb_dev] Currently allocated     4.69E-01 Mbytes, locked:    0 /   6
[tb_pin] Currently allocated     0.00E+00 Mbytes, locked:    0 /   0

     iteration # 77     ecut=    40.00 Ry     beta= 0.10
     Davidson diagonalization with overlap

---- Real-time Memory Report at c_bands before calling an iterative solver
           996 MiB given to the printing process from OS
           796 MiB allocation reported by mallinfo(arena+hblkhd)
         58706 MiB available memory on the node where the printing process lives
     GPU memory used/free/total (MiB): 966 / 15314 / 16280
------------------
     ethr =  1.54E-07,  avg # of iterations =  6.8

     negative rho (up, down):  1.795E-04 1.663E-03

     total cpu time spent up to now is      350.9 secs

     total energy              =    -424.30097415 Ry
     estimated scf accuracy    <       0.00009635 Ry

     total magnetization       =     3.21 Bohr mag/cell
     absolute magnetization    =     3.37 Bohr mag/cell
[tb_dev] Currently allocated     4.69E-01 Mbytes, locked:    0 /   6
[tb_pin] Currently allocated     0.00E+00 Mbytes, locked:    0 /   0

     iteration # 78     ecut=    40.00 Ry     beta= 0.10
     Davidson diagonalization with overlap

---- Real-time Memory Report at c_bands before calling an iterative solver
           996 MiB given to the printing process from OS
           796 MiB allocation reported by mallinfo(arena+hblkhd)
         58707 MiB available memory on the node where the printing process lives
     GPU memory used/free/total (MiB): 966 / 15314 / 16280
------------------
     ethr =  1.54E-07,  avg # of iterations =  6.3

     negative rho (up, down):  1.921E-04 1.652E-03

     total cpu time spent up to now is      355.1 secs

     total energy              =    -424.30140536 Ry
     estimated scf accuracy    <       0.00013498 Ry

     total magnetization       =     3.37 Bohr mag/cell
     absolute magnetization    =     3.53 Bohr mag/cell
[tb_dev] Currently allocated     4.69E-01 Mbytes, locked:    0 /   6
[tb_pin] Currently allocated     0.00E+00 Mbytes, locked:    0 /   0

     iteration # 79     ecut=    40.00 Ry     beta= 0.10
     Davidson diagonalization with overlap

---- Real-time Memory Report at c_bands before calling an iterative solver
           996 MiB given to the printing process from OS
           796 MiB allocation reported by mallinfo(arena+hblkhd)
         58707 MiB available memory on the node where the printing process lives
     GPU memory used/free/total (MiB): 966 / 15314 / 16280
------------------
     ethr =  1.54E-07,  avg # of iterations =  4.2

     negative rho (up, down):  1.477E-04 1.688E-03

     total cpu time spent up to now is      358.2 secs

     total energy              =    -424.29983752 Ry
     estimated scf accuracy    <       0.00010625 Ry

     total magnetization       =     3.29 Bohr mag/cell
     absolute magnetization    =     3.45 Bohr mag/cell
[tb_dev] Currently allocated     4.69E-01 Mbytes, locked:    0 /   6
[tb_pin] Currently allocated     0.00E+00 Mbytes, locked:    0 /   0

     iteration # 80     ecut=    40.00 Ry     beta= 0.10
     Davidson diagonalization with overlap

---- Real-time Memory Report at c_bands before calling an iterative solver
           996 MiB given to the printing process from OS
           796 MiB allocation reported by mallinfo(arena+hblkhd)
         58707 MiB available memory on the node where the printing process lives
     GPU memory used/free/total (MiB): 966 / 15314 / 16280
------------------
     ethr =  1.54E-07,  avg # of iterations =  7.2

     negative rho (up, down):  1.425E-04 1.692E-03

     total cpu time spent up to now is      363.0 secs

     total energy              =    -424.30066878 Ry
     estimated scf accuracy    <       0.00029084 Ry

     total magnetization       =     3.54 Bohr mag/cell
     absolute magnetization    =     3.71 Bohr mag/cell

     End of self-consistent calculation

     convergence NOT achieved after  80 iterations: stopping

     Writing config to output data dir ./out/aiida.save/
 
     init_run     :      9.71s CPU      2.07s WALL (       1 calls)
     electrons    :    475.21s CPU    359.71s WALL (       1 calls)

     Called by init_run:
     wfcinit      :      0.17s CPU      0.17s WALL (       1 calls)
                                        0.17s GPU  (       1 calls)
     potinit      :      0.32s CPU      0.08s WALL (       1 calls)
     hinit0       :      7.03s CPU      1.29s WALL (       1 calls)

     Called by electrons:
     c_bands      :    407.27s CPU    325.01s WALL (      81 calls)
     sum_band     :     24.53s CPU     30.58s WALL (      81 calls)
     v_of_rho     :      7.19s CPU      0.65s WALL (      81 calls)
     v_h          :      1.09s CPU      0.10s WALL (      81 calls)
     v_xc         :      6.09s CPU      0.55s WALL (      81 calls)
     newd         :     24.70s CPU      2.58s WALL (      81 calls)
                                        2.58s GPU  (      81 calls)
     mix_rho      :      7.93s CPU      0.78s WALL (      81 calls)

     Called by c_bands:
     init_us_2    :     29.81s CPU     26.74s WALL (   23328 calls)
     init_us_2:gp :     29.32s CPU     26.35s WALL (   23328 calls)
     cegterg      :    368.31s CPU    292.62s WALL (   11664 calls)

     Called by sum_band:
     sum_band:wei :      0.27s CPU      0.29s WALL (      81 calls)
                                        0.29s GPU  (      81 calls)
     sum_band:loo :     21.19s CPU     26.90s WALL (      81 calls)
                                       26.90s GPU  (      81 calls)
     sum_band:buf :      2.25s CPU      2.81s WALL (   11664 calls)
                                        2.74s GPU  (   11664 calls)
     sum_band:ini :      9.86s CPU     12.91s WALL (   11664 calls)
                                       12.85s GPU  (   11664 calls)
     sum_band:cal :      0.34s CPU      0.78s WALL (   11664 calls)
                                        0.72s GPU  (   11664 calls)
     sum_band:bec :      1.95s CPU      2.48s WALL (   11664 calls)
                                        2.40s GPU  (   11664 calls)
     addusdens    :      2.64s CPU      2.92s WALL (      81 calls)
                                        2.92s GPU  (      81 calls)
     addusd:skk   :      0.01s CPU      0.02s WALL (     324 calls)
                                        0.01s GPU  (     324 calls)

     Called by *egterg:
     cdiaghg      :    187.24s CPU    152.44s WALL (   86220 calls)
                                      151.87s GPU  (   86220 calls)
     cegterg:over :     10.53s CPU      8.59s WALL (   74844 calls)
     cegterg:upda :     20.58s CPU     16.44s WALL (   74844 calls)
     cegterg:last :      4.08s CPU      3.32s WALL (   36899 calls)
     h_psi        :    104.56s CPU     81.36s WALL (   86508 calls)
                                       80.90s GPU  (   86508 calls)
     s_psi        :      8.99s CPU      9.70s WALL (   86508 calls)
                                        9.12s GPU  (   86508 calls)
     g_psi        :      0.70s CPU      1.46s WALL (   74844 calls)
                                        0.99s GPU  (   74844 calls)

     Called by h_psi:
     h_psi:calbec :      3.65s CPU      6.71s WALL (   86508 calls)
                                        6.19s GPU  (   86508 calls)
     vloc_psi     :     75.20s CPU     58.52s WALL (   86508 calls)
                                       58.01s GPU  (   86508 calls)
     add_vuspsi   :     11.78s CPU     10.96s WALL (   86508 calls)
                                       10.45s GPU  (   86508 calls)

     General routines
     calbec       :      3.02s CPU      2.43s WALL (   98172 calls)
     fft          :      2.83s CPU      0.31s WALL (    2025 calls)
                                        0.22s GPU  (    1863 calls)
     ffts         :      0.30s CPU      0.04s WALL (     324 calls)
                                        0.01s GPU  (     162 calls)
     fftw         :      6.71s CPU     29.73s WALL (  255058 calls)
                                       28.32s GPU  (  255058 calls)
     interpolate  :      1.90s CPU      0.17s WALL (     162 calls)
     davcio       :      1.22s CPU      0.30s WALL (     306 calls)
 
     Parallel routines
 
     PWSCF        :   8m 9.24s CPU   6m 3.26s WALL

 
   This run was terminated on:  18:19:20  23Oct2023            

=------------------------------------------------------------------------------=
   JOB DONE.
=------------------------------------------------------------------------------=
