
     Program PWSCF v.7.2 starts on 23Oct2023 at 21:24:50 

     This program is part of the open-source Quantum ESPRESSO suite
     for quantum simulation of materials; please cite
         "P. Giannozzi et al., J. Phys.:Condens. Matter 21 395502 (2009);
         "P. Giannozzi et al., J. Phys.:Condens. Matter 29 465901 (2017);
         "P. Giannozzi et al., J. Chem. Phys. 152 154105 (2020);
          URL http://www.quantum-espresso.org", 
     in publications or presentations arising from this work. More details at
     http://www.quantum-espresso.org/quote

     Parallel version (MPI & OpenMP), running on      12 processor cores
     Number of MPI processes:                 1
     Threads/MPI process:                    12

     MPI processes distributed on     1 nodes
     46038 MiB available memory on the printing compute node when the environment starts
 
     Reading input from aiida.in

     Current dimensions of program PWSCF are:
     Max number of different atomic species (ntypx) = 10
     Max number of k-points (npk) =  40000
     Max angular momentum in pseudopotentials (lmaxx) =  4
     file Al.pbesol-n-kjpaw_psl.1.0.0.UPF: wavefunction(s)  3S 3P renormalized
     file Fe.pbesol-spn-kjpaw_psl.0.2.1.UPF: wavefunction(s)  3D renormalized
     Message from routine setup:
     using ibrav=0 with symmetry is DISCOURAGED, use correct ibrav instead
 
     Subspace diagonalization in iterative solution of the eigenvalue problem:
     a serial algorithm will be used

 
     G-vector sticks info
     --------------------
     sticks:   dense  smooth     PW     G-vecs:    dense   smooth      PW
     Sum        4507    1507    433               200401    38517    5985
 
     Using Slab Decomposition
 


     bravais-lattice index     =            0
     lattice parameter (alat)  =       7.7903  a.u.
     unit-cell volume          =     334.3045 (a.u.)^3
     number of atoms/cell      =            4
     number of atomic types    =            3
     number of electrons       =        50.00
     number of Kohn-Sham states=           30
     kinetic-energy cutoff     =      90.0000  Ry
     charge density cutoff     =    1080.0000  Ry
     scf convergence threshold =      8.0E-10
     mixing beta               =       0.4000
     number of iterations used =            8  plain     mixing
     Exchange-correlation= SLA  PW   PSX  PSC
                           (   1   4  10   8   0   0   0)

     GPU acceleration is ACTIVE.


     GPU used by master process:

        Device Number: 0
        Device name: Tesla P100-PCIE-16GB
        Compute capability : 60
        Ratio of single to double precision performance  : 2
        Memory Clock Rate (KHz): 715000
        Memory Bus Width (bits): 4096
        Peak Memory Bandwidth (GB/s): 732.16

     celldm(1)=   7.790268  celldm(2)=   0.000000  celldm(3)=   0.000000
     celldm(4)=   0.000000  celldm(5)=   0.000000  celldm(6)=   0.000000

     crystal axes: (cart. coord. in units of alat)
               a(1) = (   0.000000   0.707107   0.707107 )  
               a(2) = (   0.707107   0.000000   0.707107 )  
               a(3) = (   0.707107   0.707107   0.000000 )  

     reciprocal axes: (cart. coord. in units 2 pi/alat)
               b(1) = ( -0.707107  0.707107  0.707107 )  
               b(2) = (  0.707107 -0.707107  0.707107 )  
               b(3) = (  0.707107  0.707107 -0.707107 )  


     PseudoPot. # 1 for Al read from file:
     ./pseudo/Al.pbesol-n-kjpaw_psl.1.0.0.UPF
     MD5 check sum: 3401bcfaaf5f9b08e46a00870a1ef39d
     Pseudo is Projector augmented-wave + core cor, Zval =  3.0
     Generated using "atomic" code by A. Dal Corso  v.6.0 svn rev. 13079
     Shape of augmentation charge: PSQ
     Using radial grid of 1135 points,  6 beta functions with: 
                l(1) =   0
                l(2) =   0
                l(3) =   1
                l(4) =   1
                l(5) =   2
                l(6) =   2
     Q(r) pseudized with 0 coefficients 


     PseudoPot. # 2 for Fe read from file:
     ./pseudo/Fe.pbesol-spn-kjpaw_psl.0.2.1.UPF
     MD5 check sum: 4d7ec5aa2156491519a4322664fbbf52
     Pseudo is Projector augmented-wave + core cor, Zval = 16.0
     Generated using "atomic" code by A. Dal Corso  v.6.0 svn rev. 13079
     Shape of augmentation charge: PSQ
     Using radial grid of 1191 points,  6 beta functions with: 
                l(1) =   0
                l(2) =   0
                l(3) =   1
                l(4) =   1
                l(5) =   2
                l(6) =   2
     Q(r) pseudized with 0 coefficients 


     PseudoPot. # 3 for Mn read from file:
     ./pseudo/mn_pbesol_v1.5.uspp.F.UPF
     MD5 check sum: 0716d5f563e6e95a34f9080f4c78c109
     Pseudo is Ultrasoft + core correction, Zval = 15.0
     Generated by new atomic code, or converted to UPF format
     Using radial grid of  859 points,  6 beta functions with: 
                l(1) =   0
                l(2) =   0
                l(3) =   1
                l(4) =   1
                l(5) =   2
                l(6) =   2
     Q(r) pseudized with  8 coefficients,  rinner =    0.950   0.950   0.950
                                                       0.950   0.950

     atomic species   valence    mass     pseudopotential
        Al             3.00    26.98154     Al( 1.00)
        Fe            16.00    55.84500     Fe( 1.00)
        Mn            15.00    54.93805     Mn( 1.00)

     Starting magnetic structure 
     atomic species   magnetization
        Al           0.100
        Fe           0.313
        Mn           0.333

     48 Sym. Ops., with inversion, found


                                    s                        frac. trans.

      isym =  1     identity                                     

 cryst.   s( 1) = (     1          0          0      )
                  (     0          1          0      )
                  (     0          0          1      )

 cart.    s( 1) = (  1.0000000 -0.0000000  0.0000000 )
                  ( -0.0000000  1.0000000  0.0000000 )
                  ( -0.0000000  0.0000000  1.0000000 )


      isym =  2     180 deg rotation - cart. axis [0,0,1]        

 cryst.   s( 2) = (     0          1         -1      )
                  (     1          0         -1      )
                  (     0          0         -1      )

 cart.    s( 2) = ( -1.0000000  0.0000000  0.0000000 )
                  (  0.0000000 -1.0000000  0.0000000 )
                  (  0.0000000 -0.0000000  1.0000000 )


      isym =  3     180 deg rotation - cart. axis [0,1,0]        

 cryst.   s( 3) = (     0         -1          1      )
                  (     0         -1          0      )
                  (     1         -1          0      )

 cart.    s( 3) = ( -1.0000000 -0.0000000 -0.0000000 )
                  (  0.0000000  1.0000000 -0.0000000 )
                  (  0.0000000  0.0000000 -1.0000000 )


      isym =  4     180 deg rotation - cart. axis [1,0,0]        

 cryst.   s( 4) = (    -1          0          0      )
                  (    -1          0          1      )
                  (    -1          1          0      )

 cart.    s( 4) = (  1.0000000  0.0000000 -0.0000000 )
                  ( -0.0000000 -1.0000000 -0.0000000 )
                  ( -0.0000000 -0.0000000 -1.0000000 )


      isym =  5     180 deg rotation - cart. axis [1,1,0]        

 cryst.   s( 5) = (    -1          0          1      )
                  (     0         -1          1      )
                  (     0          0          1      )

 cart.    s( 5) = ( -0.0000000  1.0000000 -0.0000000 )
                  (  1.0000000 -0.0000000 -0.0000000 )
                  (  0.0000000 -0.0000000 -1.0000000 )


      isym =  6     180 deg rotation - cart. axis [1,-1,0]       

 cryst.   s( 6) = (     0         -1          0      )
                  (    -1          0          0      )
                  (     0          0         -1      )

 cart.    s( 6) = (  0.0000000 -1.0000000 -0.0000000 )
                  ( -1.0000000  0.0000000 -0.0000000 )
                  ( -0.0000000  0.0000000 -1.0000000 )


      isym =  7      90 deg rotation - cart. axis [0,0,-1]       

 cryst.   s( 7) = (     0          1          0      )
                  (     0          1         -1      )
                  (    -1          1          0      )

 cart.    s( 7) = (  0.0000000  1.0000000  0.0000000 )
                  ( -1.0000000 -0.0000000  0.0000000 )
                  ( -0.0000000 -0.0000000  1.0000000 )


      isym =  8      90 deg rotation - cart. axis [0,0,1]        

 cryst.   s( 8) = (     1          0         -1      )
                  (     1          0          0      )
                  (     1         -1          0      )

 cart.    s( 8) = ( -0.0000000 -1.0000000  0.0000000 )
                  (  1.0000000  0.0000000  0.0000000 )
                  (  0.0000000  0.0000000  1.0000000 )


      isym =  9     180 deg rotation - cart. axis [1,0,1]        

 cryst.   s( 9) = (    -1          1          0      )
                  (     0          1          0      )
                  (     0          1         -1      )

 cart.    s( 9) = (  0.0000000  0.0000000  1.0000000 )
                  (  0.0000000 -1.0000000 -0.0000000 )
                  (  1.0000000 -0.0000000 -0.0000000 )


      isym = 10     180 deg rotation - cart. axis [-1,0,1]       

 cryst.   s(10) = (     0          0         -1      )
                  (     0         -1          0      )
                  (    -1          0          0      )

 cart.    s(10) = ( -0.0000000  0.0000000 -1.0000000 )
                  ( -0.0000000 -1.0000000  0.0000000 )
                  ( -1.0000000 -0.0000000  0.0000000 )


      isym = 11      90 deg rotation - cart. axis [0,1,0]        

 cryst.   s(11) = (     0          0          1      )
                  (    -1          0          1      )
                  (     0         -1          1      )

 cart.    s(11) = ( -0.0000000 -0.0000000  1.0000000 )
                  ( -0.0000000  1.0000000 -0.0000000 )
                  ( -1.0000000  0.0000000 -0.0000000 )


      isym = 12      90 deg rotation - cart. axis [0,-1,0]       

 cryst.   s(12) = (     1         -1          0      )
                  (     1          0         -1      )
                  (     1          0          0      )

 cart.    s(12) = (  0.0000000 -0.0000000 -1.0000000 )
                  (  0.0000000  1.0000000  0.0000000 )
                  (  1.0000000  0.0000000  0.0000000 )


      isym = 13     180 deg rotation - cart. axis [0,1,1]        

 cryst.   s(13) = (     1          0          0      )
                  (     1         -1          0      )
                  (     1          0         -1      )

 cart.    s(13) = ( -1.0000000  0.0000000 -0.0000000 )
                  (  0.0000000  0.0000000  1.0000000 )
                  (  0.0000000  1.0000000  0.0000000 )


      isym = 14     180 deg rotation - cart. axis [0,1,-1]       

 cryst.   s(14) = (    -1          0          0      )
                  (     0          0         -1      )
                  (     0         -1          0      )

 cart.    s(14) = ( -1.0000000 -0.0000000  0.0000000 )
                  (  0.0000000 -0.0000000 -1.0000000 )
                  (  0.0000000 -1.0000000 -0.0000000 )


      isym = 15      90 deg rotation - cart. axis [-1,0,0]       

 cryst.   s(15) = (     0         -1          1      )
                  (     0          0          1      )
                  (    -1          0          1      )

 cart.    s(15) = (  1.0000000 -0.0000000 -0.0000000 )
                  ( -0.0000000 -0.0000000  1.0000000 )
                  ( -0.0000000 -1.0000000  0.0000000 )


      isym = 16      90 deg rotation - cart. axis [1,0,0]        

 cryst.   s(16) = (     0          1         -1      )
                  (    -1          1          0      )
                  (     0          1          0      )

 cart.    s(16) = (  1.0000000  0.0000000  0.0000000 )
                  ( -0.0000000  0.0000000 -1.0000000 )
                  ( -0.0000000  1.0000000 -0.0000000 )


      isym = 17     120 deg rotation - cart. axis [-1,-1,-1]     

 cryst.   s(17) = (     0          0          1      )
                  (     1          0          0      )
                  (     0          1          0      )

 cart.    s(17) = (  0.0000000  1.0000000 -0.0000000 )
                  (  0.0000000 -0.0000000  1.0000000 )
                  (  1.0000000 -0.0000000  0.0000000 )


      isym = 18     120 deg rotation - cart. axis [-1,1,1]       

 cryst.   s(18) = (     1         -1          0      )
                  (     0         -1          1      )
                  (     0         -1          0      )

 cart.    s(18) = ( -0.0000000 -1.0000000 -0.0000000 )
                  ( -0.0000000  0.0000000  1.0000000 )
                  ( -1.0000000  0.0000000  0.0000000 )


      isym = 19     120 deg rotation - cart. axis [1,1,-1]       

 cryst.   s(19) = (    -1          1          0      )
                  (    -1          0          0      )
                  (    -1          0          1      )

 cart.    s(19) = ( -0.0000000  1.0000000  0.0000000 )
                  ( -0.0000000 -0.0000000 -1.0000000 )
                  ( -1.0000000 -0.0000000 -0.0000000 )


      isym = 20     120 deg rotation - cart. axis [1,-1,1]       

 cryst.   s(20) = (     0          0         -1      )
                  (     0          1         -1      )
                  (     1          0         -1      )

 cart.    s(20) = (  0.0000000 -1.0000000  0.0000000 )
                  (  0.0000000  0.0000000 -1.0000000 )
                  (  1.0000000  0.0000000 -0.0000000 )


      isym = 21     120 deg rotation - cart. axis [1,1,1]        

 cryst.   s(21) = (     0          1          0      )
                  (     0          0          1      )
                  (     1          0          0      )

 cart.    s(21) = ( -0.0000000  0.0000000  1.0000000 )
                  (  1.0000000  0.0000000 -0.0000000 )
                  (  0.0000000  1.0000000 -0.0000000 )


      isym = 22     120 deg rotation - cart. axis [-1,1,-1]      

 cryst.   s(22) = (    -1          0          1      )
                  (    -1          1          0      )
                  (    -1          0          0      )

 cart.    s(22) = (  0.0000000 -0.0000000  1.0000000 )
                  ( -1.0000000 -0.0000000 -0.0000000 )
                  ( -0.0000000 -1.0000000 -0.0000000 )


      isym = 23     120 deg rotation - cart. axis [1,-1,-1]      

 cryst.   s(23) = (     1          0         -1      )
                  (     0          0         -1      )
                  (     0          1         -1      )

 cart.    s(23) = (  0.0000000  0.0000000 -1.0000000 )
                  ( -1.0000000  0.0000000  0.0000000 )
                  ( -0.0000000  1.0000000  0.0000000 )


      isym = 24     120 deg rotation - cart. axis [-1,-1,1]      

 cryst.   s(24) = (     0         -1          0      )
                  (     1         -1          0      )
                  (     0         -1          1      )

 cart.    s(24) = ( -0.0000000 -0.0000000 -1.0000000 )
                  (  1.0000000 -0.0000000  0.0000000 )
                  (  0.0000000 -1.0000000  0.0000000 )


      isym = 25     inversion                                    

 cryst.   s(25) = (    -1          0          0      )
                  (     0         -1          0      )
                  (     0          0         -1      )

 cart.    s(25) = ( -1.0000000  0.0000000 -0.0000000 )
                  (  0.0000000 -1.0000000 -0.0000000 )
                  (  0.0000000 -0.0000000 -1.0000000 )


      isym = 26     inv. 180 deg rotation - cart. axis [0,0,1]   

 cryst.   s(26) = (     0         -1          1      )
                  (    -1          0          1      )
                  (     0          0          1      )

 cart.    s(26) = (  1.0000000 -0.0000000 -0.0000000 )
                  ( -0.0000000  1.0000000 -0.0000000 )
                  ( -0.0000000  0.0000000 -1.0000000 )


      isym = 27     inv. 180 deg rotation - cart. axis [0,1,0]   

 cryst.   s(27) = (     0          1         -1      )
                  (     0          1          0      )
                  (    -1          1          0      )

 cart.    s(27) = (  1.0000000  0.0000000  0.0000000 )
                  ( -0.0000000 -1.0000000  0.0000000 )
                  ( -0.0000000 -0.0000000  1.0000000 )


      isym = 28     inv. 180 deg rotation - cart. axis [1,0,0]   

 cryst.   s(28) = (     1          0          0      )
                  (     1          0         -1      )
                  (     1         -1          0      )

 cart.    s(28) = ( -1.0000000 -0.0000000  0.0000000 )
                  (  0.0000000  1.0000000  0.0000000 )
                  (  0.0000000  0.0000000  1.0000000 )


      isym = 29     inv. 180 deg rotation - cart. axis [1,1,0]   

 cryst.   s(29) = (     1          0         -1      )
                  (     0          1         -1      )
                  (     0          0         -1      )

 cart.    s(29) = (  0.0000000 -1.0000000  0.0000000 )
                  ( -1.0000000  0.0000000  0.0000000 )
                  ( -0.0000000  0.0000000  1.0000000 )


      isym = 30     inv. 180 deg rotation - cart. axis [1,-1,0]  

 cryst.   s(30) = (     0          1          0      )
                  (     1          0          0      )
                  (     0          0          1      )

 cart.    s(30) = ( -0.0000000  1.0000000  0.0000000 )
                  (  1.0000000 -0.0000000  0.0000000 )
                  (  0.0000000 -0.0000000  1.0000000 )


      isym = 31     inv.  90 deg rotation - cart. axis [0,0,-1]  

 cryst.   s(31) = (     0         -1          0      )
                  (     0         -1          1      )
                  (     1         -1          0      )

 cart.    s(31) = ( -0.0000000 -1.0000000 -0.0000000 )
                  (  1.0000000  0.0000000 -0.0000000 )
                  (  0.0000000  0.0000000 -1.0000000 )


      isym = 32     inv.  90 deg rotation - cart. axis [0,0,1]   

 cryst.   s(32) = (    -1          0          1      )
                  (    -1          0          0      )
                  (    -1          1          0      )

 cart.    s(32) = (  0.0000000  1.0000000 -0.0000000 )
                  ( -1.0000000 -0.0000000 -0.0000000 )
                  ( -0.0000000 -0.0000000 -1.0000000 )


      isym = 33     inv. 180 deg rotation - cart. axis [1,0,1]   

 cryst.   s(33) = (     1         -1          0      )
                  (     0         -1          0      )
                  (     0         -1          1      )

 cart.    s(33) = ( -0.0000000 -0.0000000 -1.0000000 )
                  ( -0.0000000  1.0000000  0.0000000 )
                  ( -1.0000000  0.0000000  0.0000000 )


      isym = 34     inv. 180 deg rotation - cart. axis [-1,0,1]  

 cryst.   s(34) = (     0          0          1      )
                  (     0          1          0      )
                  (     1          0          0      )

 cart.    s(34) = (  0.0000000 -0.0000000  1.0000000 )
                  (  0.0000000  1.0000000 -0.0000000 )
                  (  1.0000000  0.0000000 -0.0000000 )


      isym = 35     inv.  90 deg rotation - cart. axis [0,1,0]   

 cryst.   s(35) = (     0          0         -1      )
                  (     1          0         -1      )
                  (     0          1         -1      )

 cart.    s(35) = (  0.0000000  0.0000000 -1.0000000 )
                  (  0.0000000 -1.0000000  0.0000000 )
                  (  1.0000000 -0.0000000  0.0000000 )


      isym = 36     inv.  90 deg rotation - cart. axis [0,-1,0]  

 cryst.   s(36) = (    -1          1          0      )
                  (    -1          0          1      )
                  (    -1          0          0      )

 cart.    s(36) = ( -0.0000000  0.0000000  1.0000000 )
                  ( -0.0000000 -1.0000000 -0.0000000 )
                  ( -1.0000000 -0.0000000 -0.0000000 )


      isym = 37     inv. 180 deg rotation - cart. axis [0,1,1]   

 cryst.   s(37) = (    -1          0          0      )
                  (    -1          1          0      )
                  (    -1          0          1      )

 cart.    s(37) = (  1.0000000 -0.0000000  0.0000000 )
                  ( -0.0000000 -0.0000000 -1.0000000 )
                  ( -0.0000000 -1.0000000 -0.0000000 )


      isym = 38     inv. 180 deg rotation - cart. axis [0,1,-1]  

 cryst.   s(38) = (     1          0          0      )
                  (     0          0          1      )
                  (     0          1          0      )

 cart.    s(38) = (  1.0000000  0.0000000 -0.0000000 )
                  ( -0.0000000  0.0000000  1.0000000 )
                  ( -0.0000000  1.0000000  0.0000000 )


      isym = 39     inv.  90 deg rotation - cart. axis [-1,0,0]  

 cryst.   s(39) = (     0          1         -1      )
                  (     0          0         -1      )
                  (     1          0         -1      )

 cart.    s(39) = ( -1.0000000  0.0000000  0.0000000 )
                  (  0.0000000  0.0000000 -1.0000000 )
                  (  0.0000000  1.0000000 -0.0000000 )


      isym = 40     inv.  90 deg rotation - cart. axis [1,0,0]   

 cryst.   s(40) = (     0         -1          1      )
                  (     1         -1          0      )
                  (     0         -1          0      )

 cart.    s(40) = ( -1.0000000 -0.0000000 -0.0000000 )
                  (  0.0000000 -0.0000000  1.0000000 )
                  (  0.0000000 -1.0000000  0.0000000 )


      isym = 41     inv. 120 deg rotation - cart. axis [-1,-1,-1]

 cryst.   s(41) = (     0          0         -1      )
                  (    -1          0          0      )
                  (     0         -1          0      )

 cart.    s(41) = ( -0.0000000 -1.0000000  0.0000000 )
                  ( -0.0000000  0.0000000 -1.0000000 )
                  ( -1.0000000  0.0000000 -0.0000000 )


      isym = 42     inv. 120 deg rotation - cart. axis [-1,1,1]  

 cryst.   s(42) = (    -1          1          0      )
                  (     0          1         -1      )
                  (     0          1          0      )

 cart.    s(42) = (  0.0000000  1.0000000  0.0000000 )
                  (  0.0000000 -0.0000000 -1.0000000 )
                  (  1.0000000 -0.0000000 -0.0000000 )


      isym = 43     inv. 120 deg rotation - cart. axis [1,1,-1]  

 cryst.   s(43) = (     1         -1          0      )
                  (     1          0          0      )
                  (     1          0         -1      )

 cart.    s(43) = (  0.0000000 -1.0000000 -0.0000000 )
                  (  0.0000000  0.0000000  1.0000000 )
                  (  1.0000000  0.0000000  0.0000000 )


      isym = 44     inv. 120 deg rotation - cart. axis [1,-1,1]  

 cryst.   s(44) = (     0          0          1      )
                  (     0         -1          1      )
                  (    -1          0          1      )

 cart.    s(44) = ( -0.0000000  1.0000000 -0.0000000 )
                  ( -0.0000000 -0.0000000  1.0000000 )
                  ( -1.0000000 -0.0000000  0.0000000 )


      isym = 45     inv. 120 deg rotation - cart. axis [1,1,1]   

 cryst.   s(45) = (     0         -1          0      )
                  (     0          0         -1      )
                  (    -1          0          0      )

 cart.    s(45) = (  0.0000000 -0.0000000 -1.0000000 )
                  ( -1.0000000 -0.0000000  0.0000000 )
                  ( -0.0000000 -1.0000000  0.0000000 )


      isym = 46     inv. 120 deg rotation - cart. axis [-1,1,-1] 

 cryst.   s(46) = (     1          0         -1      )
                  (     1         -1          0      )
                  (     1          0          0      )

 cart.    s(46) = ( -0.0000000  0.0000000 -1.0000000 )
                  (  1.0000000  0.0000000  0.0000000 )
                  (  0.0000000  1.0000000  0.0000000 )


      isym = 47     inv. 120 deg rotation - cart. axis [1,-1,-1] 

 cryst.   s(47) = (    -1          0          1      )
                  (     0          0          1      )
                  (     0         -1          1      )

 cart.    s(47) = ( -0.0000000 -0.0000000  1.0000000 )
                  (  1.0000000 -0.0000000 -0.0000000 )
                  (  0.0000000 -1.0000000 -0.0000000 )


      isym = 48     inv. 120 deg rotation - cart. axis [-1,-1,1] 

 cryst.   s(48) = (     0          1          0      )
                  (    -1          1          0      )
                  (     0          1         -1      )

 cart.    s(48) = (  0.0000000  0.0000000  1.0000000 )
                  ( -1.0000000  0.0000000 -0.0000000 )
                  ( -0.0000000  1.0000000 -0.0000000 )


   Cartesian axes

     site n.     atom                  positions (alat units)
         1           Mn  tau(   1) = (   0.7071068   0.0000000   0.0000000  )
         2           Al  tau(   2) = (   0.0000000   0.0000000   0.0000000  )
         3           Fe  tau(   3) = (   0.3535534   0.3535534   1.0606602  )
         4           Fe  tau(   4) = (   0.3535534   1.0606602   1.0606602  )

   Crystallographic axes

     site n.     atom                  positions (cryst. coord.)
         1           Mn  tau(   1) = ( -0.5000000  0.5000000  0.5000000  )
         2           Al  tau(   2) = (  0.0000000  0.0000000  0.0000000  )
         3           Fe  tau(   3) = (  0.7500000  0.7500000 -0.2500000  )
         4           Fe  tau(   4) = (  1.2500000  0.2500000  0.2500000  )

     number of k points=    84  Marzari-Vanderbilt smearing, width (Ry)=  0.0100
                       cart. coord. in units 2pi/alat
        k(    1) = (   0.0000000   0.0000000   0.0000000), wk =   0.0004552
        k(    2) = (   0.0543928   0.0543928  -0.0543928), wk =   0.0036413
        k(    3) = (   0.1087857   0.1087857  -0.1087857), wk =   0.0036413
        k(    4) = (   0.1631785   0.1631785  -0.1631785), wk =   0.0036413
        k(    5) = (   0.2175713   0.2175713  -0.2175713), wk =   0.0036413
        k(    6) = (   0.2719641   0.2719641  -0.2719641), wk =   0.0036413
        k(    7) = (   0.3263570   0.3263570  -0.3263570), wk =   0.0036413
        k(    8) = (   0.1087857  -0.0000000   0.0000000), wk =   0.0027310
        k(    9) = (   0.1631785   0.0543928  -0.0543928), wk =   0.0109240
        k(   10) = (   0.2175713   0.1087857  -0.1087857), wk =   0.0109240
        k(   11) = (   0.2719641   0.1631785  -0.1631785), wk =   0.0109240
        k(   12) = (   0.3263570   0.2175713  -0.2175713), wk =   0.0109240
        k(   13) = (   0.3807498   0.2719641  -0.2719641), wk =   0.0109240
        k(   14) = (  -0.2719641  -0.3807498   0.3807498), wk =   0.0109240
        k(   15) = (  -0.2175713  -0.3263570   0.3263570), wk =   0.0109240
        k(   16) = (  -0.1631785  -0.2719641   0.2719641), wk =   0.0109240
        k(   17) = (  -0.1087857  -0.2175713   0.2175713), wk =   0.0109240
        k(   18) = (  -0.0543928  -0.1631785   0.1631785), wk =   0.0109240
        k(   19) = (   0.0000000  -0.1087857   0.1087857), wk =   0.0054620
        k(   20) = (   0.2175713  -0.0000000   0.0000000), wk =   0.0027310
        k(   21) = (   0.2719641   0.0543928  -0.0543928), wk =   0.0109240
        k(   22) = (   0.3263570   0.1087857  -0.1087857), wk =   0.0109240
        k(   23) = (   0.3807498   0.1631785  -0.1631785), wk =   0.0109240
        k(   24) = (   0.4351426   0.2175713  -0.2175713), wk =   0.0109240
        k(   25) = (  -0.2175713  -0.4351426   0.4351426), wk =   0.0109240
        k(   26) = (  -0.1631785  -0.3807498   0.3807498), wk =   0.0109240
        k(   27) = (  -0.1087857  -0.3263570   0.3263570), wk =   0.0109240
        k(   28) = (  -0.0543928  -0.2719641   0.2719641), wk =   0.0109240
        k(   29) = (   0.0000000  -0.2175713   0.2175713), wk =   0.0054620
        k(   30) = (   0.3263570  -0.0000000   0.0000000), wk =   0.0027310
        k(   31) = (   0.3807498   0.0543928  -0.0543928), wk =   0.0109240
        k(   32) = (   0.4351426   0.1087857  -0.1087857), wk =   0.0109240
        k(   33) = (   0.4895355   0.1631785  -0.1631785), wk =   0.0109240
        k(   34) = (  -0.1631785  -0.4895355   0.4895355), wk =   0.0109240
        k(   35) = (  -0.1087857  -0.4351426   0.4351426), wk =   0.0109240
        k(   36) = (  -0.0543928  -0.3807498   0.3807498), wk =   0.0109240
        k(   37) = (   0.0000000  -0.3263570   0.3263570), wk =   0.0054620
        k(   38) = (   0.4351426  -0.0000000   0.0000000), wk =   0.0027310
        k(   39) = (   0.4895355   0.0543928  -0.0543928), wk =   0.0109240
        k(   40) = (   0.5439283   0.1087857  -0.1087857), wk =   0.0109240
        k(   41) = (  -0.1087857  -0.5439283   0.5439283), wk =   0.0109240
        k(   42) = (  -0.0543928  -0.4895355   0.4895355), wk =   0.0109240
        k(   43) = (   0.0000000  -0.4351426   0.4351426), wk =   0.0054620
        k(   44) = (   0.5439283  -0.0000000   0.0000000), wk =   0.0027310
        k(   45) = (   0.5983211   0.0543928  -0.0543928), wk =   0.0109240
        k(   46) = (  -0.0543928  -0.5983211   0.5983211), wk =   0.0109240
        k(   47) = (   0.0000000  -0.5439283   0.5439283), wk =   0.0054620
        k(   48) = (   0.6527140  -0.0000000   0.0000000), wk =   0.0027310
        k(   49) = (   0.0000000  -0.6527140   0.6527140), wk =   0.0054620
        k(   50) = (   0.2175713   0.1087857   0.0000000), wk =   0.0109240
        k(   51) = (   0.2719641   0.1631785  -0.0543928), wk =   0.0218480
        k(   52) = (   0.3263570   0.2175713  -0.1087857), wk =   0.0218480
        k(   53) = (   0.3807498   0.2719641  -0.1631785), wk =   0.0218480
        k(   54) = (  -0.2719641  -0.3807498   0.4895355), wk =   0.0218480
        k(   55) = (   0.3263570   0.1087857   0.0000000), wk =   0.0109240
        k(   56) = (   0.3807498   0.1631785  -0.0543928), wk =   0.0218480
        k(   57) = (   0.4351426   0.2175713  -0.1087857), wk =   0.0218480
        k(   58) = (  -0.2175713  -0.4351426   0.5439283), wk =   0.0218480
        k(   59) = (  -0.1631785  -0.3807498   0.4895355), wk =   0.0218480
        k(   60) = (  -0.1087857  -0.3263570   0.4351426), wk =   0.0218480
        k(   61) = (  -0.0543928  -0.2719641   0.3807498), wk =   0.0218480
        k(   62) = (   0.0000000  -0.2175713   0.3263570), wk =   0.0109240
        k(   63) = (   0.4351426   0.1087857   0.0000000), wk =   0.0109240
        k(   64) = (   0.4895355   0.1631785  -0.0543928), wk =   0.0218480
        k(   65) = (  -0.1631785  -0.4895355   0.5983211), wk =   0.0218480
        k(   66) = (  -0.1087857  -0.4351426   0.5439283), wk =   0.0218480
        k(   67) = (  -0.0543928  -0.3807498   0.4895355), wk =   0.0218480
        k(   68) = (   0.0000000  -0.3263570   0.4351426), wk =   0.0109240
        k(   69) = (   0.5439283   0.1087857   0.0000000), wk =   0.0109240
        k(   70) = (  -0.1087857  -0.5439283   0.6527140), wk =   0.0218480
        k(   71) = (  -0.0543928  -0.4895355   0.5983211), wk =   0.0218480
        k(   72) = (   0.0000000  -0.4351426   0.5439283), wk =   0.0109240
        k(   73) = (  -0.0543928  -0.5983211   0.7071068), wk =   0.0109240
        k(   74) = (   0.0000000  -0.5439283   0.6527140), wk =   0.0109240
        k(   75) = (   0.4351426   0.2175713   0.0000000), wk =   0.0109240
        k(   76) = (  -0.2175713  -0.4351426   0.6527140), wk =   0.0218480
        k(   77) = (  -0.1631785  -0.3807498   0.5983211), wk =   0.0218480
        k(   78) = (  -0.1631785  -0.4895355   0.7071068), wk =   0.0109240
        k(   79) = (  -0.1087857  -0.4351426   0.6527140), wk =   0.0218480
        k(   80) = (  -0.0543928  -0.3807498   0.5983211), wk =   0.0218480
        k(   81) = (   0.0000000  -0.3263570   0.5439283), wk =   0.0109240
        k(   82) = (  -0.0543928  -0.4895355   0.7071068), wk =   0.0109240
        k(   83) = (   0.0000000  -0.4351426   0.6527140), wk =   0.0109240
        k(   84) = (  -0.0543928  -0.3807498   0.7071068), wk =   0.0109240

                       cryst. coord.
        k(    1) = (   0.0000000   0.0000000   0.0000000), wk =   0.0004552
        k(    2) = (   0.0000000   0.0000000   0.0769231), wk =   0.0036413
        k(    3) = (   0.0000000   0.0000000   0.1538462), wk =   0.0036413
        k(    4) = (   0.0000000   0.0000000   0.2307692), wk =   0.0036413
        k(    5) = (   0.0000000   0.0000000   0.3076923), wk =   0.0036413
        k(    6) = (   0.0000000   0.0000000   0.3846154), wk =   0.0036413
        k(    7) = (   0.0000000   0.0000000   0.4615385), wk =   0.0036413
        k(    8) = (  -0.0000000   0.0769231   0.0769231), wk =   0.0027310
        k(    9) = (  -0.0000000   0.0769231   0.1538462), wk =   0.0109240
        k(   10) = (   0.0000000   0.0769231   0.2307692), wk =   0.0109240
        k(   11) = (  -0.0000000   0.0769231   0.3076923), wk =   0.0109240
        k(   12) = (   0.0000000   0.0769231   0.3846154), wk =   0.0109240
        k(   13) = (   0.0000000   0.0769231   0.4615385), wk =   0.0109240
        k(   14) = (   0.0000000   0.0769231  -0.4615385), wk =   0.0109240
        k(   15) = (   0.0000000   0.0769231  -0.3846154), wk =   0.0109240
        k(   16) = (  -0.0000000   0.0769231  -0.3076923), wk =   0.0109240
        k(   17) = (  -0.0000000   0.0769231  -0.2307692), wk =   0.0109240
        k(   18) = (  -0.0000000   0.0769231  -0.1538462), wk =   0.0109240
        k(   19) = (  -0.0000000   0.0769231  -0.0769231), wk =   0.0054620
        k(   20) = (  -0.0000000   0.1538462   0.1538462), wk =   0.0027310
        k(   21) = (  -0.0000000   0.1538462   0.2307692), wk =   0.0109240
        k(   22) = (  -0.0000000   0.1538462   0.3076923), wk =   0.0109240
        k(   23) = (  -0.0000000   0.1538462   0.3846154), wk =   0.0109240
        k(   24) = (   0.0000000   0.1538462   0.4615385), wk =   0.0109240
        k(   25) = (  -0.0000000   0.1538462  -0.4615385), wk =   0.0109240
        k(   26) = (   0.0000000   0.1538462  -0.3846154), wk =   0.0109240
        k(   27) = (  -0.0000000   0.1538462  -0.3076923), wk =   0.0109240
        k(   28) = (  -0.0000000   0.1538462  -0.2307692), wk =   0.0109240
        k(   29) = (  -0.0000000   0.1538462  -0.1538462), wk =   0.0054620
        k(   30) = (   0.0000000   0.2307692   0.2307692), wk =   0.0027310
        k(   31) = (   0.0000000   0.2307692   0.3076923), wk =   0.0109240
        k(   32) = (  -0.0000000   0.2307692   0.3846154), wk =   0.0109240
        k(   33) = (  -0.0000000   0.2307692   0.4615385), wk =   0.0109240
        k(   34) = (  -0.0000000   0.2307692  -0.4615385), wk =   0.0109240
        k(   35) = (   0.0000000   0.2307692  -0.3846154), wk =   0.0109240
        k(   36) = (   0.0000000   0.2307692  -0.3076923), wk =   0.0109240
        k(   37) = (   0.0000000   0.2307692  -0.2307692), wk =   0.0054620
        k(   38) = (  -0.0000000   0.3076923   0.3076923), wk =   0.0027310
        k(   39) = (  -0.0000000   0.3076923   0.3846154), wk =   0.0109240
        k(   40) = (  -0.0000000   0.3076923   0.4615385), wk =   0.0109240
        k(   41) = (  -0.0000000   0.3076923  -0.4615385), wk =   0.0109240
        k(   42) = (   0.0000000   0.3076923  -0.3846154), wk =   0.0109240
        k(   43) = (  -0.0000000   0.3076923  -0.3076923), wk =   0.0054620
        k(   44) = (  -0.0000000   0.3846154   0.3846154), wk =   0.0027310
        k(   45) = (  -0.0000000   0.3846154   0.4615385), wk =   0.0109240
        k(   46) = (  -0.0000000   0.3846154  -0.4615385), wk =   0.0109240
        k(   47) = (  -0.0000000   0.3846154  -0.3846154), wk =   0.0054620
        k(   48) = (   0.0000000   0.4615385   0.4615385), wk =   0.0027310
        k(   49) = (  -0.0000000   0.4615385  -0.4615385), wk =   0.0054620
        k(   50) = (   0.0769231   0.1538462   0.2307692), wk =   0.0109240
        k(   51) = (   0.0769231   0.1538462   0.3076923), wk =   0.0218480
        k(   52) = (   0.0769231   0.1538462   0.3846154), wk =   0.0218480
        k(   53) = (   0.0769231   0.1538462   0.4615385), wk =   0.0218480
        k(   54) = (   0.0769231   0.1538462  -0.4615385), wk =   0.0218480
        k(   55) = (   0.0769231   0.2307692   0.3076923), wk =   0.0109240
        k(   56) = (   0.0769231   0.2307692   0.3846154), wk =   0.0218480
        k(   57) = (   0.0769231   0.2307692   0.4615385), wk =   0.0218480
        k(   58) = (   0.0769231   0.2307692  -0.4615385), wk =   0.0218480
        k(   59) = (   0.0769231   0.2307692  -0.3846154), wk =   0.0218480
        k(   60) = (   0.0769231   0.2307692  -0.3076923), wk =   0.0218480
        k(   61) = (   0.0769231   0.2307692  -0.2307692), wk =   0.0218480
        k(   62) = (   0.0769231   0.2307692  -0.1538462), wk =   0.0109240
        k(   63) = (   0.0769231   0.3076923   0.3846154), wk =   0.0109240
        k(   64) = (   0.0769231   0.3076923   0.4615385), wk =   0.0218480
        k(   65) = (   0.0769231   0.3076923  -0.4615385), wk =   0.0218480
        k(   66) = (   0.0769231   0.3076923  -0.3846154), wk =   0.0218480
        k(   67) = (   0.0769231   0.3076923  -0.3076923), wk =   0.0218480
        k(   68) = (   0.0769231   0.3076923  -0.2307692), wk =   0.0109240
        k(   69) = (   0.0769231   0.3846154   0.4615385), wk =   0.0109240
        k(   70) = (   0.0769231   0.3846154  -0.4615385), wk =   0.0218480
        k(   71) = (   0.0769231   0.3846154  -0.3846154), wk =   0.0218480
        k(   72) = (   0.0769231   0.3846154  -0.3076923), wk =   0.0109240
        k(   73) = (   0.0769231   0.4615385  -0.4615385), wk =   0.0109240
        k(   74) = (   0.0769231   0.4615385  -0.3846154), wk =   0.0109240
        k(   75) = (   0.1538462   0.3076923   0.4615385), wk =   0.0109240
        k(   76) = (   0.1538462   0.3076923  -0.4615385), wk =   0.0218480
        k(   77) = (   0.1538462   0.3076923  -0.3846154), wk =   0.0218480
        k(   78) = (   0.1538462   0.3846154  -0.4615385), wk =   0.0109240
        k(   79) = (   0.1538462   0.3846154  -0.3846154), wk =   0.0218480
        k(   80) = (   0.1538462   0.3846154  -0.3076923), wk =   0.0218480
        k(   81) = (   0.1538462   0.3846154  -0.2307692), wk =   0.0109240
        k(   82) = (   0.1538462   0.4615385  -0.3846154), wk =   0.0109240
        k(   83) = (   0.1538462   0.4615385  -0.3076923), wk =   0.0109240
        k(   84) = (   0.2307692   0.4615385  -0.3076923), wk =   0.0109240

     Dense  grid:   200401 G-vectors     FFT dimensions: (  81,  81,  81)

     Smooth grid:    38517 G-vectors     FFT dimensions: (  48,  48,  48)

     Dynamical RAM for                 wfc:       2.21 MB

     Dynamical RAM for     wfc (w. buffer):     372.89 MB

     Dynamical RAM for           str. fact:       9.17 MB

     Dynamical RAM for           local pot:       0.00 MB

     Dynamical RAM for          nlocal pot:       5.30 MB

     Dynamical RAM for                qrad:       7.91 MB

     Dynamical RAM for          rho,v,vnew:      42.67 MB

     Dynamical RAM for               rhoin:      14.22 MB

     Dynamical RAM for            rho*nmix:      97.85 MB

     Dynamical RAM for           G-vectors:      11.76 MB

     Dynamical RAM for          h,s,v(r/c):       0.16 MB

     Dynamical RAM for          <psi|beta>:       0.03 MB

     Dynamical RAM for                 psi:       4.41 MB

     Dynamical RAM for                hpsi:       4.41 MB

     Dynamical RAM for                spsi:       4.41 MB

     Dynamical RAM for      wfcinit/wfcrot:       6.37 MB

     Dynamical RAM for           addusdens:     577.94 MB

     Dynamical RAM for          addusforce:     584.07 MB

     Dynamical RAM for         addusstress:     619.22 MB

     Estimated static dynamical RAM per process >     500.48 MB

     Estimated max dynamical RAM per process >       1.19 GB

     Check: negative core charge=   -0.000009
     Generating pointlists ...
     new r_m :   0.2526 (alat units)  1.9679 (a.u.) for type    1
     new r_m :   0.2526 (alat units)  1.9679 (a.u.) for type    2
     new r_m :   0.2526 (alat units)  1.9679 (a.u.) for type    3

     Initial potential from superposition of free atoms

     starting charge      49.4969, renormalised to      50.0000
     Starting wfcs are   43 randomized atomic wfcs
     Checking if some PAW data can be deallocated... 

     total cpu time spent up to now is        8.2 secs

     per-process dynamical memory:  1178.0 Mb

     Self-consistent Calculation
[tb_dev] Currently allocated     1.27E+00 Mbytes, locked:    0 /   8
[tb_pin] Currently allocated     0.00E+00 Mbytes, locked:    0 /   0

     iteration #  1     ecut=    90.00 Ry     beta= 0.40
     Davidson diagonalization with overlap

---- Real-time Memory Report at c_bands before calling an iterative solver
          1546 MiB given to the printing process from OS
          1165 MiB allocation reported by mallinfo(arena+hblkhd)
         43483 MiB available memory on the node where the printing process lives
     GPU memory used/free/total (MiB): 1064 / 15216 / 16280
------------------
     ethr =  1.00E-02,  avg # of iterations =  2.0

     total cpu time spent up to now is       13.1 secs

     total energy              =    -903.04403980 Ry
     estimated scf accuracy    <       0.98093214 Ry

     total magnetization       =     8.55 Bohr mag/cell
     absolute magnetization    =     8.91 Bohr mag/cell
[tb_dev] Currently allocated     1.27E+00 Mbytes, locked:    0 /   6
[tb_pin] Currently allocated     0.00E+00 Mbytes, locked:    0 /   0

     iteration #  2     ecut=    90.00 Ry     beta= 0.40
     Davidson diagonalization with overlap

---- Real-time Memory Report at c_bands before calling an iterative solver
          1770 MiB given to the printing process from OS
          1219 MiB allocation reported by mallinfo(arena+hblkhd)
         43449 MiB available memory on the node where the printing process lives
     GPU memory used/free/total (MiB): 1788 / 14492 / 16280
------------------
     ethr =  1.96E-03,  avg # of iterations =  3.4

     total cpu time spent up to now is       18.9 secs

     total energy              =    -902.85286344 Ry
     estimated scf accuracy    <       4.79639834 Ry

     total magnetization       =     5.56 Bohr mag/cell
     absolute magnetization    =     5.92 Bohr mag/cell
[tb_dev] Currently allocated     1.27E+00 Mbytes, locked:    0 /   6
[tb_pin] Currently allocated     0.00E+00 Mbytes, locked:    0 /   0

     iteration #  3     ecut=    90.00 Ry     beta= 0.40
     Davidson diagonalization with overlap

---- Real-time Memory Report at c_bands before calling an iterative solver
          1934 MiB given to the printing process from OS
          1229 MiB allocation reported by mallinfo(arena+hblkhd)
         43439 MiB available memory on the node where the printing process lives
     GPU memory used/free/total (MiB): 1838 / 14442 / 16280
------------------
     ethr =  1.96E-03,  avg # of iterations =  3.8

     total cpu time spent up to now is       24.8 secs

     total energy              =    -903.27164685 Ry
     estimated scf accuracy    <       1.01914601 Ry

     total magnetization       =     8.15 Bohr mag/cell
     absolute magnetization    =     8.63 Bohr mag/cell
[tb_dev] Currently allocated     1.27E+00 Mbytes, locked:    0 /   6
[tb_pin] Currently allocated     0.00E+00 Mbytes, locked:    0 /   0

     iteration #  4     ecut=    90.00 Ry     beta= 0.40
     Davidson diagonalization with overlap

---- Real-time Memory Report at c_bands before calling an iterative solver
          2003 MiB given to the printing process from OS
          1239 MiB allocation reported by mallinfo(arena+hblkhd)
         43430 MiB available memory on the node where the printing process lives
     GPU memory used/free/total (MiB): 1838 / 14442 / 16280
------------------
     ethr =  1.96E-03,  avg # of iterations =  1.8

     negative rho (up, down):  0.000E+00 4.735E-05

     total cpu time spent up to now is       29.4 secs

     total energy              =    -903.41445317 Ry
     estimated scf accuracy    <       0.09046298 Ry

     total magnetization       =     7.50 Bohr mag/cell
     absolute magnetization    =     8.05 Bohr mag/cell
[tb_dev] Currently allocated     1.27E+00 Mbytes, locked:    0 /   6
[tb_pin] Currently allocated     0.00E+00 Mbytes, locked:    0 /   0

     iteration #  5     ecut=    90.00 Ry     beta= 0.40
     Davidson diagonalization with overlap

---- Real-time Memory Report at c_bands before calling an iterative solver
          2071 MiB given to the printing process from OS
          1248 MiB allocation reported by mallinfo(arena+hblkhd)
         43420 MiB available memory on the node where the printing process lives
     GPU memory used/free/total (MiB): 1838 / 14442 / 16280
------------------
     ethr =  1.81E-04,  avg # of iterations =  4.4

     negative rho (up, down):  0.000E+00 4.926E-05

     total cpu time spent up to now is       35.6 secs

     total energy              =    -903.43058907 Ry
     estimated scf accuracy    <       0.58182994 Ry

     total magnetization       =     5.70 Bohr mag/cell
     absolute magnetization    =     6.40 Bohr mag/cell
[tb_dev] Currently allocated     1.27E+00 Mbytes, locked:    0 /   6
[tb_pin] Currently allocated     0.00E+00 Mbytes, locked:    0 /   0

     iteration #  6     ecut=    90.00 Ry     beta= 0.40
     Davidson diagonalization with overlap

---- Real-time Memory Report at c_bands before calling an iterative solver
          2137 MiB given to the printing process from OS
          1257 MiB allocation reported by mallinfo(arena+hblkhd)
         43414 MiB available memory on the node where the printing process lives
     GPU memory used/free/total (MiB): 1838 / 14442 / 16280
------------------
     ethr =  1.81E-04,  avg # of iterations =  1.6

     negative rho (up, down):  0.000E+00 2.321E-05

     total cpu time spent up to now is       40.1 secs

     total energy              =    -903.43450751 Ry
     estimated scf accuracy    <       0.12713297 Ry

     total magnetization       =     6.12 Bohr mag/cell
     absolute magnetization    =     6.78 Bohr mag/cell
[tb_dev] Currently allocated     1.27E+00 Mbytes, locked:    0 /   6
[tb_pin] Currently allocated     0.00E+00 Mbytes, locked:    0 /   0

     iteration #  7     ecut=    90.00 Ry     beta= 0.40
     Davidson diagonalization with overlap

---- Real-time Memory Report at c_bands before calling an iterative solver
          2158 MiB given to the printing process from OS
          1266 MiB allocation reported by mallinfo(arena+hblkhd)
         43402 MiB available memory on the node where the printing process lives
     GPU memory used/free/total (MiB): 1838 / 14442 / 16280
------------------
     ethr =  1.81E-04,  avg # of iterations =  1.6

     total cpu time spent up to now is       44.6 secs

     total energy              =    -903.43737397 Ry
     estimated scf accuracy    <       0.03033240 Ry

     total magnetization       =     6.17 Bohr mag/cell
     absolute magnetization    =     6.80 Bohr mag/cell
[tb_dev] Currently allocated     1.27E+00 Mbytes, locked:    0 /   6
[tb_pin] Currently allocated     0.00E+00 Mbytes, locked:    0 /   0

     iteration #  8     ecut=    90.00 Ry     beta= 0.40
     Davidson diagonalization with overlap

---- Real-time Memory Report at c_bands before calling an iterative solver
          2167 MiB given to the printing process from OS
          1275 MiB allocation reported by mallinfo(arena+hblkhd)
         43396 MiB available memory on the node where the printing process lives
     GPU memory used/free/total (MiB): 1838 / 14442 / 16280
------------------
     ethr =  6.07E-05,  avg # of iterations =  3.5

     total cpu time spent up to now is       50.1 secs

     total energy              =    -903.43990280 Ry
     estimated scf accuracy    <       0.00589159 Ry

     total magnetization       =     5.97 Bohr mag/cell
     absolute magnetization    =     6.58 Bohr mag/cell
[tb_dev] Currently allocated     1.27E+00 Mbytes, locked:    0 /   6
[tb_pin] Currently allocated     0.00E+00 Mbytes, locked:    0 /   0

     iteration #  9     ecut=    90.00 Ry     beta= 0.40
     Davidson diagonalization with overlap

---- Real-time Memory Report at c_bands before calling an iterative solver
          2175 MiB given to the printing process from OS
          1284 MiB allocation reported by mallinfo(arena+hblkhd)
         43386 MiB available memory on the node where the printing process lives
     GPU memory used/free/total (MiB): 1838 / 14442 / 16280
------------------
     ethr =  1.18E-05,  avg # of iterations =  5.5

     total cpu time spent up to now is       57.0 secs

     total energy              =    -903.44008993 Ry
     estimated scf accuracy    <       0.00058861 Ry

     total magnetization       =     5.77 Bohr mag/cell
     absolute magnetization    =     6.35 Bohr mag/cell
[tb_dev] Currently allocated     1.27E+00 Mbytes, locked:    0 /   6
[tb_pin] Currently allocated     0.00E+00 Mbytes, locked:    0 /   0

     iteration # 10     ecut=    90.00 Ry     beta= 0.40
     Davidson diagonalization with overlap

---- Real-time Memory Report at c_bands before calling an iterative solver
          2184 MiB given to the printing process from OS
          1293 MiB allocation reported by mallinfo(arena+hblkhd)
         43378 MiB available memory on the node where the printing process lives
     GPU memory used/free/total (MiB): 1838 / 14442 / 16280
------------------
     c_bands:  1 eigenvalues not converged
     c_bands:  1 eigenvalues not converged
     c_bands:  1 eigenvalues not converged
     c_bands:  1 eigenvalues not converged
     c_bands:  1 eigenvalues not converged
     ethr =  1.18E-06,  avg # of iterations =  7.6

     total cpu time spent up to now is       65.9 secs

     total energy              =    -903.44220474 Ry
     estimated scf accuracy    <       0.00138323 Ry

     total magnetization       =     5.25 Bohr mag/cell
     absolute magnetization    =     5.80 Bohr mag/cell
[tb_dev] Currently allocated     1.27E+00 Mbytes, locked:    0 /   6
[tb_pin] Currently allocated     0.00E+00 Mbytes, locked:    0 /   0

     iteration # 11     ecut=    90.00 Ry     beta= 0.40
     Davidson diagonalization with overlap

---- Real-time Memory Report at c_bands before calling an iterative solver
          2190 MiB given to the printing process from OS
          1299 MiB allocation reported by mallinfo(arena+hblkhd)
         43371 MiB available memory on the node where the printing process lives
     GPU memory used/free/total (MiB): 1838 / 14442 / 16280
------------------
     ethr =  1.18E-06,  avg # of iterations =  4.3

     total cpu time spent up to now is       72.0 secs

     total energy              =    -903.44106171 Ry
     estimated scf accuracy    <       0.00038655 Ry

     total magnetization       =     5.19 Bohr mag/cell
     absolute magnetization    =     5.73 Bohr mag/cell
[tb_dev] Currently allocated     1.27E+00 Mbytes, locked:    0 /   6
[tb_pin] Currently allocated     0.00E+00 Mbytes, locked:    0 /   0

     iteration # 12     ecut=    90.00 Ry     beta= 0.40
     Davidson diagonalization with overlap

---- Real-time Memory Report at c_bands before calling an iterative solver
          2197 MiB given to the printing process from OS
          1304 MiB allocation reported by mallinfo(arena+hblkhd)
         43367 MiB available memory on the node where the printing process lives
     GPU memory used/free/total (MiB): 1838 / 14442 / 16280
------------------
     ethr =  7.73E-07,  avg # of iterations =  5.0

     total cpu time spent up to now is       79.1 secs

     total energy              =    -903.44230152 Ry
     estimated scf accuracy    <       0.00020825 Ry

     total magnetization       =     4.75 Bohr mag/cell
     absolute magnetization    =     5.27 Bohr mag/cell
[tb_dev] Currently allocated     1.27E+00 Mbytes, locked:    0 /   6
[tb_pin] Currently allocated     0.00E+00 Mbytes, locked:    0 /   0

     iteration # 13     ecut=    90.00 Ry     beta= 0.40
     Davidson diagonalization with overlap

---- Real-time Memory Report at c_bands before calling an iterative solver
          2202 MiB given to the printing process from OS
          1309 MiB allocation reported by mallinfo(arena+hblkhd)
         43362 MiB available memory on the node where the printing process lives
     GPU memory used/free/total (MiB): 1838 / 14442 / 16280
------------------
     ethr =  4.16E-07,  avg # of iterations =  4.3

     total cpu time spent up to now is       85.4 secs

     total energy              =    -903.43770987 Ry
     estimated scf accuracy    <       0.00105347 Ry

     total magnetization       =     4.90 Bohr mag/cell
     absolute magnetization    =     5.43 Bohr mag/cell
[tb_dev] Currently allocated     1.27E+00 Mbytes, locked:    0 /   6
[tb_pin] Currently allocated     0.00E+00 Mbytes, locked:    0 /   0

     iteration # 14     ecut=    90.00 Ry     beta= 0.40
     Davidson diagonalization with overlap

---- Real-time Memory Report at c_bands before calling an iterative solver
          2208 MiB given to the printing process from OS
          1315 MiB allocation reported by mallinfo(arena+hblkhd)
         43358 MiB available memory on the node where the printing process lives
     GPU memory used/free/total (MiB): 1838 / 14442 / 16280
------------------
     ethr =  4.16E-07,  avg # of iterations =  6.9

     total cpu time spent up to now is       94.1 secs

     total energy              =    -903.43985222 Ry
     estimated scf accuracy    <       0.00147440 Ry

     total magnetization       =     5.62 Bohr mag/cell
     absolute magnetization    =     6.16 Bohr mag/cell
[tb_dev] Currently allocated     1.27E+00 Mbytes, locked:    0 /   6
[tb_pin] Currently allocated     0.00E+00 Mbytes, locked:    0 /   0

     iteration # 15     ecut=    90.00 Ry     beta= 0.40
     Davidson diagonalization with overlap

---- Real-time Memory Report at c_bands before calling an iterative solver
          2213 MiB given to the printing process from OS
          1320 MiB allocation reported by mallinfo(arena+hblkhd)
         43349 MiB available memory on the node where the printing process lives
     GPU memory used/free/total (MiB): 1838 / 14442 / 16280
------------------
     ethr =  4.16E-07,  avg # of iterations =  6.6

     total cpu time spent up to now is      102.5 secs

     total energy              =    -903.44257923 Ry
     estimated scf accuracy    <       0.00047285 Ry

     total magnetization       =     5.10 Bohr mag/cell
     absolute magnetization    =     5.63 Bohr mag/cell
[tb_dev] Currently allocated     1.27E+00 Mbytes, locked:    0 /   6
[tb_pin] Currently allocated     0.00E+00 Mbytes, locked:    0 /   0

     iteration # 16     ecut=    90.00 Ry     beta= 0.40
     Davidson diagonalization with overlap

---- Real-time Memory Report at c_bands before calling an iterative solver
          2219 MiB given to the printing process from OS
          1325 MiB allocation reported by mallinfo(arena+hblkhd)
         43347 MiB available memory on the node where the printing process lives
     GPU memory used/free/total (MiB): 1838 / 14442 / 16280
------------------
     ethr =  4.16E-07,  avg # of iterations =  1.2

     total cpu time spent up to now is      106.8 secs

     total energy              =    -903.44220955 Ry
     estimated scf accuracy    <       0.00004604 Ry

     total magnetization       =     5.03 Bohr mag/cell
     absolute magnetization    =     5.56 Bohr mag/cell
[tb_dev] Currently allocated     1.27E+00 Mbytes, locked:    0 /   6
[tb_pin] Currently allocated     0.00E+00 Mbytes, locked:    0 /   0

     iteration # 17     ecut=    90.00 Ry     beta= 0.40
     Davidson diagonalization with overlap

---- Real-time Memory Report at c_bands before calling an iterative solver
          2225 MiB given to the printing process from OS
          1331 MiB allocation reported by mallinfo(arena+hblkhd)
         43340 MiB available memory on the node where the printing process lives
     GPU memory used/free/total (MiB): 1838 / 14442 / 16280
------------------
     ethr =  9.21E-08,  avg # of iterations =  6.8

     total cpu time spent up to now is      115.4 secs

     total energy              =    -903.44190390 Ry
     estimated scf accuracy    <       0.00030371 Ry

     total magnetization       =     4.81 Bohr mag/cell
     absolute magnetization    =     5.33 Bohr mag/cell
[tb_dev] Currently allocated     1.27E+00 Mbytes, locked:    0 /   6
[tb_pin] Currently allocated     0.00E+00 Mbytes, locked:    0 /   0

     iteration # 18     ecut=    90.00 Ry     beta= 0.40
     Davidson diagonalization with overlap

---- Real-time Memory Report at c_bands before calling an iterative solver
          2230 MiB given to the printing process from OS
          1336 MiB allocation reported by mallinfo(arena+hblkhd)
         43335 MiB available memory on the node where the printing process lives
     GPU memory used/free/total (MiB): 1838 / 14442 / 16280
------------------
     c_bands:  1 eigenvalues not converged
     ethr =  9.21E-08,  avg # of iterations =  7.7

     total cpu time spent up to now is      124.6 secs

     total energy              =    -903.44303383 Ry
     estimated scf accuracy    <       0.00018680 Ry

     total magnetization       =     4.48 Bohr mag/cell
     absolute magnetization    =     4.98 Bohr mag/cell
[tb_dev] Currently allocated     1.27E+00 Mbytes, locked:    0 /   6
[tb_pin] Currently allocated     0.00E+00 Mbytes, locked:    0 /   0

     iteration # 19     ecut=    90.00 Ry     beta= 0.40
     Davidson diagonalization with overlap

---- Real-time Memory Report at c_bands before calling an iterative solver
          2235 MiB given to the printing process from OS
          1342 MiB allocation reported by mallinfo(arena+hblkhd)
         43330 MiB available memory on the node where the printing process lives
     GPU memory used/free/total (MiB): 1838 / 14442 / 16280
------------------
     ethr =  9.21E-08,  avg # of iterations =  2.0

     total cpu time spent up to now is      129.3 secs

     total energy              =    -903.44305831 Ry
     estimated scf accuracy    <       0.00019313 Ry

     total magnetization       =     4.45 Bohr mag/cell
     absolute magnetization    =     4.95 Bohr mag/cell
[tb_dev] Currently allocated     1.27E+00 Mbytes, locked:    0 /   6
[tb_pin] Currently allocated     0.00E+00 Mbytes, locked:    0 /   0

     iteration # 20     ecut=    90.00 Ry     beta= 0.40
     Davidson diagonalization with overlap

---- Real-time Memory Report at c_bands before calling an iterative solver
          2240 MiB given to the printing process from OS
          1347 MiB allocation reported by mallinfo(arena+hblkhd)
         43326 MiB available memory on the node where the printing process lives
     GPU memory used/free/total (MiB): 1838 / 14442 / 16280
------------------
     ethr =  9.21E-08,  avg # of iterations =  2.6

     total cpu time spent up to now is      134.4 secs

     total energy              =    -903.43928407 Ry
     estimated scf accuracy    <       0.00021883 Ry

     total magnetization       =     4.42 Bohr mag/cell
     absolute magnetization    =     4.93 Bohr mag/cell
[tb_dev] Currently allocated     1.27E+00 Mbytes, locked:    0 /   6
[tb_pin] Currently allocated     0.00E+00 Mbytes, locked:    0 /   0

     iteration # 21     ecut=    90.00 Ry     beta= 0.40
     Davidson diagonalization with overlap

---- Real-time Memory Report at c_bands before calling an iterative solver
          2246 MiB given to the printing process from OS
          1353 MiB allocation reported by mallinfo(arena+hblkhd)
         43321 MiB available memory on the node where the printing process lives
     GPU memory used/free/total (MiB): 1838 / 14442 / 16280
------------------
     c_bands:  2 eigenvalues not converged
     ethr =  9.21E-08,  avg # of iterations =  8.7

     total cpu time spent up to now is      144.5 secs

     total energy              =    -903.43535949 Ry
     estimated scf accuracy    <       0.00017432 Ry

     total magnetization       =     4.99 Bohr mag/cell
     absolute magnetization    =     5.51 Bohr mag/cell
[tb_dev] Currently allocated     1.27E+00 Mbytes, locked:    0 /   6
[tb_pin] Currently allocated     0.00E+00 Mbytes, locked:    0 /   0

     iteration # 22     ecut=    90.00 Ry     beta= 0.40
     Davidson diagonalization with overlap

---- Real-time Memory Report at c_bands before calling an iterative solver
          2253 MiB given to the printing process from OS
          1359 MiB allocation reported by mallinfo(arena+hblkhd)
         43310 MiB available memory on the node where the printing process lives
     GPU memory used/free/total (MiB): 1838 / 14442 / 16280
------------------
     c_bands:  1 eigenvalues not converged
     ethr =  9.21E-08,  avg # of iterations =  9.7

     total cpu time spent up to now is      155.7 secs

     total energy              =    -903.43685335 Ry
     estimated scf accuracy    <       0.00161410 Ry

     total magnetization       =     5.75 Bohr mag/cell
     absolute magnetization    =     6.29 Bohr mag/cell
[tb_dev] Currently allocated     1.27E+00 Mbytes, locked:    0 /   6
[tb_pin] Currently allocated     0.00E+00 Mbytes, locked:    0 /   0

     iteration # 23     ecut=    90.00 Ry     beta= 0.40
     Davidson diagonalization with overlap

---- Real-time Memory Report at c_bands before calling an iterative solver
          2260 MiB given to the printing process from OS
          1365 MiB allocation reported by mallinfo(arena+hblkhd)
         43305 MiB available memory on the node where the printing process lives
     GPU memory used/free/total (MiB): 1838 / 14442 / 16280
------------------
     c_bands:  1 eigenvalues not converged
     c_bands:  1 eigenvalues not converged
     c_bands:  1 eigenvalues not converged
     ethr =  9.21E-08,  avg # of iterations =  9.1

     total cpu time spent up to now is      166.5 secs

     total energy              =    -903.44258912 Ry
     estimated scf accuracy    <       0.00011122 Ry

     total magnetization       =     4.98 Bohr mag/cell
     absolute magnetization    =     5.50 Bohr mag/cell
[tb_dev] Currently allocated     1.27E+00 Mbytes, locked:    0 /   6
[tb_pin] Currently allocated     0.00E+00 Mbytes, locked:    0 /   0

     iteration # 24     ecut=    90.00 Ry     beta= 0.40
     Davidson diagonalization with overlap

---- Real-time Memory Report at c_bands before calling an iterative solver
          2266 MiB given to the printing process from OS
          1371 MiB allocation reported by mallinfo(arena+hblkhd)
         43301 MiB available memory on the node where the printing process lives
     GPU memory used/free/total (MiB): 1838 / 14442 / 16280
------------------
     ethr =  9.21E-08,  avg # of iterations =  3.3

     total cpu time spent up to now is      172.2 secs

     total energy              =    -903.44261693 Ry
     estimated scf accuracy    <       0.00012759 Ry

     total magnetization       =     5.04 Bohr mag/cell
     absolute magnetization    =     5.56 Bohr mag/cell
[tb_dev] Currently allocated     1.27E+00 Mbytes, locked:    0 /   6
[tb_pin] Currently allocated     0.00E+00 Mbytes, locked:    0 /   0

     iteration # 25     ecut=    90.00 Ry     beta= 0.40
     Davidson diagonalization with overlap

---- Real-time Memory Report at c_bands before calling an iterative solver
          2271 MiB given to the printing process from OS
          1376 MiB allocation reported by mallinfo(arena+hblkhd)
         43295 MiB available memory on the node where the printing process lives
     GPU memory used/free/total (MiB): 1838 / 14442 / 16280
------------------
     ethr =  9.21E-08,  avg # of iterations =  1.1

     total cpu time spent up to now is      176.5 secs

     total energy              =    -903.44257777 Ry
     estimated scf accuracy    <       0.00012683 Ry

     total magnetization       =     5.06 Bohr mag/cell
     absolute magnetization    =     5.58 Bohr mag/cell
[tb_dev] Currently allocated     1.27E+00 Mbytes, locked:    0 /   6
[tb_pin] Currently allocated     0.00E+00 Mbytes, locked:    0 /   0

     iteration # 26     ecut=    90.00 Ry     beta= 0.40
     Davidson diagonalization with overlap

---- Real-time Memory Report at c_bands before calling an iterative solver
          2278 MiB given to the printing process from OS
          1382 MiB allocation reported by mallinfo(arena+hblkhd)
         43286 MiB available memory on the node where the printing process lives
     GPU memory used/free/total (MiB): 1838 / 14442 / 16280
------------------
     ethr =  9.21E-08,  avg # of iterations =  2.7

     total cpu time spent up to now is      181.8 secs

     total energy              =    -903.44229256 Ry
     estimated scf accuracy    <       0.00015422 Ry

     total magnetization       =     5.09 Bohr mag/cell
     absolute magnetization    =     5.62 Bohr mag/cell
[tb_dev] Currently allocated     1.27E+00 Mbytes, locked:    0 /   6
[tb_pin] Currently allocated     0.00E+00 Mbytes, locked:    0 /   0

     iteration # 27     ecut=    90.00 Ry     beta= 0.40
     Davidson diagonalization with overlap

---- Real-time Memory Report at c_bands before calling an iterative solver
          2286 MiB given to the printing process from OS
          1388 MiB allocation reported by mallinfo(arena+hblkhd)
         43280 MiB available memory on the node where the printing process lives
     GPU memory used/free/total (MiB): 1838 / 14442 / 16280
------------------
     ethr =  9.21E-08,  avg # of iterations =  6.0

     total cpu time spent up to now is      189.6 secs

     total energy              =    -903.44274212 Ry
     estimated scf accuracy    <       0.00006632 Ry

     total magnetization       =     4.88 Bohr mag/cell
     absolute magnetization    =     5.39 Bohr mag/cell
[tb_dev] Currently allocated     1.27E+00 Mbytes, locked:    0 /   6
[tb_pin] Currently allocated     0.00E+00 Mbytes, locked:    0 /   0

     iteration # 28     ecut=    90.00 Ry     beta= 0.40
     Davidson diagonalization with overlap

---- Real-time Memory Report at c_bands before calling an iterative solver
          2292 MiB given to the printing process from OS
          1394 MiB allocation reported by mallinfo(arena+hblkhd)
         43276 MiB available memory on the node where the printing process lives
     GPU memory used/free/total (MiB): 1838 / 14442 / 16280
------------------
     ethr =  9.21E-08,  avg # of iterations =  1.3

     total cpu time spent up to now is      193.9 secs

     total energy              =    -903.44250393 Ry
     estimated scf accuracy    <       0.00005867 Ry

     total magnetization       =     4.86 Bohr mag/cell
     absolute magnetization    =     5.37 Bohr mag/cell
[tb_dev] Currently allocated     1.27E+00 Mbytes, locked:    0 /   6
[tb_pin] Currently allocated     0.00E+00 Mbytes, locked:    0 /   0

     iteration # 29     ecut=    90.00 Ry     beta= 0.40
     Davidson diagonalization with overlap

---- Real-time Memory Report at c_bands before calling an iterative solver
          2298 MiB given to the printing process from OS
          1400 MiB allocation reported by mallinfo(arena+hblkhd)
         43267 MiB available memory on the node where the printing process lives
     GPU memory used/free/total (MiB): 1838 / 14442 / 16280
------------------
     ethr =  9.21E-08,  avg # of iterations =  4.9

     total cpu time spent up to now is      201.0 secs

     total energy              =    -903.44181115 Ry
     estimated scf accuracy    <       0.00006836 Ry

     total magnetization       =     4.98 Bohr mag/cell
     absolute magnetization    =     5.50 Bohr mag/cell
[tb_dev] Currently allocated     1.27E+00 Mbytes, locked:    0 /   6
[tb_pin] Currently allocated     0.00E+00 Mbytes, locked:    0 /   0

     iteration # 30     ecut=    90.00 Ry     beta= 0.40
     Davidson diagonalization with overlap

---- Real-time Memory Report at c_bands before calling an iterative solver
          2303 MiB given to the printing process from OS
          1406 MiB allocation reported by mallinfo(arena+hblkhd)
         43259 MiB available memory on the node where the printing process lives
     GPU memory used/free/total (MiB): 1838 / 14442 / 16280
------------------
     ethr =  9.21E-08,  avg # of iterations =  7.2

     total cpu time spent up to now is      210.0 secs

     total energy              =    -903.44046329 Ry
     estimated scf accuracy    <       0.00006288 Ry

     total magnetization       =     4.66 Bohr mag/cell
     absolute magnetization    =     5.16 Bohr mag/cell
[tb_dev] Currently allocated     1.27E+00 Mbytes, locked:    0 /   6
[tb_pin] Currently allocated     0.00E+00 Mbytes, locked:    0 /   0

     iteration # 31     ecut=    90.00 Ry     beta= 0.40
     Davidson diagonalization with overlap

---- Real-time Memory Report at c_bands before calling an iterative solver
          2309 MiB given to the printing process from OS
          1412 MiB allocation reported by mallinfo(arena+hblkhd)
         43255 MiB available memory on the node where the printing process lives
     GPU memory used/free/total (MiB): 1838 / 14442 / 16280
------------------
     ethr =  9.21E-08,  avg # of iterations =  8.4

     total cpu time spent up to now is      220.1 secs

     total energy              =    -903.40676714 Ry
     estimated scf accuracy    <       0.00054222 Ry

     total magnetization       =     4.13 Bohr mag/cell
     absolute magnetization    =     4.61 Bohr mag/cell
[tb_dev] Currently allocated     1.27E+00 Mbytes, locked:    0 /   6
[tb_pin] Currently allocated     0.00E+00 Mbytes, locked:    0 /   0

     iteration # 32     ecut=    90.00 Ry     beta= 0.40
     Davidson diagonalization with overlap

---- Real-time Memory Report at c_bands before calling an iterative solver
          2315 MiB given to the printing process from OS
          1418 MiB allocation reported by mallinfo(arena+hblkhd)
         43250 MiB available memory on the node where the printing process lives
     GPU memory used/free/total (MiB): 1838 / 14442 / 16280
------------------
     c_bands:  1 eigenvalues not converged
     c_bands:  1 eigenvalues not converged
     c_bands:  1 eigenvalues not converged
     c_bands:  2 eigenvalues not converged
     c_bands:  1 eigenvalues not converged
     c_bands:  1 eigenvalues not converged
     c_bands:  1 eigenvalues not converged
     ethr =  9.21E-08,  avg # of iterations = 11.7

     total cpu time spent up to now is      233.4 secs

     total energy              =    -903.43006871 Ry
     estimated scf accuracy    <       0.00203871 Ry

     total magnetization       =     5.85 Bohr mag/cell
     absolute magnetization    =     6.39 Bohr mag/cell
[tb_dev] Currently allocated     1.27E+00 Mbytes, locked:    0 /   6
[tb_pin] Currently allocated     0.00E+00 Mbytes, locked:    0 /   0

     iteration # 33     ecut=    90.00 Ry     beta= 0.40
     Davidson diagonalization with overlap

---- Real-time Memory Report at c_bands before calling an iterative solver
          2321 MiB given to the printing process from OS
          1424 MiB allocation reported by mallinfo(arena+hblkhd)
         43240 MiB available memory on the node where the printing process lives
     GPU memory used/free/total (MiB): 1838 / 14442 / 16280
------------------
     c_bands:  1 eigenvalues not converged
     c_bands:  1 eigenvalues not converged
     c_bands:  2 eigenvalues not converged
     ethr =  9.21E-08,  avg # of iterations = 10.3

     total cpu time spent up to now is      245.3 secs

     total energy              =    -903.44273029 Ry
     estimated scf accuracy    <       0.00006509 Ry

     total magnetization       =     4.72 Bohr mag/cell
     absolute magnetization    =     5.23 Bohr mag/cell
[tb_dev] Currently allocated     1.27E+00 Mbytes, locked:    0 /   6
[tb_pin] Currently allocated     0.00E+00 Mbytes, locked:    0 /   0

     iteration # 34     ecut=    90.00 Ry     beta= 0.40
     Davidson diagonalization with overlap

---- Real-time Memory Report at c_bands before calling an iterative solver
          2329 MiB given to the printing process from OS
          1430 MiB allocation reported by mallinfo(arena+hblkhd)
         43238 MiB available memory on the node where the printing process lives
     GPU memory used/free/total (MiB): 1838 / 14442 / 16280
------------------
     ethr =  9.21E-08,  avg # of iterations =  3.5

     total cpu time spent up to now is      251.2 secs

     total energy              =    -903.44276786 Ry
     estimated scf accuracy    <       0.00006871 Ry

     total magnetization       =     4.79 Bohr mag/cell
     absolute magnetization    =     5.31 Bohr mag/cell
[tb_dev] Currently allocated     1.27E+00 Mbytes, locked:    0 /   6
[tb_pin] Currently allocated     0.00E+00 Mbytes, locked:    0 /   0

     iteration # 35     ecut=    90.00 Ry     beta= 0.40
     Davidson diagonalization with overlap

---- Real-time Memory Report at c_bands before calling an iterative solver
          2336 MiB given to the printing process from OS
          1436 MiB allocation reported by mallinfo(arena+hblkhd)
         43230 MiB available memory on the node where the printing process lives
     GPU memory used/free/total (MiB): 1838 / 14442 / 16280
------------------
     ethr =  9.21E-08,  avg # of iterations =  1.5

     total cpu time spent up to now is      255.7 secs

     total energy              =    -903.44246349 Ry
     estimated scf accuracy    <       0.00007431 Ry

     total magnetization       =     4.81 Bohr mag/cell
     absolute magnetization    =     5.33 Bohr mag/cell
[tb_dev] Currently allocated     1.27E+00 Mbytes, locked:    0 /   6
[tb_pin] Currently allocated     0.00E+00 Mbytes, locked:    0 /   0

     iteration # 36     ecut=    90.00 Ry     beta= 0.40
     Davidson diagonalization with overlap

---- Real-time Memory Report at c_bands before calling an iterative solver
          2342 MiB given to the printing process from OS
          1442 MiB allocation reported by mallinfo(arena+hblkhd)
         43223 MiB available memory on the node where the printing process lives
     GPU memory used/free/total (MiB): 1838 / 14442 / 16280
------------------
     ethr =  9.21E-08,  avg # of iterations =  5.4

     total cpu time spent up to now is      263.0 secs

     total energy              =    -903.44182733 Ry
     estimated scf accuracy    <       0.00007541 Ry

     total magnetization       =     4.96 Bohr mag/cell
     absolute magnetization    =     5.48 Bohr mag/cell
[tb_dev] Currently allocated     1.27E+00 Mbytes, locked:    0 /   6
[tb_pin] Currently allocated     0.00E+00 Mbytes, locked:    0 /   0

     iteration # 37     ecut=    90.00 Ry     beta= 0.40
     Davidson diagonalization with overlap

---- Real-time Memory Report at c_bands before calling an iterative solver
          2348 MiB given to the printing process from OS
          1448 MiB allocation reported by mallinfo(arena+hblkhd)
         43214 MiB available memory on the node where the printing process lives
     GPU memory used/free/total (MiB): 1838 / 14442 / 16280
------------------
     ethr =  9.21E-08,  avg # of iterations =  7.2

     total cpu time spent up to now is      272.0 secs

     total energy              =    -903.44255224 Ry
     estimated scf accuracy    <       0.00010029 Ry

     total magnetization       =     4.63 Bohr mag/cell
     absolute magnetization    =     5.14 Bohr mag/cell
[tb_dev] Currently allocated     1.27E+00 Mbytes, locked:    0 /   6
[tb_pin] Currently allocated     0.00E+00 Mbytes, locked:    0 /   0

     iteration # 38     ecut=    90.00 Ry     beta= 0.40
     Davidson diagonalization with overlap

---- Real-time Memory Report at c_bands before calling an iterative solver
          2356 MiB given to the printing process from OS
          1453 MiB allocation reported by mallinfo(arena+hblkhd)
         43209 MiB available memory on the node where the printing process lives
     GPU memory used/free/total (MiB): 1838 / 14442 / 16280
------------------
     ethr =  9.21E-08,  avg # of iterations =  5.2

     total cpu time spent up to now is      279.2 secs

     total energy              =    -903.44279736 Ry
     estimated scf accuracy    <       0.00009198 Ry

     total magnetization       =     4.78 Bohr mag/cell
     absolute magnetization    =     5.29 Bohr mag/cell
[tb_dev] Currently allocated     1.27E+00 Mbytes, locked:    0 /   6
[tb_pin] Currently allocated     0.00E+00 Mbytes, locked:    0 /   0

     iteration # 39     ecut=    90.00 Ry     beta= 0.40
     Davidson diagonalization with overlap

---- Real-time Memory Report at c_bands before calling an iterative solver
          2361 MiB given to the printing process from OS
          1459 MiB allocation reported by mallinfo(arena+hblkhd)
         43202 MiB available memory on the node where the printing process lives
     GPU memory used/free/total (MiB): 1838 / 14442 / 16280
------------------
     ethr =  9.21E-08,  avg # of iterations =  1.0

     total cpu time spent up to now is      283.5 secs

     total energy              =    -903.44263974 Ry
     estimated scf accuracy    <       0.00009740 Ry

     total magnetization       =     4.76 Bohr mag/cell
     absolute magnetization    =     5.28 Bohr mag/cell
[tb_dev] Currently allocated     1.27E+00 Mbytes, locked:    0 /   6
[tb_pin] Currently allocated     0.00E+00 Mbytes, locked:    0 /   0

     iteration # 40     ecut=    90.00 Ry     beta= 0.40
     Davidson diagonalization with overlap

---- Real-time Memory Report at c_bands before calling an iterative solver
          2367 MiB given to the printing process from OS
          1465 MiB allocation reported by mallinfo(arena+hblkhd)
         43197 MiB available memory on the node where the printing process lives
     GPU memory used/free/total (MiB): 1838 / 14442 / 16280
------------------
     ethr =  9.21E-08,  avg # of iterations =  4.3

     total cpu time spent up to now is      290.0 secs

     total energy              =    -903.44233600 Ry
     estimated scf accuracy    <       0.00009207 Ry

     total magnetization       =     4.87 Bohr mag/cell
     absolute magnetization    =     5.38 Bohr mag/cell
[tb_dev] Currently allocated     1.27E+00 Mbytes, locked:    0 /   6
[tb_pin] Currently allocated     0.00E+00 Mbytes, locked:    0 /   0

     iteration # 41     ecut=    90.00 Ry     beta= 0.40
     Davidson diagonalization with overlap

---- Real-time Memory Report at c_bands before calling an iterative solver
          2373 MiB given to the printing process from OS
          1471 MiB allocation reported by mallinfo(arena+hblkhd)
         43188 MiB available memory on the node where the printing process lives
     GPU memory used/free/total (MiB): 1838 / 14442 / 16280
------------------
     ethr =  9.21E-08,  avg # of iterations =  6.2

     negative rho (up, down):  0.000E+00 3.923E-05

     total cpu time spent up to now is      297.9 secs

     total energy              =    -903.39922346 Ry
     estimated scf accuracy    <       0.00007937 Ry

     total magnetization       =     4.63 Bohr mag/cell
     absolute magnetization    =     5.14 Bohr mag/cell
[tb_dev] Currently allocated     1.27E+00 Mbytes, locked:    0 /   6
[tb_pin] Currently allocated     0.00E+00 Mbytes, locked:    0 /   0

     iteration # 42     ecut=    90.00 Ry     beta= 0.40
     Davidson diagonalization with overlap

---- Real-time Memory Report at c_bands before calling an iterative solver
[...]

     iteration # 65     ecut=    90.00 Ry     beta= 0.40
     Davidson diagonalization with overlap

---- Real-time Memory Report at c_bands before calling an iterative solver
          2528 MiB given to the printing process from OS
          1626 MiB allocation reported by mallinfo(arena+hblkhd)
         43035 MiB available memory on the node where the printing process lives
     GPU memory used/free/total (MiB): 1838 / 14442 / 16280
------------------
     ethr =  7.22E-08,  avg # of iterations =  7.9

     total cpu time spent up to now is      507.2 secs

     total energy              =    -903.44236419 Ry
     estimated scf accuracy    <       0.00029478 Ry

     total magnetization       =     4.36 Bohr mag/cell
     absolute magnetization    =     4.86 Bohr mag/cell
[tb_dev] Currently allocated     1.27E+00 Mbytes, locked:    0 /   6
[tb_pin] Currently allocated     0.00E+00 Mbytes, locked:    0 /   0

     iteration # 66     ecut=    90.00 Ry     beta= 0.40
     Davidson diagonalization with overlap

---- Real-time Memory Report at c_bands before calling an iterative solver
          2535 MiB given to the printing process from OS
          1632 MiB allocation reported by mallinfo(arena+hblkhd)
         43029 MiB available memory on the node where the printing process lives
     GPU memory used/free/total (MiB): 1838 / 14442 / 16280
------------------
     ethr =  7.22E-08,  avg # of iterations =  6.8

     total cpu time spent up to now is      515.8 secs

     total energy              =    -903.44286323 Ry
     estimated scf accuracy    <       0.00017632 Ry

     total magnetization       =     4.58 Bohr mag/cell
     absolute magnetization    =     5.09 Bohr mag/cell
[tb_dev] Currently allocated     1.27E+00 Mbytes, locked:    0 /   6
[tb_pin] Currently allocated     0.00E+00 Mbytes, locked:    0 /   0

     iteration # 67     ecut=    90.00 Ry     beta= 0.40
     Davidson diagonalization with overlap

---- Real-time Memory Report at c_bands before calling an iterative solver
          2541 MiB given to the printing process from OS
          1638 MiB allocation reported by mallinfo(arena+hblkhd)
         43022 MiB available memory on the node where the printing process lives
     GPU memory used/free/total (MiB): 1838 / 14442 / 16280
------------------
     ethr =  7.22E-08,  avg # of iterations =  3.2

     total cpu time spent up to now is      521.4 secs

     total energy              =    -903.44116012 Ry
     estimated scf accuracy    <       0.00016096 Ry

     total magnetization       =     4.63 Bohr mag/cell
     absolute magnetization    =     5.13 Bohr mag/cell
[tb_dev] Currently allocated     1.27E+00 Mbytes, locked:    0 /   6
[tb_pin] Currently allocated     0.00E+00 Mbytes, locked:    0 /   0

     iteration # 68     ecut=    90.00 Ry     beta= 0.40
     Davidson diagonalization with overlap

---- Real-time Memory Report at c_bands before calling an iterative solver
          2547 MiB given to the printing process from OS
          1644 MiB allocation reported by mallinfo(arena+hblkhd)
         43019 MiB available memory on the node where the printing process lives
     GPU memory used/free/total (MiB): 1838 / 14442 / 16280
------------------
     ethr =  7.22E-08,  avg # of iterations =  8.4

     total cpu time spent up to now is      531.3 secs

     total energy              =    -903.44242924 Ry
     estimated scf accuracy    <       0.00047234 Ry

     total magnetization       =     4.18 Bohr mag/cell
     absolute magnetization    =     4.67 Bohr mag/cell
[tb_dev] Currently allocated     1.27E+00 Mbytes, locked:    0 /   6
[tb_pin] Currently allocated     0.00E+00 Mbytes, locked:    0 /   0

     iteration # 69     ecut=    90.00 Ry     beta= 0.40
     Davidson diagonalization with overlap

---- Real-time Memory Report at c_bands before calling an iterative solver
          2554 MiB given to the printing process from OS
          1650 MiB allocation reported by mallinfo(arena+hblkhd)
         43011 MiB available memory on the node where the printing process lives
     GPU memory used/free/total (MiB): 1838 / 14442 / 16280
------------------
     ethr =  7.22E-08,  avg # of iterations =  6.5

     total cpu time spent up to now is      539.6 secs

     total energy              =    -903.44263034 Ry
     estimated scf accuracy    <       0.00023559 Ry

     total magnetization       =     4.42 Bohr mag/cell
     absolute magnetization    =     4.92 Bohr mag/cell
[tb_dev] Currently allocated     1.27E+00 Mbytes, locked:    0 /   6
[tb_pin] Currently allocated     0.00E+00 Mbytes, locked:    0 /   0

     iteration # 70     ecut=    90.00 Ry     beta= 0.40
     Davidson diagonalization with overlap

---- Real-time Memory Report at c_bands before calling an iterative solver
          2562 MiB given to the printing process from OS
          1663 MiB allocation reported by mallinfo(arena+hblkhd)
         43002 MiB available memory on the node where the printing process lives
     GPU memory used/free/total (MiB): 1838 / 14442 / 16280
------------------
     ethr =  7.22E-08,  avg # of iterations =  6.0

     total cpu time spent up to now is      547.3 secs

     total energy              =    -903.44248520 Ry
     estimated scf accuracy    <       0.00017347 Ry

     total magnetization       =     4.58 Bohr mag/cell
     absolute magnetization    =     5.09 Bohr mag/cell
[tb_dev] Currently allocated     1.27E+00 Mbytes, locked:    0 /   6
[tb_pin] Currently allocated     0.00E+00 Mbytes, locked:    0 /   0

     iteration # 71     ecut=    90.00 Ry     beta= 0.40
     Davidson diagonalization with overlap

---- Real-time Memory Report at c_bands before calling an iterative solver
          2569 MiB given to the printing process from OS
          1669 MiB allocation reported by mallinfo(arena+hblkhd)
         42995 MiB available memory on the node where the printing process lives
     GPU memory used/free/total (MiB): 1838 / 14442 / 16280
------------------
     ethr =  7.22E-08,  avg # of iterations =  6.2

     total cpu time spent up to now is      555.2 secs

     total energy              =    -903.43821780 Ry
     estimated scf accuracy    <       0.00016073 Ry

     total magnetization       =     4.75 Bohr mag/cell
     absolute magnetization    =     5.26 Bohr mag/cell
[tb_dev] Currently allocated     1.27E+00 Mbytes, locked:    0 /   6
[tb_pin] Currently allocated     0.00E+00 Mbytes, locked:    0 /   0

     iteration # 72     ecut=    90.00 Ry     beta= 0.40
     Davidson diagonalization with overlap

---- Real-time Memory Report at c_bands before calling an iterative solver
          2576 MiB given to the printing process from OS
          1675 MiB allocation reported by mallinfo(arena+hblkhd)
         42990 MiB available memory on the node where the printing process lives
     GPU memory used/free/total (MiB): 1838 / 14442 / 16280
------------------
     c_bands:  1 eigenvalues not converged
     c_bands:  1 eigenvalues not converged
     ethr =  7.22E-08,  avg # of iterations =  9.6

     total cpu time spent up to now is      566.3 secs

     total energy              =    -903.44019074 Ry
     estimated scf accuracy    <       0.00074433 Ry

     total magnetization       =     5.37 Bohr mag/cell
     absolute magnetization    =     5.90 Bohr mag/cell
[tb_dev] Currently allocated     1.27E+00 Mbytes, locked:    0 /   6
[tb_pin] Currently allocated     0.00E+00 Mbytes, locked:    0 /   0

     iteration # 73     ecut=    90.00 Ry     beta= 0.40
     Davidson diagonalization with overlap

---- Real-time Memory Report at c_bands before calling an iterative solver
          2583 MiB given to the printing process from OS
          1681 MiB allocation reported by mallinfo(arena+hblkhd)
         42983 MiB available memory on the node where the printing process lives
     GPU memory used/free/total (MiB): 1838 / 14442 / 16280
------------------
     c_bands:  1 eigenvalues not converged
     ethr =  7.22E-08,  avg # of iterations =  8.6

     total cpu time spent up to now is      576.5 secs

     total energy              =    -903.44226534 Ry
     estimated scf accuracy    <       0.00016895 Ry

     total magnetization       =     4.87 Bohr mag/cell
     absolute magnetization    =     5.38 Bohr mag/cell
[tb_dev] Currently allocated     1.27E+00 Mbytes, locked:    0 /   6
[tb_pin] Currently allocated     0.00E+00 Mbytes, locked:    0 /   0

     iteration # 74     ecut=    90.00 Ry     beta= 0.40
     Davidson diagonalization with overlap

---- Real-time Memory Report at c_bands before calling an iterative solver
          2589 MiB given to the printing process from OS
          1687 MiB allocation reported by mallinfo(arena+hblkhd)
         42972 MiB available memory on the node where the printing process lives
     GPU memory used/free/total (MiB): 1838 / 14442 / 16280
------------------
     ethr =  7.22E-08,  avg # of iterations =  7.0

     total cpu time spent up to now is      585.2 secs

     total energy              =    -903.44287768 Ry
     estimated scf accuracy    <       0.00015386 Ry

     total magnetization       =     4.62 Bohr mag/cell
     absolute magnetization    =     5.13 Bohr mag/cell
[tb_dev] Currently allocated     1.27E+00 Mbytes, locked:    0 /   6
[tb_pin] Currently allocated     0.00E+00 Mbytes, locked:    0 /   0

     iteration # 75     ecut=    90.00 Ry     beta= 0.40
     Davidson diagonalization with overlap

---- Real-time Memory Report at c_bands before calling an iterative solver
          2595 MiB given to the printing process from OS
          1693 MiB allocation reported by mallinfo(arena+hblkhd)
         42971 MiB available memory on the node where the printing process lives
     GPU memory used/free/total (MiB): 1838 / 14442 / 16280
------------------
     ethr =  7.22E-08,  avg # of iterations =  1.2

     total cpu time spent up to now is      589.6 secs

     total energy              =    -903.44289156 Ry
     estimated scf accuracy    <       0.00016939 Ry

     total magnetization       =     4.64 Bohr mag/cell
     absolute magnetization    =     5.14 Bohr mag/cell
[tb_dev] Currently allocated     1.27E+00 Mbytes, locked:    0 /   6
[tb_pin] Currently allocated     0.00E+00 Mbytes, locked:    0 /   0

     iteration # 76     ecut=    90.00 Ry     beta= 0.40
     Davidson diagonalization with overlap

---- Real-time Memory Report at c_bands before calling an iterative solver
          2600 MiB given to the printing process from OS
          1699 MiB allocation reported by mallinfo(arena+hblkhd)
         42966 MiB available memory on the node where the printing process lives
     GPU memory used/free/total (MiB): 1838 / 14442 / 16280
------------------
     ethr =  7.22E-08,  avg # of iterations =  3.1

     total cpu time spent up to now is      595.0 secs

     total energy              =    -903.44292711 Ry
     estimated scf accuracy    <       0.00017283 Ry

     total magnetization       =     4.59 Bohr mag/cell
     absolute magnetization    =     5.10 Bohr mag/cell
[tb_dev] Currently allocated     1.27E+00 Mbytes, locked:    0 /   6
[tb_pin] Currently allocated     0.00E+00 Mbytes, locked:    0 /   0

     iteration # 77     ecut=    90.00 Ry     beta= 0.40
     Davidson diagonalization with overlap

---- Real-time Memory Report at c_bands before calling an iterative solver
          2606 MiB given to the printing process from OS
          1705 MiB allocation reported by mallinfo(arena+hblkhd)
         42956 MiB available memory on the node where the printing process lives
     GPU memory used/free/total (MiB): 1838 / 14442 / 16280
------------------
     ethr =  7.22E-08,  avg # of iterations =  3.3

     total cpu time spent up to now is      600.6 secs

     total energy              =    -903.44066038 Ry
     estimated scf accuracy    <       0.00019649 Ry

     total magnetization       =     4.55 Bohr mag/cell
     absolute magnetization    =     5.06 Bohr mag/cell
[tb_dev] Currently allocated     1.27E+00 Mbytes, locked:    0 /   6
[tb_pin] Currently allocated     0.00E+00 Mbytes, locked:    0 /   0

     iteration # 78     ecut=    90.00 Ry     beta= 0.40
     Davidson diagonalization with overlap

---- Real-time Memory Report at c_bands before calling an iterative solver
          2612 MiB given to the printing process from OS
          1711 MiB allocation reported by mallinfo(arena+hblkhd)
         42950 MiB available memory on the node where the printing process lives
     GPU memory used/free/total (MiB): 1838 / 14442 / 16280
------------------
     ethr =  7.22E-08,  avg # of iterations =  8.7

     total cpu time spent up to now is      611.0 secs

     total energy              =    -903.44063403 Ry
     estimated scf accuracy    <       0.00096132 Ry

     total magnetization       =     4.03 Bohr mag/cell
     absolute magnetization    =     4.51 Bohr mag/cell
[tb_dev] Currently allocated     1.27E+00 Mbytes, locked:    0 /   6
[tb_pin] Currently allocated     0.00E+00 Mbytes, locked:    0 /   0

     iteration # 79     ecut=    90.00 Ry     beta= 0.40
     Davidson diagonalization with overlap

---- Real-time Memory Report at c_bands before calling an iterative solver
          2619 MiB given to the printing process from OS
          1717 MiB allocation reported by mallinfo(arena+hblkhd)
         42944 MiB available memory on the node where the printing process lives
     GPU memory used/free/total (MiB): 1838 / 14442 / 16280
------------------
     ethr =  7.22E-08,  avg # of iterations =  8.6

     total cpu time spent up to now is      620.9 secs

     total energy              =    -903.44230052 Ry
     estimated scf accuracy    <       0.00021555 Ry

     total magnetization       =     4.49 Bohr mag/cell
     absolute magnetization    =     4.99 Bohr mag/cell
[tb_dev] Currently allocated     1.27E+00 Mbytes, locked:    0 /   6
[tb_pin] Currently allocated     0.00E+00 Mbytes, locked:    0 /   0

     iteration # 80     ecut=    90.00 Ry     beta= 0.40
     Davidson diagonalization with overlap

---- Real-time Memory Report at c_bands before calling an iterative solver
          2627 MiB given to the printing process from OS
          1722 MiB allocation reported by mallinfo(arena+hblkhd)
         42937 MiB available memory on the node where the printing process lives
     GPU memory used/free/total (MiB): 1838 / 14442 / 16280
------------------
     ethr =  7.22E-08,  avg # of iterations =  6.9

     total cpu time spent up to now is      629.6 secs

     total energy              =    -903.44227791 Ry
     estimated scf accuracy    <       0.00011552 Ry

     total magnetization       =     4.72 Bohr mag/cell
     absolute magnetization    =     5.23 Bohr mag/cell

     End of self-consistent calculation

     convergence NOT achieved after  80 iterations: stopping

     Writing config to output data dir ./out/aiida.save/
 
     init_run     :     31.26s CPU      7.12s WALL (       1 calls)
     electrons    :   1573.56s CPU    621.38s WALL (       1 calls)

     Called by init_run:
     wfcinit      :      2.26s CPU      3.25s WALL (       1 calls)
                                        3.25s GPU  (       1 calls)
     wfcinit:atom :      0.05s CPU      0.06s WALL (     168 calls)
                                        0.06s GPU  (     168 calls)
     wfcinit:wfcr :      1.37s CPU      2.00s WALL (     168 calls)
                                        2.00s GPU  (     168 calls)
     potinit      :     15.67s CPU      1.46s WALL (       1 calls)
     hinit0       :      7.76s CPU      1.58s WALL (       1 calls)

     Called by electrons:
     c_bands      :    516.29s CPU    475.44s WALL (      80 calls)
     sum_band     :     47.59s CPU     54.02s WALL (      80 calls)
     v_of_rho     :     34.66s CPU      3.12s WALL (      81 calls)
     v_h          :      5.08s CPU      0.45s WALL (      81 calls)
     v_xc         :     29.57s CPU      2.67s WALL (      81 calls)
     newd         :     63.62s CPU      6.17s WALL (      81 calls)
                                        6.17s GPU  (      81 calls)
     PAW_pot      :    889.33s CPU     80.55s WALL (      81 calls)
     mix_rho      :     23.72s CPU      2.40s WALL (      80 calls)

     Called by c_bands:
     init_us_2    :     26.44s CPU     27.48s WALL (   27048 calls)
     init_us_2:gp :     25.96s CPU     27.04s WALL (   27048 calls)
     cegterg      :    467.88s CPU    436.90s WALL (   13440 calls)

     Called by sum_band:
     sum_band:wei :      0.44s CPU      0.45s WALL (      80 calls)
                                        0.44s GPU  (      80 calls)
     sum_band:loo :     37.70s CPU     43.85s WALL (      80 calls)
                                       43.84s GPU  (      80 calls)
     sum_band:buf :      8.22s CPU      9.49s WALL (   13440 calls)
                                        9.40s GPU  (   13440 calls)
     sum_band:ini :     11.25s CPU     13.65s WALL (   13440 calls)
                                       13.58s GPU  (   13440 calls)
     sum_band:cal :      0.42s CPU      1.29s WALL (   13440 calls)
                                        0.91s GPU  (   13440 calls)
     sum_band:bec :      2.12s CPU      2.58s WALL (   13440 calls)
                                        2.49s GPU  (   13440 calls)
     addusdens    :      7.22s CPU      7.46s WALL (      80 calls)
                                        7.46s GPU  (      80 calls)
     addusd:skk   :      0.01s CPU      0.02s WALL (     240 calls)
                                        0.02s GPU  (     240 calls)

     Called by *egterg:
     cdiaghg      :    214.67s CPU    209.81s WALL (   90312 calls)
                                      209.21s GPU  (   90312 calls)
     cegterg:over :     11.99s CPU     11.23s WALL (   76872 calls)
     cegterg:upda :     22.59s CPU     21.16s WALL (   76872 calls)
     cegterg:last :      5.79s CPU      5.60s WALL (   42324 calls)
     h_psi        :    172.93s CPU    155.03s WALL (   90480 calls)
                                      154.51s GPU  (   90480 calls)
     s_psi        :      8.23s CPU     11.95s WALL (   90480 calls)
                                       11.04s GPU  (   90480 calls)
     g_psi        :      0.57s CPU      1.80s WALL (   76872 calls)
                                        1.31s GPU  (   76872 calls)

     Called by h_psi:
     h_psi:calbec :      3.44s CPU      8.93s WALL (   90480 calls)
                                        8.39s GPU  (   90480 calls)
     vloc_psi     :    141.77s CPU    127.52s WALL (   90480 calls)
                                      126.95s GPU  (   90480 calls)
     add_vuspsi   :     10.69s CPU     12.88s WALL (   90480 calls)
                                       12.35s GPU  (   90480 calls)

     General routines
     calbec       :      2.87s CPU      2.69s WALL (  103920 calls)
     fft          :      2.44s CPU      0.52s WALL (    2023 calls)
                                        0.41s GPU  (    1861 calls)
     ffts         :      0.04s CPU      0.03s WALL (     322 calls)
                                        0.01s GPU  (     160 calls)
     fftw         :      5.93s CPU     84.31s WALL (  283222 calls)
                                       82.72s GPU  (  283222 calls)
     interpolate  :      3.60s CPU      0.32s WALL (     162 calls)
     davcio       :      0.18s CPU      0.25s WALL (     186 calls)
 
     Parallel routines

     PAW routines
     PAW_pot      :    889.33s CPU     80.55s WALL (      81 calls)
     PAW_symme    :      2.23s CPU      0.35s WALL (     161 calls)
 
     PWSCF        :  26m48.56s CPU  10m30.12s WALL

 
   This run was terminated on:  21:35:20  23Oct2023            

=------------------------------------------------------------------------------=
   JOB DONE.
=------------------------------------------------------------------------------=
