
     Program PWSCF v.7.2 starts on 23Oct2023 at 21:12: 7 

     This program is part of the open-source Quantum ESPRESSO suite
     for quantum simulation of materials; please cite
         "P. Giannozzi et al., J. Phys.:Condens. Matter 21 395502 (2009);
         "P. Giannozzi et al., J. Phys.:Condens. Matter 29 465901 (2017);
         "P. Giannozzi et al., J. Chem. Phys. 152 154105 (2020);
          URL http://www.quantum-espresso.org", 
     in publications or presentations arising from this work. More details at
     http://www.quantum-espresso.org/quote

     Parallel version (MPI & OpenMP), running on      12 processor cores
     Number of MPI processes:                 1
     Threads/MPI process:                    12

     MPI processes distributed on     1 nodes
     60523 MiB available memory on the printing compute node when the environment starts
 
     Reading input from aiida.in

     Current dimensions of program PWSCF are:
     Max number of different atomic species (ntypx) = 10
     Max number of k-points (npk) =  40000
     Max angular momentum in pseudopotentials (lmaxx) =  4
     file Ba.pbesol-spn-kjpaw_psl.1.0.0.UPF: wavefunction(s)  5S 6S renormalized
     file Cd.pbesol-dn-rrkjus_psl.0.3.1.UPF: wavefunction(s)  4D renormalized
     Message from routine setup:
     using ibrav=0 with symmetry is DISCOURAGED, use correct ibrav instead
 
     Subspace diagonalization in iterative solution of the eigenvalue problem:
     a serial algorithm will be used

 
     G-vector sticks info
     --------------------
     sticks:   dense  smooth     PW     G-vecs:    dense   smooth      PW
     Sum        5457    2725    819               385727   136307   22463
 
     Using Slab Decomposition
 


     bravais-lattice index     =            0
     lattice parameter (alat)  =      17.0078  a.u.
     unit-cell volume          =    2171.6512 (a.u.)^3
     number of atoms/cell      =           10
     number of atomic types    =            3
     number of electrons       =        84.00
     number of Kohn-Sham states=           50
     kinetic-energy cutoff     =      60.0000  Ry
     charge density cutoff     =     480.0000  Ry
     scf convergence threshold =      2.0E-09
     mixing beta               =       0.2000
     number of iterations used =            8  plain     mixing
     Exchange-correlation= PBESOL
                           (   1   4  10   8   0   0   0)

     GPU acceleration is ACTIVE.


     GPU used by master process:

        Device Number: 0
        Device name: Tesla P100-PCIE-16GB
        Compute capability : 60
        Ratio of single to double precision performance  : 2
        Memory Clock Rate (KHz): 715000
        Memory Bus Width (bits): 4096
        Peak Memory Bandwidth (GB/s): 732.16

     celldm(1)=  17.007847  celldm(2)=   0.000000  celldm(3)=   0.000000
     celldm(4)=   0.000000  celldm(5)=   0.000000  celldm(6)=   0.000000

     crystal axes: (cart. coord. in units of alat)
               a(1) = (   0.255118  -0.966910   0.000000 )  
               a(2) = (   0.255118   0.966910   0.000000 )  
               a(3) = (   0.000000   0.000000   0.894717 )  

     reciprocal axes: (cart. coord. in units 2 pi/alat)
               b(1) = (  1.959881 -0.517111  0.000000 )  
               b(2) = (  1.959881  0.517111 -0.000000 )  
               b(3) = ( -0.000000  0.000000  1.117672 )  


     PseudoPot. # 1 for As read from file:
     ./pseudo/As.pbesol-n-rrkjus_psl.0.2.UPF
     MD5 check sum: 1aa86e6aa4f77befd3aa87cac6788838
     Pseudo is Ultrasoft + core correction, Zval =  5.0
     Generated using "atomic" code by A. Dal Corso  v.6.0 svn rev. 13079
     Using radial grid of 1209 points,  4 beta functions with: 
                l(1) =   0
                l(2) =   0
                l(3) =   1
                l(4) =   1
     Q(r) pseudized with 0 coefficients 


     PseudoPot. # 2 for Ba read from file:
     ./pseudo/Ba.pbesol-spn-kjpaw_psl.1.0.0.UPF
     MD5 check sum: f28c4a63d325c1a0d00fd3a4f19b8d73
     Pseudo is Projector augmented-wave + core cor, Zval = 10.0
     Generated using "atomic" code by A. Dal Corso  v.6.0 svn rev. 13079
     Shape of augmentation charge: PSQ
     Using radial grid of 1251 points,  7 beta functions with: 
                l(1) =   0
                l(2) =   0
                l(3) =   0
                l(4) =   1
                l(5) =   1
                l(6) =   2
                l(7) =   2
     Q(r) pseudized with 0 coefficients 


     PseudoPot. # 3 for Cd read from file:
     ./pseudo/Cd.pbesol-dn-rrkjus_psl.0.3.1.UPF
     MD5 check sum: 1f02951eb1ebb2be2329879281757063
     Pseudo is Ultrasoft + core correction, Zval = 12.0
     Generated using "atomic" code by A. Dal Corso  v.6.0 svn rev. 13079
     Using radial grid of 1239 points,  6 beta functions with: 
                l(1) =   0
                l(2) =   0
                l(3) =   1
                l(4) =   1
                l(5) =   2
                l(6) =   2
     Q(r) pseudized with 0 coefficients 


     atomic species   valence    mass     pseudopotential
        As             5.00    74.92160     As( 1.00)
        Ba            10.00   137.32700     Ba( 1.00)
        Cd            12.00   112.41100     Cd( 1.00)

     Starting magnetic structure 
     atomic species   magnetization
        As           0.100
        Ba           0.100
        Cd           0.100

      4 Sym. Ops. (no inversion) found ( 2 have fractional translation)


                                    s                        frac. trans.

      isym =  1     identity                                     

 cryst.   s( 1) = (     1          0          0      )
                  (     0          1          0      )
                  (     0          0          1      )

 cart.    s( 1) = (  1.0000000 -0.0000000  0.0000000 )
                  (  0.0000000  1.0000000  0.0000000 )
                  (  0.0000000  0.0000000  1.0000000 )


      isym =  2     180 deg rotation - cart. axis [0,0,1]        

 cryst.   s( 2) = (    -1          0          0      )    f =(  0.0000000 )
                  (     0         -1          0      )       ( -0.0000000 )
                  (     0          0          1      )       ( -0.5000000 )

 cart.    s( 2) = ( -1.0000000  0.0000000  0.0000000 )    f =( -0.0000000 )
                  ( -0.0000000 -1.0000000  0.0000000 )       ( -0.0000000 )
                  (  0.0000000  0.0000000  1.0000000 )       ( -0.4473585 )


      isym =  3     inv. 180 deg rotation - cart. axis [0,1,0]   

 cryst.   s( 3) = (     0          1          0      )    f =(  0.0000000 )
                  (     1          0          0      )       ( -0.0000000 )
                  (     0          0          1      )       ( -0.5000000 )

 cart.    s( 3) = (  1.0000000  0.0000000  0.0000000 )    f =(  0.0000000 )
                  (  0.0000000 -1.0000000  0.0000000 )       ( -0.0000000 )
                  (  0.0000000  0.0000000  1.0000000 )       ( -0.4473585 )


      isym =  4     inv. 180 deg rotation - cart. axis [1,0,0]   

 cryst.   s( 4) = (     0         -1          0      )
                  (    -1          0          0      )
                  (     0          0          1      )

 cart.    s( 4) = ( -1.0000000 -0.0000000  0.0000000 )
                  ( -0.0000000  1.0000000  0.0000000 )
                  (  0.0000000  0.0000000  1.0000000 )


   Cartesian axes

     site n.     atom                  positions (alat units)
         1           Ba  tau(   1) = (  -0.0000000   1.3619895   0.8632229  )
         2           Ba  tau(   2) = (   0.2551175   1.5387406   0.4158644  )
         3           Ba  tau(   3) = (   0.0000000   1.0403952   0.2680572  )
         4           Ba  tau(   4) = (   0.2551175   1.8603349   0.7154157  )
         5           Cd  tau(   5) = (   0.0000000   1.7516542   0.1346549  )
         6           Cd  tau(   6) = (   0.2551175   1.1490759   0.5820134  )
         7           As  tau(   7) = (  -0.0000000   1.8174041   0.4473585  )
         8           As  tau(   8) = (   0.2551175   1.0833260   0.0000000  )
         9           As  tau(   9) = (   0.0000000   1.2975933   0.5100781  )
        10           As  tau(  10) = (   0.2551175   1.6031369   0.0627197  )

   Crystallographic axes

     site n.     atom                  positions (cryst. coord.)
         1           Ba  tau(   1) = ( -0.7043000  0.7043000  0.9648000  )
         2           Ba  tau(   2) = ( -0.2957000  1.2957000  0.4648000  )
         3           Ba  tau(   3) = ( -0.5380000  0.5380000  0.2996000  )
         4           Ba  tau(   4) = ( -0.4620000  1.4620000  0.7996000  )
         5           Cd  tau(   5) = ( -0.9058000  0.9058000  0.1505000  )
         6           Cd  tau(   6) = ( -0.0942000  1.0942000  0.6505000  )
         7           As  tau(   7) = ( -0.9398000  0.9398000  0.5000000  )
         8           As  tau(   8) = ( -0.0602000  1.0602000  0.0000000  )
         9           As  tau(   9) = ( -0.6710000  0.6710000  0.5701000  )
        10           As  tau(  10) = ( -0.3290000  1.3290000  0.0701000  )

     number of k points=   124  Marzari-Vanderbilt smearing, width (Ry)=  0.0100
                       cart. coord. in units 2pi/alat
        k(    1) = (   0.0000000   0.0000000   0.0000000), wk =   0.0016667
        k(    2) = (   0.0000000   0.0000000   0.1862787), wk =   0.0033333
        k(    3) = (   0.0000000   0.0000000   0.3725573), wk =   0.0033333
        k(    4) = (   0.0000000   0.0000000  -0.5588360), wk =   0.0016667
        k(    5) = (   0.1959881   0.0517111   0.0000000), wk =   0.0066667
        k(    6) = (   0.1959881   0.0517111   0.1862787), wk =   0.0133333
        k(    7) = (   0.1959881   0.0517111   0.3725573), wk =   0.0133333
        k(    8) = (   0.1959881   0.0517111  -0.5588360), wk =   0.0066667
        k(    9) = (   0.3919762   0.1034222   0.0000000), wk =   0.0066667
        k(   10) = (   0.3919762   0.1034222   0.1862787), wk =   0.0133333
        k(   11) = (   0.3919762   0.1034222   0.3725573), wk =   0.0133333
        k(   12) = (   0.3919762   0.1034222  -0.5588360), wk =   0.0066667
        k(   13) = (   0.5879643   0.1551334   0.0000000), wk =   0.0066667
        k(   14) = (   0.5879643   0.1551334   0.1862787), wk =   0.0133333
        k(   15) = (   0.5879643   0.1551334   0.3725573), wk =   0.0133333
        k(   16) = (   0.5879643   0.1551334  -0.5588360), wk =   0.0066667
        k(   17) = (   0.7839524   0.2068445   0.0000000), wk =   0.0066667
        k(   18) = (   0.7839524   0.2068445   0.1862787), wk =   0.0133333
        k(   19) = (   0.7839524   0.2068445   0.3725573), wk =   0.0133333
        k(   20) = (   0.7839524   0.2068445  -0.5588360), wk =   0.0066667
        k(   21) = (  -0.9799404  -0.2585556   0.0000000), wk =   0.0033333
        k(   22) = (  -0.9799404  -0.2585556   0.1862787), wk =   0.0066667
        k(   23) = (  -0.9799404  -0.2585556   0.3725573), wk =   0.0066667
        k(   24) = (  -0.9799404  -0.2585556  -0.5588360), wk =   0.0033333
        k(   25) = (   0.3919762   0.0000000   0.0000000), wk =   0.0033333
        k(   26) = (   0.3919762   0.0000000   0.1862787), wk =   0.0066667
        k(   27) = (   0.3919762   0.0000000   0.3725573), wk =   0.0066667
        k(   28) = (   0.3919762   0.0000000  -0.5588360), wk =   0.0033333
        k(   29) = (   0.5879643   0.0517111   0.0000000), wk =   0.0066667
        k(   30) = (   0.5879643   0.0517111   0.1862787), wk =   0.0133333
        k(   31) = (   0.5879643   0.0517111   0.3725573), wk =   0.0133333
        k(   32) = (   0.5879643   0.0517111  -0.5588360), wk =   0.0066667
        k(   33) = (   0.7839524   0.1034222   0.0000000), wk =   0.0066667
        k(   34) = (   0.7839524   0.1034222   0.1862787), wk =   0.0133333
        k(   35) = (   0.7839524   0.1034222   0.3725573), wk =   0.0133333
        k(   36) = (   0.7839524   0.1034222  -0.5588360), wk =   0.0066667
        k(   37) = (   0.9799404   0.1551334   0.0000000), wk =   0.0066667
        k(   38) = (   0.9799404   0.1551334   0.1862787), wk =   0.0133333
        k(   39) = (   0.9799404   0.1551334   0.3725573), wk =   0.0133333
        k(   40) = (   0.9799404   0.1551334  -0.5588360), wk =   0.0066667
        k(   41) = (  -0.7839524  -0.3102667   0.0000000), wk =   0.0066667
        k(   42) = (  -0.7839524  -0.3102667   0.1862787), wk =   0.0133333
        k(   43) = (  -0.7839524  -0.3102667   0.3725573), wk =   0.0133333
        k(   44) = (  -0.7839524  -0.3102667  -0.5588360), wk =   0.0066667
        k(   45) = (  -0.5879643  -0.2585556   0.0000000), wk =   0.0066667
        k(   46) = (  -0.5879643  -0.2585556   0.1862787), wk =   0.0133333
        k(   47) = (  -0.5879643  -0.2585556   0.3725573), wk =   0.0133333
        k(   48) = (  -0.5879643  -0.2585556  -0.5588360), wk =   0.0066667
        k(   49) = (  -0.3919762  -0.2068445   0.0000000), wk =   0.0066667
        k(   50) = (  -0.3919762  -0.2068445   0.1862787), wk =   0.0133333
        k(   51) = (  -0.3919762  -0.2068445   0.3725573), wk =   0.0133333
        k(   52) = (  -0.3919762  -0.2068445  -0.5588360), wk =   0.0066667
        k(   53) = (  -0.1959881  -0.1551334   0.0000000), wk =   0.0066667
        k(   54) = (  -0.1959881  -0.1551334   0.1862787), wk =   0.0133333
        k(   55) = (  -0.1959881  -0.1551334   0.3725573), wk =   0.0133333
        k(   56) = (  -0.1959881  -0.1551334  -0.5588360), wk =   0.0066667
        k(   57) = (   0.0000000  -0.1034222   0.0000000), wk =   0.0033333
        k(   58) = (   0.0000000  -0.1034222   0.1862787), wk =   0.0066667
        k(   59) = (   0.0000000  -0.1034222   0.3725573), wk =   0.0066667
        k(   60) = (   0.0000000  -0.1034222  -0.5588360), wk =   0.0033333
        k(   61) = (   0.7839524   0.0000000   0.0000000), wk =   0.0033333
        k(   62) = (   0.7839524   0.0000000   0.1862787), wk =   0.0066667
        k(   63) = (   0.7839524   0.0000000   0.3725573), wk =   0.0066667
        k(   64) = (   0.7839524   0.0000000  -0.5588360), wk =   0.0033333
        k(   65) = (   0.9799404   0.0517111   0.0000000), wk =   0.0066667
        k(   66) = (   0.9799404   0.0517111   0.1862787), wk =   0.0133333
        k(   67) = (   0.9799404   0.0517111   0.3725573), wk =   0.0133333
        k(   68) = (   0.9799404   0.0517111  -0.5588360), wk =   0.0066667
        k(   69) = (   1.1759285   0.1034222   0.0000000), wk =   0.0066667
        k(   70) = (   1.1759285   0.1034222   0.1862787), wk =   0.0133333
        k(   71) = (   1.1759285   0.1034222   0.3725573), wk =   0.0133333
        k(   72) = (   1.1759285   0.1034222  -0.5588360), wk =   0.0066667
        k(   73) = (  -0.5879643  -0.3619778   0.0000000), wk =   0.0066667
        k(   74) = (  -0.5879643  -0.3619778   0.1862787), wk =   0.0133333
        k(   75) = (  -0.5879643  -0.3619778   0.3725573), wk =   0.0133333
        k(   76) = (  -0.5879643  -0.3619778  -0.5588360), wk =   0.0066667
        k(   77) = (  -0.3919762  -0.3102667   0.0000000), wk =   0.0066667
        k(   78) = (  -0.3919762  -0.3102667   0.1862787), wk =   0.0133333
        k(   79) = (  -0.3919762  -0.3102667   0.3725573), wk =   0.0133333
        k(   80) = (  -0.3919762  -0.3102667  -0.5588360), wk =   0.0066667
        k(   81) = (  -0.1959881  -0.2585556   0.0000000), wk =   0.0066667
        k(   82) = (  -0.1959881  -0.2585556   0.1862787), wk =   0.0133333
        k(   83) = (  -0.1959881  -0.2585556   0.3725573), wk =   0.0133333
        k(   84) = (  -0.1959881  -0.2585556  -0.5588360), wk =   0.0066667
        k(   85) = (   0.0000000  -0.2068445   0.0000000), wk =   0.0033333
        k(   86) = (   0.0000000  -0.2068445   0.1862787), wk =   0.0066667
        k(   87) = (   0.0000000  -0.2068445   0.3725573), wk =   0.0066667
        k(   88) = (   0.0000000  -0.2068445  -0.5588360), wk =   0.0033333
        k(   89) = (   1.1759285   0.0000000   0.0000000), wk =   0.0033333
        k(   90) = (   1.1759285   0.0000000   0.1862787), wk =   0.0066667
        k(   91) = (   1.1759285   0.0000000   0.3725573), wk =   0.0066667
        k(   92) = (   1.1759285   0.0000000  -0.5588360), wk =   0.0033333
        k(   93) = (   1.3719166   0.0517111   0.0000000), wk =   0.0066667
        k(   94) = (   1.3719166   0.0517111   0.1862787), wk =   0.0133333
        k(   95) = (   1.3719166   0.0517111   0.3725573), wk =   0.0133333
        k(   96) = (   1.3719166   0.0517111  -0.5588360), wk =   0.0066667
        k(   97) = (  -0.3919762  -0.4136889   0.0000000), wk =   0.0066667
        k(   98) = (  -0.3919762  -0.4136889   0.1862787), wk =   0.0133333
        k(   99) = (  -0.3919762  -0.4136889   0.3725573), wk =   0.0133333
        k(  100) = (  -0.3919762  -0.4136889  -0.5588360), wk =   0.0066667
        k(  101) = (  -0.1959881  -0.3619778   0.0000000), wk =   0.0066667
        k(  102) = (  -0.1959881  -0.3619778   0.1862787), wk =   0.0133333
        k(  103) = (  -0.1959881  -0.3619778   0.3725573), wk =   0.0133333
        k(  104) = (  -0.1959881  -0.3619778  -0.5588360), wk =   0.0066667
        k(  105) = (  -0.0000000  -0.3102667   0.0000000), wk =   0.0033333
        k(  106) = (  -0.0000000  -0.3102667   0.1862787), wk =   0.0066667
        k(  107) = (  -0.0000000  -0.3102667   0.3725573), wk =   0.0066667
        k(  108) = (  -0.0000000  -0.3102667  -0.5588360), wk =   0.0033333
        k(  109) = (   1.5679047   0.0000000   0.0000000), wk =   0.0033333
        k(  110) = (   1.5679047   0.0000000   0.1862787), wk =   0.0066667
        k(  111) = (   1.5679047   0.0000000   0.3725573), wk =   0.0066667
        k(  112) = (   1.5679047   0.0000000  -0.5588360), wk =   0.0033333
        k(  113) = (  -0.1959881  -0.4654001   0.0000000), wk =   0.0066667
        k(  114) = (  -0.1959881  -0.4654001   0.1862787), wk =   0.0133333
        k(  115) = (  -0.1959881  -0.4654001   0.3725573), wk =   0.0133333
        k(  116) = (  -0.1959881  -0.4654001  -0.5588360), wk =   0.0066667
        k(  117) = (  -0.0000000  -0.4136889   0.0000000), wk =   0.0033333
        k(  118) = (  -0.0000000  -0.4136889   0.1862787), wk =   0.0066667
        k(  119) = (  -0.0000000  -0.4136889   0.3725573), wk =   0.0066667
        k(  120) = (  -0.0000000  -0.4136889  -0.5588360), wk =   0.0033333
        k(  121) = (  -1.9598809   0.0000000   0.0000000), wk =   0.0016667
        k(  122) = (  -1.9598809   0.0000000   0.1862787), wk =   0.0033333
        k(  123) = (  -1.9598809   0.0000000   0.3725573), wk =   0.0033333
        k(  124) = (  -1.9598809   0.0000000  -0.5588360), wk =   0.0016667

                       cryst. coord.
        k(    1) = (   0.0000000   0.0000000   0.0000000), wk =   0.0016667
        k(    2) = (   0.0000000   0.0000000   0.1666667), wk =   0.0033333
        k(    3) = (   0.0000000   0.0000000   0.3333333), wk =   0.0033333
        k(    4) = (   0.0000000   0.0000000  -0.5000000), wk =   0.0016667
        k(    5) = (  -0.0000000   0.1000000   0.0000000), wk =   0.0066667
        k(    6) = (  -0.0000000   0.1000000   0.1666667), wk =   0.0133333
        k(    7) = (  -0.0000000   0.1000000   0.3333333), wk =   0.0133333
        k(    8) = (  -0.0000000   0.1000000  -0.5000000), wk =   0.0066667
        k(    9) = (  -0.0000000   0.2000000   0.0000000), wk =   0.0066667
        k(   10) = (  -0.0000000   0.2000000   0.1666667), wk =   0.0133333
        k(   11) = (  -0.0000000   0.2000000   0.3333333), wk =   0.0133333
        k(   12) = (  -0.0000000   0.2000000  -0.5000000), wk =   0.0066667
        k(   13) = (  -0.0000000   0.3000000   0.0000000), wk =   0.0066667
        k(   14) = (  -0.0000000   0.3000000   0.1666667), wk =   0.0133333
        k(   15) = (  -0.0000000   0.3000000   0.3333333), wk =   0.0133333
        k(   16) = (  -0.0000000   0.3000000  -0.5000000), wk =   0.0066667
        k(   17) = (  -0.0000000   0.4000000   0.0000000), wk =   0.0066667
        k(   18) = (  -0.0000000   0.4000000   0.1666667), wk =   0.0133333
        k(   19) = (  -0.0000000   0.4000000   0.3333333), wk =   0.0133333
        k(   20) = (  -0.0000000   0.4000000  -0.5000000), wk =   0.0066667
        k(   21) = (   0.0000000  -0.5000000   0.0000000), wk =   0.0033333
        k(   22) = (   0.0000000  -0.5000000   0.1666667), wk =   0.0066667
        k(   23) = (   0.0000000  -0.5000000   0.3333333), wk =   0.0066667
        k(   24) = (   0.0000000  -0.5000000  -0.5000000), wk =   0.0033333
        k(   25) = (   0.1000000   0.1000000   0.0000000), wk =   0.0033333
        k(   26) = (   0.1000000   0.1000000   0.1666667), wk =   0.0066667
        k(   27) = (   0.1000000   0.1000000   0.3333333), wk =   0.0066667
        k(   28) = (   0.1000000   0.1000000  -0.5000000), wk =   0.0033333
        k(   29) = (   0.1000000   0.2000000   0.0000000), wk =   0.0066667
        k(   30) = (   0.1000000   0.2000000   0.1666667), wk =   0.0133333
        k(   31) = (   0.1000000   0.2000000   0.3333333), wk =   0.0133333
        k(   32) = (   0.1000000   0.2000000  -0.5000000), wk =   0.0066667
        k(   33) = (   0.1000000   0.3000000   0.0000000), wk =   0.0066667
        k(   34) = (   0.1000000   0.3000000   0.1666667), wk =   0.0133333
        k(   35) = (   0.1000000   0.3000000   0.3333333), wk =   0.0133333
        k(   36) = (   0.1000000   0.3000000  -0.5000000), wk =   0.0066667
        k(   37) = (   0.1000000   0.4000000   0.0000000), wk =   0.0066667
        k(   38) = (   0.1000000   0.4000000   0.1666667), wk =   0.0133333
        k(   39) = (   0.1000000   0.4000000   0.3333333), wk =   0.0133333
        k(   40) = (   0.1000000   0.4000000  -0.5000000), wk =   0.0066667
        k(   41) = (   0.1000000  -0.5000000   0.0000000), wk =   0.0066667
        k(   42) = (   0.1000000  -0.5000000   0.1666667), wk =   0.0133333
        k(   43) = (   0.1000000  -0.5000000   0.3333333), wk =   0.0133333
        k(   44) = (   0.1000000  -0.5000000  -0.5000000), wk =   0.0066667
        k(   45) = (   0.1000000  -0.4000000   0.0000000), wk =   0.0066667
        k(   46) = (   0.1000000  -0.4000000   0.1666667), wk =   0.0133333
        k(   47) = (   0.1000000  -0.4000000   0.3333333), wk =   0.0133333
        k(   48) = (   0.1000000  -0.4000000  -0.5000000), wk =   0.0066667
        k(   49) = (   0.1000000  -0.3000000   0.0000000), wk =   0.0066667
        k(   50) = (   0.1000000  -0.3000000   0.1666667), wk =   0.0133333
        k(   51) = (   0.1000000  -0.3000000   0.3333333), wk =   0.0133333
        k(   52) = (   0.1000000  -0.3000000  -0.5000000), wk =   0.0066667
        k(   53) = (   0.1000000  -0.2000000   0.0000000), wk =   0.0066667
        k(   54) = (   0.1000000  -0.2000000   0.1666667), wk =   0.0133333
        k(   55) = (   0.1000000  -0.2000000   0.3333333), wk =   0.0133333
        k(   56) = (   0.1000000  -0.2000000  -0.5000000), wk =   0.0066667
        k(   57) = (   0.1000000  -0.1000000   0.0000000), wk =   0.0033333
        k(   58) = (   0.1000000  -0.1000000   0.1666667), wk =   0.0066667
        k(   59) = (   0.1000000  -0.1000000   0.3333333), wk =   0.0066667
        k(   60) = (   0.1000000  -0.1000000  -0.5000000), wk =   0.0033333
        k(   61) = (   0.2000000   0.2000000   0.0000000), wk =   0.0033333
        k(   62) = (   0.2000000   0.2000000   0.1666667), wk =   0.0066667
        k(   63) = (   0.2000000   0.2000000   0.3333333), wk =   0.0066667
        k(   64) = (   0.2000000   0.2000000  -0.5000000), wk =   0.0033333
        k(   65) = (   0.2000000   0.3000000   0.0000000), wk =   0.0066667
        k(   66) = (   0.2000000   0.3000000   0.1666667), wk =   0.0133333
        k(   67) = (   0.2000000   0.3000000   0.3333333), wk =   0.0133333
        k(   68) = (   0.2000000   0.3000000  -0.5000000), wk =   0.0066667
        k(   69) = (   0.2000000   0.4000000   0.0000000), wk =   0.0066667
        k(   70) = (   0.2000000   0.4000000   0.1666667), wk =   0.0133333
        k(   71) = (   0.2000000   0.4000000   0.3333333), wk =   0.0133333
        k(   72) = (   0.2000000   0.4000000  -0.5000000), wk =   0.0066667
        k(   73) = (   0.2000000  -0.5000000   0.0000000), wk =   0.0066667
        k(   74) = (   0.2000000  -0.5000000   0.1666667), wk =   0.0133333
        k(   75) = (   0.2000000  -0.5000000   0.3333333), wk =   0.0133333
        k(   76) = (   0.2000000  -0.5000000  -0.5000000), wk =   0.0066667
        k(   77) = (   0.2000000  -0.4000000   0.0000000), wk =   0.0066667
        k(   78) = (   0.2000000  -0.4000000   0.1666667), wk =   0.0133333
        k(   79) = (   0.2000000  -0.4000000   0.3333333), wk =   0.0133333
        k(   80) = (   0.2000000  -0.4000000  -0.5000000), wk =   0.0066667
        k(   81) = (   0.2000000  -0.3000000   0.0000000), wk =   0.0066667
        k(   82) = (   0.2000000  -0.3000000   0.1666667), wk =   0.0133333
        k(   83) = (   0.2000000  -0.3000000   0.3333333), wk =   0.0133333
        k(   84) = (   0.2000000  -0.3000000  -0.5000000), wk =   0.0066667
        k(   85) = (   0.2000000  -0.2000000   0.0000000), wk =   0.0033333
        k(   86) = (   0.2000000  -0.2000000   0.1666667), wk =   0.0066667
        k(   87) = (   0.2000000  -0.2000000   0.3333333), wk =   0.0066667
        k(   88) = (   0.2000000  -0.2000000  -0.5000000), wk =   0.0033333
        k(   89) = (   0.3000000   0.3000000   0.0000000), wk =   0.0033333
        k(   90) = (   0.3000000   0.3000000   0.1666667), wk =   0.0066667
        k(   91) = (   0.3000000   0.3000000   0.3333333), wk =   0.0066667
        k(   92) = (   0.3000000   0.3000000  -0.5000000), wk =   0.0033333
        k(   93) = (   0.3000000   0.4000000   0.0000000), wk =   0.0066667
        k(   94) = (   0.3000000   0.4000000   0.1666667), wk =   0.0133333
        k(   95) = (   0.3000000   0.4000000   0.3333333), wk =   0.0133333
        k(   96) = (   0.3000000   0.4000000  -0.5000000), wk =   0.0066667
        k(   97) = (   0.3000000  -0.5000000   0.0000000), wk =   0.0066667
        k(   98) = (   0.3000000  -0.5000000   0.1666667), wk =   0.0133333
        k(   99) = (   0.3000000  -0.5000000   0.3333333), wk =   0.0133333
        k(  100) = (   0.3000000  -0.5000000  -0.5000000), wk =   0.0066667
        k(  101) = (   0.3000000  -0.4000000   0.0000000), wk =   0.0066667
        k(  102) = (   0.3000000  -0.4000000   0.1666667), wk =   0.0133333
        k(  103) = (   0.3000000  -0.4000000   0.3333333), wk =   0.0133333
        k(  104) = (   0.3000000  -0.4000000  -0.5000000), wk =   0.0066667
        k(  105) = (   0.3000000  -0.3000000   0.0000000), wk =   0.0033333
        k(  106) = (   0.3000000  -0.3000000   0.1666667), wk =   0.0066667
        k(  107) = (   0.3000000  -0.3000000   0.3333333), wk =   0.0066667
        k(  108) = (   0.3000000  -0.3000000  -0.5000000), wk =   0.0033333
        k(  109) = (   0.4000000   0.4000000   0.0000000), wk =   0.0033333
        k(  110) = (   0.4000000   0.4000000   0.1666667), wk =   0.0066667
        k(  111) = (   0.4000000   0.4000000   0.3333333), wk =   0.0066667
        k(  112) = (   0.4000000   0.4000000  -0.5000000), wk =   0.0033333
        k(  113) = (   0.4000000  -0.5000000   0.0000000), wk =   0.0066667
        k(  114) = (   0.4000000  -0.5000000   0.1666667), wk =   0.0133333
        k(  115) = (   0.4000000  -0.5000000   0.3333333), wk =   0.0133333
        k(  116) = (   0.4000000  -0.5000000  -0.5000000), wk =   0.0066667
        k(  117) = (   0.4000000  -0.4000000   0.0000000), wk =   0.0033333
        k(  118) = (   0.4000000  -0.4000000   0.1666667), wk =   0.0066667
        k(  119) = (   0.4000000  -0.4000000   0.3333333), wk =   0.0066667
        k(  120) = (   0.4000000  -0.4000000  -0.5000000), wk =   0.0033333
        k(  121) = (  -0.5000000  -0.5000000   0.0000000), wk =   0.0016667
        k(  122) = (  -0.5000000  -0.5000000   0.1666667), wk =   0.0033333
        k(  123) = (  -0.5000000  -0.5000000   0.3333333), wk =   0.0033333
        k(  124) = (  -0.5000000  -0.5000000  -0.5000000), wk =   0.0016667

     Dense  grid:   385727 G-vectors     FFT dimensions: ( 120, 120, 108)

     Smooth grid:   136307 G-vectors     FFT dimensions: (  90,  90,  80)

     Dynamical RAM for                 wfc:      13.00 MB

     Dynamical RAM for     wfc (w. buffer):    3237.88 MB

     Dynamical RAM for           str. fact:      17.66 MB

     Dynamical RAM for           local pot:       0.00 MB

     Dynamical RAM for          nlocal pot:      37.45 MB

     Dynamical RAM for                qrad:       7.03 MB

     Dynamical RAM for          rho,v,vnew:     106.51 MB

     Dynamical RAM for               rhoin:      35.50 MB

     Dynamical RAM for            rho*nmix:     188.34 MB

     Dynamical RAM for           G-vectors:      23.11 MB

     Dynamical RAM for          h,s,v(r/c):       0.46 MB

     Dynamical RAM for          <psi|beta>:       0.11 MB

     Dynamical RAM for                 psi:      26.01 MB

     Dynamical RAM for                hpsi:      26.01 MB

     Dynamical RAM for                spsi:      26.01 MB

     Dynamical RAM for      wfcinit/wfcrot:      26.06 MB

     Dynamical RAM for           addusdens:    1236.00 MB

     Dynamical RAM for          addusforce:    1271.35 MB

     Dynamical RAM for         addusstress:    1303.69 MB

     Estimated static dynamical RAM per process >       3.48 GB

     Estimated max dynamical RAM per process >       4.93 GB

     Atomic positions and unit cell read from directory:
     ./out/aiida.save/
 
     Generating pointlists ...
     new r_m :   0.1253 (alat units)  2.1316 (a.u.) for type    1
     new r_m :   0.1457 (alat units)  2.4777 (a.u.) for type    2
     new r_m :   0.1253 (alat units)  2.1316 (a.u.) for type    3

     The initial density is read from file :
     ./out/aiida.save/charge-density


     starting charge      84.0007, renormalised to      84.0000

     negative rho (up, down):  9.082E-01 1.800E+00
     Starting wfcs from file
     Checking if some PAW data can be deallocated... 

     total cpu time spent up to now is        8.9 secs

     per-process dynamical memory:   688.8 Mb

     Self-consistent Calculation
[tb_dev] Currently allocated     7.63E-05 Mbytes, locked:    0 /   2
[tb_pin] Currently allocated     0.00E+00 Mbytes, locked:    0 /   0

     iteration #  1     ecut=    60.00 Ry     beta= 0.20
     Davidson diagonalization with overlap

---- Real-time Memory Report at c_bands before calling an iterative solver
          1102 MiB given to the printing process from OS
           706 MiB allocation reported by mallinfo(arena+hblkhd)
         58813 MiB available memory on the node where the printing process lives
     GPU memory used/free/total (MiB): 2004 / 14276 / 16280
------------------
     ethr =  1.00E-05,  avg # of iterations =  5.9

     negative rho (up, down):  9.104E-01 1.746E+00

     total cpu time spent up to now is       45.5 secs

     WARNING: integrated charge=    84.00014474, expected=    84.00000000

     total energy              =   -2035.47942744 Ry
     estimated scf accuracy    <       0.28211764 Ry

     total magnetization       =    -0.00 Bohr mag/cell
     absolute magnetization    =     2.77 Bohr mag/cell
[tb_dev] Currently allocated     2.97E+01 Mbytes, locked:    0 /  17
[tb_pin] Currently allocated     0.00E+00 Mbytes, locked:    0 /   0

     iteration #  2     ecut=    60.00 Ry     beta= 0.20
     Davidson diagonalization with overlap

---- Real-time Memory Report at c_bands before calling an iterative solver
          5023 MiB given to the printing process from OS
           215 MiB allocation reported by mallinfo(arena+hblkhd)
         51127 MiB available memory on the node where the printing process lives
     GPU memory used/free/total (MiB): 5168 / 11112 / 16280
------------------
     ethr =  3.36E-04,  avg # of iterations =  3.4

     negative rho (up, down):  9.282E-01 1.718E+00

     total cpu time spent up to now is       72.0 secs

     WARNING: integrated charge=    84.00017129, expected=    84.00000000

     total energy              =   -2035.48186030 Ry
     estimated scf accuracy    <       1.39661102 Ry

     total magnetization       =    -0.00 Bohr mag/cell
     absolute magnetization    =     0.94 Bohr mag/cell
[tb_dev] Currently allocated     2.97E+01 Mbytes, locked:    0 /  17
[tb_pin] Currently allocated     0.00E+00 Mbytes, locked:    0 /   0

     iteration #  3     ecut=    60.00 Ry     beta= 0.20
     Davidson diagonalization with overlap

---- Real-time Memory Report at c_bands before calling an iterative solver
          5127 MiB given to the printing process from OS
           235 MiB allocation reported by mallinfo(arena+hblkhd)
         51096 MiB available memory on the node where the printing process lives
     GPU memory used/free/total (MiB): 5168 / 11112 / 16280
------------------
     ethr =  3.36E-04,  avg # of iterations =  2.3

     negative rho (up, down):  9.331E-01 1.704E+00

     total cpu time spent up to now is       96.2 secs

     WARNING: integrated charge=    84.00018608, expected=    84.00000000

     total energy              =   -2035.49270000 Ry
     estimated scf accuracy    <       0.40611069 Ry

     total magnetization       =    -0.00 Bohr mag/cell
     absolute magnetization    =     2.11 Bohr mag/cell
[tb_dev] Currently allocated     2.97E+01 Mbytes, locked:    0 /  17
[tb_pin] Currently allocated     0.00E+00 Mbytes, locked:    0 /   0

     iteration #  4     ecut=    60.00 Ry     beta= 0.20
     Davidson diagonalization with overlap

---- Real-time Memory Report at c_bands before calling an iterative solver
          5231 MiB given to the printing process from OS
           255 MiB allocation reported by mallinfo(arena+hblkhd)
         51077 MiB available memory on the node where the printing process lives
     GPU memory used/free/total (MiB): 5168 / 11112 / 16280
------------------
     ethr =  3.36E-04,  avg # of iterations =  1.0

     negative rho (up, down):  9.045E-01 1.674E+00

     total cpu time spent up to now is      118.4 secs

     WARNING: integrated charge=    84.00024563, expected=    84.00000000

     total energy              =   -2035.48946649 Ry
     estimated scf accuracy    <       0.29653889 Ry

     total magnetization       =    -0.00 Bohr mag/cell
     absolute magnetization    =     2.33 Bohr mag/cell
[tb_dev] Currently allocated     2.97E+01 Mbytes, locked:    0 /  17
[tb_pin] Currently allocated     0.00E+00 Mbytes, locked:    0 /   0

     iteration #  5     ecut=    60.00 Ry     beta= 0.20
     Davidson diagonalization with overlap

---- Real-time Memory Report at c_bands before calling an iterative solver
          5303 MiB given to the printing process from OS
           276 MiB allocation reported by mallinfo(arena+hblkhd)
         51061 MiB available memory on the node where the printing process lives
     GPU memory used/free/total (MiB): 5168 / 11112 / 16280
------------------
     ethr =  3.36E-04,  avg # of iterations =  1.3

     negative rho (up, down):  8.973E-01 1.653E+00

     total cpu time spent up to now is      140.9 secs

     WARNING: integrated charge=    84.00036338, expected=    84.00000000

     total energy              =   -2035.49011057 Ry
     estimated scf accuracy    <       0.14582096 Ry

     total magnetization       =    -0.00 Bohr mag/cell
     absolute magnetization    =     2.29 Bohr mag/cell
[tb_dev] Currently allocated     2.97E+01 Mbytes, locked:    0 /  17
[tb_pin] Currently allocated     0.00E+00 Mbytes, locked:    0 /   0

     iteration #  6     ecut=    60.00 Ry     beta= 0.20
     Davidson diagonalization with overlap

---- Real-time Memory Report at c_bands before calling an iterative solver
          5340 MiB given to the printing process from OS
           296 MiB allocation reported by mallinfo(arena+hblkhd)
         51042 MiB available memory on the node where the printing process lives
     GPU memory used/free/total (MiB): 5168 / 11112 / 16280
------------------
     ethr =  1.74E-04,  avg # of iterations =  1.9

     negative rho (up, down):  9.064E-01 1.628E+00

     total cpu time spent up to now is      164.3 secs

     WARNING: integrated charge=    84.00046167, expected=    84.00000000

     total energy              =   -2035.49293348 Ry
     estimated scf accuracy    <       0.05574351 Ry

     total magnetization       =    -0.00 Bohr mag/cell
     absolute magnetization    =     2.43 Bohr mag/cell
[tb_dev] Currently allocated     2.97E+01 Mbytes, locked:    0 /  17
[tb_pin] Currently allocated     0.00E+00 Mbytes, locked:    0 /   0

     iteration #  7     ecut=    60.00 Ry     beta= 0.20
     Davidson diagonalization with overlap

---- Real-time Memory Report at c_bands before calling an iterative solver
          5360 MiB given to the printing process from OS
           316 MiB allocation reported by mallinfo(arena+hblkhd)
         51026 MiB available memory on the node where the printing process lives
     GPU memory used/free/total (MiB): 5168 / 11112 / 16280
------------------
     ethr =  6.64E-05,  avg # of iterations =  2.9

     negative rho (up, down):  9.229E-01 1.626E+00

     total cpu time spent up to now is      189.4 secs

     WARNING: integrated charge=    84.00049863, expected=    84.00000000

     total energy              =   -2035.49337796 Ry
     estimated scf accuracy    <       0.07653306 Ry

     total magnetization       =    -0.00 Bohr mag/cell
     absolute magnetization    =     2.87 Bohr mag/cell
[tb_dev] Currently allocated     2.97E+01 Mbytes, locked:    0 /  17
[tb_pin] Currently allocated     0.00E+00 Mbytes, locked:    0 /   0

     iteration #  8     ecut=    60.00 Ry     beta= 0.20
     Davidson diagonalization with overlap

---- Real-time Memory Report at c_bands before calling an iterative solver
          5376 MiB given to the printing process from OS
           332 MiB allocation reported by mallinfo(arena+hblkhd)
         51009 MiB available memory on the node where the printing process lives
     GPU memory used/free/total (MiB): 5168 / 11112 / 16280
------------------
     ethr =  6.64E-05,  avg # of iterations =  1.9

     negative rho (up, down):  9.248E-01 1.629E+00

     total cpu time spent up to now is      213.0 secs

     WARNING: integrated charge=    84.00052483, expected=    84.00000000

     total energy              =   -2035.49362968 Ry
     estimated scf accuracy    <       0.03452595 Ry

     total magnetization       =    -0.00 Bohr mag/cell
     absolute magnetization    =     2.90 Bohr mag/cell
[tb_dev] Currently allocated     2.97E+01 Mbytes, locked:    0 /  17
[tb_pin] Currently allocated     0.00E+00 Mbytes, locked:    0 /   0

     iteration #  9     ecut=    60.00 Ry     beta= 0.20
     Davidson diagonalization with overlap

---- Real-time Memory Report at c_bands before calling an iterative solver
          5396 MiB given to the printing process from OS
           352 MiB allocation reported by mallinfo(arena+hblkhd)
         50991 MiB available memory on the node where the printing process lives
     GPU memory used/free/total (MiB): 5168 / 11112 / 16280
------------------
     ethr =  4.11E-05,  avg # of iterations =  1.9

     negative rho (up, down):  9.103E-01 1.643E+00

     total cpu time spent up to now is      236.6 secs

     WARNING: integrated charge=    84.00052628, expected=    84.00000000

     total energy              =   -2035.49273629 Ry
     estimated scf accuracy    <       0.02424384 Ry

     total magnetization       =    -0.00 Bohr mag/cell
     absolute magnetization    =     3.03 Bohr mag/cell
[tb_dev] Currently allocated     2.97E+01 Mbytes, locked:    0 /  17
[tb_pin] Currently allocated     0.00E+00 Mbytes, locked:    0 /   0

     iteration # 10     ecut=    60.00 Ry     beta= 0.20
     Davidson diagonalization with overlap

---- Real-time Memory Report at c_bands before calling an iterative solver
          5408 MiB given to the printing process from OS
           364 MiB allocation reported by mallinfo(arena+hblkhd)
         50980 MiB available memory on the node where the printing process lives
     GPU memory used/free/total (MiB): 5168 / 11112 / 16280
------------------
     ethr =  2.89E-05,  avg # of iterations =  1.5

     negative rho (up, down):  8.902E-01 1.659E+00

     total cpu time spent up to now is      259.5 secs

     WARNING: integrated charge=    84.00055332, expected=    84.00000000

     total energy              =   -2035.49082907 Ry
     estimated scf accuracy    <       0.00490933 Ry

     total magnetization       =    -0.00 Bohr mag/cell
     absolute magnetization    =     2.93 Bohr mag/cell
[tb_dev] Currently allocated     2.97E+01 Mbytes, locked:    0 /  17
[tb_pin] Currently allocated     0.00E+00 Mbytes, locked:    0 /   0

     iteration # 11     ecut=    60.00 Ry     beta= 0.20
     Davidson diagonalization with overlap

---- Real-time Memory Report at c_bands before calling an iterative solver
          5424 MiB given to the printing process from OS
           372 MiB allocation reported by mallinfo(arena+hblkhd)
         50972 MiB available memory on the node where the printing process lives
     GPU memory used/free/total (MiB): 5168 / 11112 / 16280
------------------
     ethr =  5.84E-06,  avg # of iterations =  4.4

     negative rho (up, down):  8.944E-01 1.659E+00

     total cpu time spent up to now is      287.9 secs

     WARNING: integrated charge=    84.00052745, expected=    84.00000000

     total energy              =   -2035.49193075 Ry
     estimated scf accuracy    <       0.02554718 Ry

     total magnetization       =    -0.00 Bohr mag/cell
     absolute magnetization    =     2.65 Bohr mag/cell
[tb_dev] Currently allocated     2.97E+01 Mbytes, locked:    0 /  17
[tb_pin] Currently allocated     0.00E+00 Mbytes, locked:    0 /   0

     iteration # 12     ecut=    60.00 Ry     beta= 0.20
     Davidson diagonalization with overlap

---- Real-time Memory Report at c_bands before calling an iterative solver
          5427 MiB given to the printing process from OS
           380 MiB allocation reported by mallinfo(arena+hblkhd)
         50964 MiB available memory on the node where the printing process lives
     GPU memory used/free/total (MiB): 5168 / 11112 / 16280
------------------
     ethr =  5.84E-06,  avg # of iterations =  2.5

     negative rho (up, down):  8.930E-01 1.659E+00

     total cpu time spent up to now is      312.8 secs

     WARNING: integrated charge=    84.00057142, expected=    84.00000000

     total energy              =   -2035.49218835 Ry
     estimated scf accuracy    <       0.00730152 Ry

     total magnetization       =    -0.00 Bohr mag/cell
     absolute magnetization    =     2.83 Bohr mag/cell
[tb_dev] Currently allocated     2.97E+01 Mbytes, locked:    0 /  17
[tb_pin] Currently allocated     0.00E+00 Mbytes, locked:    0 /   0

     iteration # 13     ecut=    60.00 Ry     beta= 0.20
     Davidson diagonalization with overlap

---- Real-time Memory Report at c_bands before calling an iterative solver
          5435 MiB given to the printing process from OS
           387 MiB allocation reported by mallinfo(arena+hblkhd)
         50951 MiB available memory on the node where the printing process lives
     GPU memory used/free/total (MiB): 5168 / 11112 / 16280
------------------
     ethr =  5.84E-06,  avg # of iterations =  1.5

     negative rho (up, down):  9.000E-01 1.651E+00

     total cpu time spent up to now is      335.8 secs

     WARNING: integrated charge=    84.00064265, expected=    84.00000000

     total energy              =   -2035.49153371 Ry
     estimated scf accuracy    <       0.00729576 Ry

     total magnetization       =    -0.00 Bohr mag/cell
     absolute magnetization    =     2.79 Bohr mag/cell
[tb_dev] Currently allocated     2.97E+01 Mbytes, locked:    0 /  17
[tb_pin] Currently allocated     0.00E+00 Mbytes, locked:    0 /   0

     iteration # 14     ecut=    60.00 Ry     beta= 0.20
     Davidson diagonalization with overlap

---- Real-time Memory Report at c_bands before calling an iterative solver
          5442 MiB given to the printing process from OS
           395 MiB allocation reported by mallinfo(arena+hblkhd)
         50950 MiB available memory on the node where the printing process lives
     GPU memory used/free/total (MiB): 5168 / 11112 / 16280
------------------
     ethr =  5.84E-06,  avg # of iterations =  2.5

     negative rho (up, down):  9.137E-01 1.636E+00

     total cpu time spent up to now is      361.1 secs

     WARNING: integrated charge=    84.00065151, expected=    84.00000000

     total energy              =   -2035.49335743 Ry
     estimated scf accuracy    <       0.00684643 Ry

     total magnetization       =    -0.00 Bohr mag/cell
     absolute magnetization    =     2.75 Bohr mag/cell
[tb_dev] Currently allocated     2.97E+01 Mbytes, locked:    0 /  17
[tb_pin] Currently allocated     0.00E+00 Mbytes, locked:    0 /   0

     iteration # 15     ecut=    60.00 Ry     beta= 0.20
     Davidson diagonalization with overlap

---- Real-time Memory Report at c_bands before calling an iterative solver
          5459 MiB given to the printing process from OS
           403 MiB allocation reported by mallinfo(arena+hblkhd)
         50941 MiB available memory on the node where the printing process lives
     GPU memory used/free/total (MiB): 5168 / 11112 / 16280
------------------
     ethr =  5.84E-06,  avg # of iterations =  2.6

     negative rho (up, down):  9.100E-01 1.641E+00

     total cpu time spent up to now is      385.8 secs

     WARNING: integrated charge=    84.00064533, expected=    84.00000000

     total energy              =   -2035.49327313 Ry
     estimated scf accuracy    <       0.00837911 Ry

     total magnetization       =    -0.00 Bohr mag/cell
     absolute magnetization    =     2.77 Bohr mag/cell
[tb_dev] Currently allocated     2.97E+01 Mbytes, locked:    0 /  17
[tb_pin] Currently allocated     0.00E+00 Mbytes, locked:    0 /   0

     iteration # 16     ecut=    60.00 Ry     beta= 0.20
     Davidson diagonalization with overlap

---- Real-time Memory Report at c_bands before calling an iterative solver
          5463 MiB given to the printing process from OS
           412 MiB allocation reported by mallinfo(arena+hblkhd)
         50931 MiB available memory on the node where the printing process lives
     GPU memory used/free/total (MiB): 5168 / 11112 / 16280
------------------
     ethr =  5.84E-06,  avg # of iterations =  1.0

     negative rho (up, down):  9.107E-01 1.640E+00

     total cpu time spent up to now is      408.0 secs

     WARNING: integrated charge=    84.00064915, expected=    84.00000000

     total energy              =   -2035.49333148 Ry
     estimated scf accuracy    <       0.01093954 Ry

     total magnetization       =    -0.00 Bohr mag/cell
     absolute magnetization    =     2.74 Bohr mag/cell
[tb_dev] Currently allocated     2.97E+01 Mbytes, locked:    0 /  17
[tb_pin] Currently allocated     0.00E+00 Mbytes, locked:    0 /   0

     iteration # 17     ecut=    60.00 Ry     beta= 0.20
     Davidson diagonalization with overlap

---- Real-time Memory Report at c_bands before calling an iterative solver
          5471 MiB given to the printing process from OS
           420 MiB allocation reported by mallinfo(arena+hblkhd)
         50925 MiB available memory on the node where the printing process lives
     GPU memory used/free/total (MiB): 5168 / 11112 / 16280
------------------
     ethr =  5.84E-06,  avg # of iterations =  1.0

     negative rho (up, down):  8.949E-01 1.655E+00

     total cpu time spent up to now is      430.2 secs

     WARNING: integrated charge=    84.00060145, expected=    84.00000000

     total energy              =   -2035.49136545 Ry
     estimated scf accuracy    <       0.01129666 Ry

     total magnetization       =    -0.00 Bohr mag/cell
     absolute magnetization    =     2.74 Bohr mag/cell
[tb_dev] Currently allocated     2.97E+01 Mbytes, locked:    0 /  17
[tb_pin] Currently allocated     0.00E+00 Mbytes, locked:    0 /   0

     iteration # 18     ecut=    60.00 Ry     beta= 0.20
     Davidson diagonalization with overlap

---- Real-time Memory Report at c_bands before calling an iterative solver
          5480 MiB given to the printing process from OS
           429 MiB allocation reported by mallinfo(arena+hblkhd)
         50914 MiB available memory on the node where the printing process lives
     GPU memory used/free/total (MiB): 5168 / 11112 / 16280
------------------
     ethr =  5.84E-06,  avg # of iterations =  2.4

     negative rho (up, down):  9.075E-01 1.642E+00

     total cpu time spent up to now is      454.9 secs

     WARNING: integrated charge=    84.00065591, expected=    84.00000000

     total energy              =   -2035.49314320 Ry
     estimated scf accuracy    <       0.01758435 Ry

     total magnetization       =    -0.00 Bohr mag/cell
     absolute magnetization    =     2.77 Bohr mag/cell
[tb_dev] Currently allocated     2.97E+01 Mbytes, locked:    0 /  17
[tb_pin] Currently allocated     0.00E+00 Mbytes, locked:    0 /   0

     iteration # 19     ecut=    60.00 Ry     beta= 0.20
     Davidson diagonalization with overlap

---- Real-time Memory Report at c_bands before calling an iterative solver
          5488 MiB given to the printing process from OS
           437 MiB allocation reported by mallinfo(arena+hblkhd)
         50909 MiB available memory on the node where the printing process lives
     GPU memory used/free/total (MiB): 5168 / 11112 / 16280
------------------
     ethr =  5.84E-06,  avg # of iterations =  1.5

     negative rho (up, down):  9.101E-01 1.638E+00

     total cpu time spent up to now is      478.2 secs

     WARNING: integrated charge=    84.00067242, expected=    84.00000000

     total energy              =   -2035.49333518 Ry
     estimated scf accuracy    <       0.01339902 Ry

     total magnetization       =    -0.00 Bohr mag/cell
     absolute magnetization    =     2.74 Bohr mag/cell
[tb_dev] Currently allocated     2.97E+01 Mbytes, locked:    0 /  17
[tb_pin] Currently allocated     0.00E+00 Mbytes, locked:    0 /   0

     iteration # 20     ecut=    60.00 Ry     beta= 0.20
     Davidson diagonalization with overlap

---- Real-time Memory Report at c_bands before calling an iterative solver
          5497 MiB given to the printing process from OS
           446 MiB allocation reported by mallinfo(arena+hblkhd)
         50900 MiB available memory on the node where the printing process lives
     GPU memory used/free/total (MiB): 5168 / 11112 / 16280
------------------
     ethr =  5.84E-06,  avg # of iterations =  1.5

     negative rho (up, down):  9.114E-01 1.637E+00

     total cpu time spent up to now is      501.3 secs

     WARNING: integrated charge=    84.00067875, expected=    84.00000000

     total energy              =   -2035.49363593 Ry
     estimated scf accuracy    <       0.01109771 Ry

     total magnetization       =    -0.00 Bohr mag/cell
     absolute magnetization    =     2.75 Bohr mag/cell
[tb_dev] Currently allocated     2.97E+01 Mbytes, locked:    0 /  17
[tb_pin] Currently allocated     0.00E+00 Mbytes, locked:    0 /   0

     iteration # 21     ecut=    60.00 Ry     beta= 0.20
     Davidson diagonalization with overlap

---- Real-time Memory Report at c_bands before calling an iterative solver
          5509 MiB given to the printing process from OS
           454 MiB allocation reported by mallinfo(arena+hblkhd)
         50890 MiB available memory on the node where the printing process lives
     GPU memory used/free/total (MiB): 5168 / 11112 / 16280
------------------
     ethr =  5.84E-06,  avg # of iterations =  1.0

     negative rho (up, down):  9.117E-01 1.637E+00

     total cpu time spent up to now is      523.5 secs

     WARNING: integrated charge=    84.00067794, expected=    84.00000000

     total energy              =   -2035.49359813 Ry
     estimated scf accuracy    <       0.01557860 Ry

     total magnetization       =    -0.00 Bohr mag/cell
     absolute magnetization    =     2.71 Bohr mag/cell
[tb_dev] Currently allocated     2.97E+01 Mbytes, locked:    0 /  17
[tb_pin] Currently allocated     0.00E+00 Mbytes, locked:    0 /   0

     iteration # 22     ecut=    60.00 Ry     beta= 0.20
     Davidson diagonalization with overlap

---- Real-time Memory Report at c_bands before calling an iterative solver
          5518 MiB given to the printing process from OS
           462 MiB allocation reported by mallinfo(arena+hblkhd)
         50886 MiB available memory on the node where the printing process lives
     GPU memory used/free/total (MiB): 5168 / 11112 / 16280
------------------
     ethr =  5.84E-06,  avg # of iterations =  1.0

     negative rho (up, down):  9.025E-01 1.649E+00

     total cpu time spent up to now is      546.0 secs

     WARNING: integrated charge=    84.00062391, expected=    84.00000000

     total energy              =   -2035.49174968 Ry
     estimated scf accuracy    <       0.01339662 Ry

     total magnetization       =    -0.00 Bohr mag/cell
     absolute magnetization    =     2.73 Bohr mag/cell
[tb_dev] Currently allocated     2.97E+01 Mbytes, locked:    0 /  17
[tb_pin] Currently allocated     0.00E+00 Mbytes, locked:    0 /   0

     iteration # 23     ecut=    60.00 Ry     beta= 0.20
     Davidson diagonalization with overlap

---- Real-time Memory Report at c_bands before calling an iterative solver
          5526 MiB given to the printing process from OS
           471 MiB allocation reported by mallinfo(arena+hblkhd)
         50874 MiB available memory on the node where the printing process lives
     GPU memory used/free/total (MiB): 5168 / 11112 / 16280
------------------
     ethr =  5.84E-06,  avg # of iterations =  2.5

     negative rho (up, down):  9.020E-01 1.650E+00

     total cpu time spent up to now is      570.6 secs

     WARNING: integrated charge=    84.00058462, expected=    84.00000000

     total energy              =   -2035.49184970 Ry
     estimated scf accuracy    <       0.01106151 Ry

     total magnetization       =    -0.00 Bohr mag/cell
     absolute magnetization    =     2.78 Bohr mag/cell
[tb_dev] Currently allocated     2.97E+01 Mbytes, locked:    0 /  17
[tb_pin] Currently allocated     0.00E+00 Mbytes, locked:    0 /   0

     iteration # 24     ecut=    60.00 Ry     beta= 0.20
     Davidson diagonalization with overlap

---- Real-time Memory Report at c_bands before calling an iterative solver
          5535 MiB given to the printing process from OS
           479 MiB allocation reported by mallinfo(arena+hblkhd)
         50867 MiB available memory on the node where the printing process lives
     GPU memory used/free/total (MiB): 5168 / 11112 / 16280
------------------
     ethr =  5.84E-06,  avg # of iterations =  1.5

     negative rho (up, down):  8.672E-01 1.691E+00

     total cpu time spent up to now is      593.8 secs

     WARNING: integrated charge=    84.00055457, expected=    84.00000000

     total energy              =   -2035.48896760 Ry
     estimated scf accuracy    <       0.01436215 Ry

     total magnetization       =    -0.00 Bohr mag/cell
     absolute magnetization    =     2.77 Bohr mag/cell
[tb_dev] Currently allocated     2.97E+01 Mbytes, locked:    0 /  17
[tb_pin] Currently allocated     0.00E+00 Mbytes, locked:    0 /   0

     iteration # 25     ecut=    60.00 Ry     beta= 0.20
     Davidson diagonalization with overlap

---- Real-time Memory Report at c_bands before calling an iterative solver
          5539 MiB given to the printing process from OS
           488 MiB allocation reported by mallinfo(arena+hblkhd)
         50858 MiB available memory on the node where the printing process lives
     GPU memory used/free/total (MiB): 5168 / 11112 / 16280
------------------
     ethr =  5.84E-06,  avg # of iterations =  5.2

     negative rho (up, down):  8.893E-01 1.665E+00

     total cpu time spent up to now is      626.3 secs

     WARNING: integrated charge=    84.00059992, expected=    84.00000000

     total energy              =   -2035.48942107 Ry
     estimated scf accuracy    <       0.17911220 Ry

     total magnetization       =    -0.00 Bohr mag/cell
     absolute magnetization    =     3.34 Bohr mag/cell
[tb_dev] Currently allocated     2.97E+01 Mbytes, locked:    0 /  17
[tb_pin] Currently allocated     0.00E+00 Mbytes, locked:    0 /   0

     iteration # 26     ecut=    60.00 Ry     beta= 0.20
     Davidson diagonalization with overlap

---- Real-time Memory Report at c_bands before calling an iterative solver
          5547 MiB given to the printing process from OS
           496 MiB allocation reported by mallinfo(arena+hblkhd)
         50848 MiB available memory on the node where the printing process lives
     GPU memory used/free/total (MiB): 5168 / 11112 / 16280
------------------
     ethr =  5.84E-06,  avg # of iterations =  4.5

     negative rho (up, down):  8.954E-01 1.657E+00

     total cpu time spent up to now is      655.8 secs

     WARNING: integrated charge=    84.00062117, expected=    84.00000000

     total energy              =   -2035.49047468 Ry
     estimated scf accuracy    <       0.04459807 Ry

     total magnetization       =    -0.00 Bohr mag/cell
     absolute magnetization    =     2.79 Bohr mag/cell
[tb_dev] Currently allocated     2.97E+01 Mbytes, locked:    0 /  17
[tb_pin] Currently allocated     0.00E+00 Mbytes, locked:    0 /   0

     iteration # 27     ecut=    60.00 Ry     beta= 0.20
     Davidson diagonalization with overlap

---- Real-time Memory Report at c_bands before calling an iterative solver
          5560 MiB given to the printing process from OS
           505 MiB allocation reported by mallinfo(arena+hblkhd)
         50841 MiB available memory on the node where the printing process lives
     GPU memory used/free/total (MiB): 5168 / 11112 / 16280
------------------
     ethr =  5.84E-06,  avg # of iterations =  4.3

     negative rho (up, down):  8.933E-01 1.659E+00

     total cpu time spent up to now is      683.8 secs

     WARNING: integrated charge=    84.00063285, expected=    84.00000000

     total energy              =   -2035.49098093 Ry
     estimated scf accuracy    <       0.00372067 Ry

     total magnetization       =    -0.00 Bohr mag/cell
     absolute magnetization    =     2.88 Bohr mag/cell
[tb_dev] Currently allocated     2.97E+01 Mbytes, locked:    0 /  17
[tb_pin] Currently allocated     0.00E+00 Mbytes, locked:    0 /   0

     iteration # 28     ecut=    60.00 Ry     beta= 0.20
     Davidson diagonalization with overlap

---- Real-time Memory Report at c_bands before calling an iterative solver
          5569 MiB given to the printing process from OS
           513 MiB allocation reported by mallinfo(arena+hblkhd)
         50832 MiB available memory on the node where the printing process lives
     GPU memory used/free/total (MiB): 5168 / 11112 / 16280
------------------
     ethr =  4.43E-06,  avg # of iterations =  1.0

     negative rho (up, down):  8.937E-01 1.658E+00

     total cpu time spent up to now is      706.0 secs

     WARNING: integrated charge=    84.00063591, expected=    84.00000000

     total energy              =   -2035.49112796 Ry
     estimated scf accuracy    <       0.00337773 Ry

     total magnetization       =    -0.00 Bohr mag/cell
     absolute magnetization    =     2.86 Bohr mag/cell
[tb_dev] Currently allocated     2.97E+01 Mbytes, locked:    0 /  17
[tb_pin] Currently allocated     0.00E+00 Mbytes, locked:    0 /   0

     iteration # 29     ecut=    60.00 Ry     beta= 0.20
     Davidson diagonalization with overlap

---- Real-time Memory Report at c_bands before calling an iterative solver
          5577 MiB given to the printing process from OS
           521 MiB allocation reported by mallinfo(arena+hblkhd)
         50823 MiB available memory on the node where the printing process lives
     GPU memory used/free/total (MiB): 5168 / 11112 / 16280
------------------
     ethr =  4.02E-06,  avg # of iterations =  1.0

     negative rho (up, down):  8.866E-01 1.668E+00

     total cpu time spent up to now is      728.3 secs

     WARNING: integrated charge=    84.00066472, expected=    84.00000000

     total energy              =   -2035.49029081 Ry
     estimated scf accuracy    <       0.00340102 Ry

     total magnetization       =    -0.00 Bohr mag/cell
     absolute magnetization    =     2.84 Bohr mag/cell
[tb_dev] Currently allocated     2.97E+01 Mbytes, locked:    0 /  17
[tb_pin] Currently allocated     0.00E+00 Mbytes, locked:    0 /   0

     iteration # 30     ecut=    60.00 Ry     beta= 0.20
     Davidson diagonalization with overlap

---- Real-time Memory Report at c_bands before calling an iterative solver
          5586 MiB given to the printing process from OS
           530 MiB allocation reported by mallinfo(arena+hblkhd)
         50817 MiB available memory on the node where the printing process lives
     GPU memory used/free/total (MiB): 5168 / 11112 / 16280
------------------
     ethr =  4.02E-06,  avg # of iterations =  1.9

     negative rho (up, down):  8.937E-01 1.658E+00

     total cpu time spent up to now is      752.2 secs

     WARNING: integrated charge=    84.00067356, expected=    84.00000000

     total energy              =   -2035.49187186 Ry
     estimated scf accuracy    <       0.00334966 Ry

     total magnetization       =    -0.00 Bohr mag/cell
     absolute magnetization    =     2.90 Bohr mag/cell
[tb_dev] Currently allocated     2.97E+01 Mbytes, locked:    0 /  17
[tb_pin] Currently allocated     0.00E+00 Mbytes, locked:    0 /   0

     iteration # 31     ecut=    60.00 Ry     beta= 0.20
     Davidson diagonalization with overlap

---- Real-time Memory Report at c_bands before calling an iterative solver
          5590 MiB given to the printing process from OS
           538 MiB allocation reported by mallinfo(arena+hblkhd)
         50806 MiB available memory on the node where the printing process lives
     GPU memory used/free/total (MiB): 5168 / 11112 / 16280
------------------
     ethr =  3.99E-06,  avg # of iterations =  1.0

     negative rho (up, down):  8.929E-01 1.658E+00

     total cpu time spent up to now is      774.7 secs

     WARNING: integrated charge=    84.00068346, expected=    84.00000000

     total energy              =   -2035.49191313 Ry
     estimated scf accuracy    <       0.00289786 Ry

     total magnetization       =    -0.00 Bohr mag/cell
     absolute magnetization    =     2.87 Bohr mag/cell
[tb_dev] Currently allocated     2.97E+01 Mbytes, locked:    0 /  17
[tb_pin] Currently allocated     0.00E+00 Mbytes, locked:    0 /   0

     iteration # 32     ecut=    60.00 Ry     beta= 0.20
     Davidson diagonalization with overlap

---- Real-time Memory Report at c_bands before calling an iterative solver
          5599 MiB given to the printing process from OS
           547 MiB allocation reported by mallinfo(arena+hblkhd)
         50801 MiB available memory on the node where the printing process lives
     GPU memory used/free/total (MiB): 5168 / 11112 / 16280
------------------
     ethr =  3.45E-06,  avg # of iterations =  1.0

     negative rho (up, down):  8.928E-01 1.658E+00

     total cpu time spent up to now is      796.8 secs

     WARNING: integrated charge=    84.00066944, expected=    84.00000000

     total energy              =   -2035.49100269 Ry
     estimated scf accuracy    <       0.00329420 Ry

     total magnetization       =    -0.00 Bohr mag/cell
     absolute magnetization    =     2.86 Bohr mag/cell
[tb_dev] Currently allocated     2.97E+01 Mbytes, locked:    0 /  17
[tb_pin] Currently allocated     0.00E+00 Mbytes, locked:    0 /   0

     iteration # 33     ecut=    60.00 Ry     beta= 0.20
     Davidson diagonalization with overlap

---- Real-time Memory Report at c_bands before calling an iterative solver
          5607 MiB given to the printing process from OS
           555 MiB allocation reported by mallinfo(arena+hblkhd)
         50791 MiB available memory on the node where the printing process lives
     GPU memory used/free/total (MiB): 5168 / 11112 / 16280
------------------
     ethr =  3.45E-06,  avg # of iterations =  2.2

     negative rho (up, down):  8.939E-01 1.657E+00

     total cpu time spent up to now is      821.1 secs

     WARNING: integrated charge=    84.00067289, expected=    84.00000000

     total energy              =   -2035.49121598 Ry
     estimated scf accuracy    <       0.00128495 Ry

     total magnetization       =    -0.00 Bohr mag/cell
     absolute magnetization    =     2.85 Bohr mag/cell
[tb_dev] Currently allocated     2.97E+01 Mbytes, locked:    0 /  17
[tb_pin] Currently allocated     0.00E+00 Mbytes, locked:    0 /   0

     iteration # 34     ecut=    60.00 Ry     beta= 0.20
     Davidson diagonalization with overlap

---- Real-time Memory Report at c_bands before calling an iterative solver
          5615 MiB given to the printing process from OS
           563 MiB allocation reported by mallinfo(arena+hblkhd)
         50780 MiB available memory on the node where the printing process lives
     GPU memory used/free/total (MiB): 5168 / 11112 / 16280
------------------
     ethr =  1.53E-06,  avg # of iterations =  1.0

     negative rho (up, down):  9.072E-01 1.638E+00

     total cpu time spent up to now is      843.4 secs

     WARNING: integrated charge=    84.00069949, expected=    84.00000000

     total energy              =   -2035.49231598 Ry
     estimated scf accuracy    <       0.00139188 Ry

     total magnetization       =    -0.00 Bohr mag/cell
     absolute magnetization    =     2.85 Bohr mag/cell
[tb_dev] Currently allocated     2.97E+01 Mbytes, locked:    0 /  17
[tb_pin] Currently allocated     0.00E+00 Mbytes, locked:    0 /   0

     iteration # 35     ecut=    60.00 Ry     beta= 0.20
     Davidson diagonalization with overlap

---- Real-time Memory Report at c_bands before calling an iterative solver
          5628 MiB given to the printing process from OS
           596 MiB allocation reported by mallinfo(arena+hblkhd)
         50776 MiB available memory on the node where the printing process lives
     GPU memory used/free/total (MiB): 5168 / 11112 / 16280
------------------
     ethr =  1.53E-06,  avg # of iterations =  4.1

     negative rho (up, down):  9.078E-01 1.638E+00

     total cpu time spent up to now is      871.8 secs

     WARNING: integrated charge=    84.00069043, expected=    84.00000000

     total energy              =   -2035.49255033 Ry
     estimated scf accuracy    <       0.01291525 Ry

     total magnetization       =    -0.00 Bohr mag/cell
     absolute magnetization    =     2.62 Bohr mag/cell
[tb_dev] Currently allocated     2.97E+01 Mbytes, locked:    0 /  17
[tb_pin] Currently allocated     0.00E+00 Mbytes, locked:    0 /   0

     iteration # 36     ecut=    60.00 Ry     beta= 0.20
     Davidson diagonalization with overlap

---- Real-time Memory Report at c_bands before calling an iterative solver
          5636 MiB given to the printing process from OS
           604 MiB allocation reported by mallinfo(arena+hblkhd)
         50765 MiB available memory on the node where the printing process lives
     GPU memory used/free/total (MiB): 5168 / 11112 / 16280
------------------
     ethr =  1.53E-06,  avg # of iterations =  3.8

     negative rho (up, down):  8.808E-01 1.677E+00

     total cpu time spent up to now is      898.8 secs

     WARNING: integrated charge=    84.00066608, expected=    84.00000000

     total energy              =   -2035.48885063 Ry
     estimated scf accuracy    <       0.00602576 Ry

     total magnetization       =    -0.00 Bohr mag/cell
     absolute magnetization    =     2.63 Bohr mag/cell
[tb_dev] Currently allocated     2.97E+01 Mbytes, locked:    0 /  17
[tb_pin] Currently allocated     0.00E+00 Mbytes, locked:    0 /   0

     iteration # 37     ecut=    60.00 Ry     beta= 0.20
     Davidson diagonalization with overlap

---- Real-time Memory Report at c_bands before calling an iterative solver
          5649 MiB given to the printing process from OS
           612 MiB allocation reported by mallinfo(arena+hblkhd)
         50754 MiB available memory on the node where the printing process lives
     GPU memory used/free/total (MiB): 5168 / 11112 / 16280
------------------
     ethr =  1.53E-06,  avg # of iterations =  5.2

     negative rho (up, down):  8.741E-01 1.688E+00

     total cpu time spent up to now is      933.0 secs

     WARNING: integrated charge=    84.00066172, expected=    84.00000000

     total energy              =   -2035.49033665 Ry
     estimated scf accuracy    <       0.06491631 Ry

     total magnetization       =    -0.00 Bohr mag/cell
     absolute magnetization    =     3.23 Bohr mag/cell
[tb_dev] Currently allocated     2.97E+01 Mbytes, locked:    0 /  17
[tb_pin] Currently allocated     0.00E+00 Mbytes, locked:    0 /   0

     iteration # 38     ecut=    60.00 Ry     beta= 0.20
     Davidson diagonalization with overlap

---- Real-time Memory Report at c_bands before calling an iterative solver
          5658 MiB given to the printing process from OS
           621 MiB allocation reported by mallinfo(arena+hblkhd)
         50747 MiB available memory on the node where the printing process lives
     GPU memory used/free/total (MiB): 5168 / 11112 / 16280
------------------
     ethr =  1.53E-06,  avg # of iterations =  2.8

     negative rho (up, down):  8.733E-01 1.689E+00

     total cpu time spent up to now is      958.6 secs

     WARNING: integrated charge=    84.00066154, expected=    84.00000000

     total energy              =   -2035.49033555 Ry
     estimated scf accuracy    <       0.07639226 Ry

     total magnetization       =    -0.00 Bohr mag/cell
     absolute magnetization    =     3.22 Bohr mag/cell
[tb_dev] Currently allocated     2.97E+01 Mbytes, locked:    0 /  17
[tb_pin] Currently allocated     0.00E+00 Mbytes, locked:    0 /   0

     iteration # 39     ecut=    60.00 Ry     beta= 0.20
     Davidson diagonalization with overlap

---- Real-time Memory Report at c_bands before calling an iterative solver
          5666 MiB given to the printing process from OS
           629 MiB allocation reported by mallinfo(arena+hblkhd)
         50740 MiB available memory on the node where the printing process lives
     GPU memory used/free/total (MiB): 5168 / 11112 / 16280
------------------
     ethr =  1.53E-06,  avg # of iterations =  1.5

     negative rho (up, down):  8.993E-01 1.651E+00

     total cpu time spent up to now is      981.6 secs

     WARNING: integrated charge=    84.00067938, expected=    84.00000000

     total energy              =   -2035.49031137 Ry
     estimated scf accuracy    <       0.07401127 Ry

     total magnetization       =    -0.00 Bohr mag/cell
     absolute magnetization    =     3.19 Bohr mag/cell
[tb_dev] Currently allocated     2.97E+01 Mbytes, locked:    0 /  17
[tb_pin] Currently allocated     0.00E+00 Mbytes, locked:    0 /   0

     iteration # 40     ecut=    60.00 Ry     beta= 0.20
     Davidson diagonalization with overlap

---- Real-time Memory Report at c_bands before calling an iterative solver
          5678 MiB given to the printing process from OS
           638 MiB allocation reported by mallinfo(arena+hblkhd)
         50734 MiB available memory on the node where the printing process lives
     GPU memory used/free/total (MiB): 5168 / 11112 / 16280
------------------
     ethr =  1.53E-06,  avg # of iterations =  5.2

     negative rho (up, down):  8.972E-01 1.653E+00

     total cpu time spent up to now is     1015.3 secs

     WARNING: integrated charge=    84.00067929, expected=    84.00000000

     total energy              =   -2035.49115932 Ry
     estimated scf accuracy    <       0.02186558 Ry

     total magnetization       =    -0.00 Bohr mag/cell
     absolute magnetization    =     2.84 Bohr mag/cell
[tb_dev] Currently allocated     2.97E+01 Mbytes, locked:    0 /  17
[tb_pin] Currently allocated     0.00E+00 Mbytes, locked:    0 /   0

     iteration # 41     ecut=    60.00 Ry     beta= 0.20
     Davidson diagonalization with overlap

---- Real-time Memory Report at c_bands before calling an iterative solver
          5686 MiB given to the printing process from OS
           646 MiB allocation reported by mallinfo(arena+hblkhd)
         50724 MiB available memory on the node where the printing process lives
     GPU memory used/free/total (MiB): 5168 / 11112 / 16280
------------------
     ethr =  1.53E-06,  avg # of iterations =  3.6

     negative rho (up, down):  8.966E-01 1.655E+00

     total cpu time spent up to now is     1042.3 secs

     WARNING: integrated charge=    84.00067459, expected=    84.00000000

     total energy              =   -2035.49129964 Ry
     estimated scf accuracy    <       0.00167954 Ry

     total magnetization       =    -0.00 Bohr mag/cell
     absolute magnetization    =     2.87 Bohr mag/cell
[tb_dev] Currently allocated     2.97E+01 Mbytes, locked:    0 /  17
[tb_pin] Currently allocated     0.00E+00 Mbytes, locked:    0 /   0

     iteration # 42     ecut=    60.00 Ry     beta= 0.20
     Davidson diagonalization with overlap

---- Real-time Memory Report at c_bands before calling an iterative solver
          5691 MiB given to the printing process from OS
           655 MiB allocation reported by mallinfo(arena+hblkhd)
         50708 MiB available memory on the node where the printing process lives
     GPU memory used/free/total (MiB): 5168 / 11112 / 16280
------------------
     ethr =  1.53E-06,  avg # of iterations =  2.0

     negative rho (up, down):  9.135E-01 1.634E+00

     total cpu time spent up to now is     1066.1 secs

     WARNING: integrated charge=    84.00066482, expected=    84.00000000

     total energy              =   -2035.49261621 Ry
     estimated scf accuracy    <       0.00041702 Ry

     total magnetization       =    -0.00 Bohr mag/cell
     absolute magnetization    =     2.86 Bohr mag/cell
[tb_dev] Currently allocated     2.97E+01 Mbytes, locked:    0 /  17
[tb_pin] Currently allocated     0.00E+00 Mbytes, locked:    0 /   0

     iteration # 43     ecut=    60.00 Ry     beta= 0.20
     Davidson diagonalization with overlap

---- Real-time Memory Report at c_bands before calling an iterative solver
          5699 MiB given to the printing process from OS
           663 MiB allocation reported by mallinfo(arena+hblkhd)
         50704 MiB available memory on the node where the printing process lives
     GPU memory used/free/total (MiB): 5168 / 11112 / 16280
------------------
     ethr =  4.96E-07,  avg # of iterations =  4.9

     negative rho (up, down):  9.003E-01 1.650E+00

     total cpu time spent up to now is     1097.6 secs

     WARNING: integrated charge=    84.00067117, expected=    84.00000000

     total energy              =   -2035.49136257 Ry
     estimated scf accuracy    <       0.00672472 Ry

     total magnetization       =    -0.00 Bohr mag/cell
     absolute magnetization    =     2.64 Bohr mag/cell
[tb_dev] Currently allocated     2.97E+01 Mbytes, locked:    0 /  17
[tb_pin] Currently allocated     0.00E+00 Mbytes, locked:    0 /   0

     iteration # 44     ecut=    60.00 Ry     beta= 0.20
     Davidson diagonalization with overlap

---- Real-time Memory Report at c_bands before calling an iterative solver
          5711 MiB given to the printing process from OS
           671 MiB allocation reported by mallinfo(arena+hblkhd)
         50694 MiB available memory on the node where the printing process lives
     GPU memory used/free/total (MiB): 5168 / 11112 / 16280
------------------
     ethr =  4.96E-07,  avg # of iterations =  4.6

     negative rho (up, down):  8.918E-01 1.661E+00

     total cpu time spent up to now is     1128.7 secs

     WARNING: integrated charge=    84.00067996, expected=    84.00000000

     total energy              =   -2035.49087001 Ry
     estimated scf accuracy    <       0.00045903 Ry

     total magnetization       =    -0.00 Bohr mag/cell
     absolute magnetization    =     2.91 Bohr mag/cell
[tb_dev] Currently allocated     2.97E+01 Mbytes, locked:    0 /  17
[tb_pin] Currently allocated     0.00E+00 Mbytes, locked:    0 /   0

     iteration # 45     ecut=    60.00 Ry     beta= 0.20
     Davidson diagonalization with overlap

---- Real-time Memory Report at c_bands before calling an iterative solver
          5719 MiB given to the printing process from OS
           680 MiB allocation reported by mallinfo(arena+hblkhd)
         50689 MiB available memory on the node where the printing process lives
     GPU memory used/free/total (MiB): 5168 / 11112 / 16280
------------------
     ethr =  4.96E-07,  avg # of iterations =  4.2

     negative rho (up, down):  8.951E-01 1.656E+00

     total cpu time spent up to now is     1156.8 secs

     WARNING: integrated charge=    84.00068228, expected=    84.00000000

     total energy              =   -2035.49123845 Ry
     estimated scf accuracy    <       0.00199984 Ry

     total magnetization       =    -0.00 Bohr mag/cell
     absolute magnetization    =     2.84 Bohr mag/cell
[tb_dev] Currently allocated     2.97E+01 Mbytes, locked:    0 /  17
[tb_pin] Currently allocated     0.00E+00 Mbytes, locked:    0 /   0

     iteration # 46     ecut=    60.00 Ry     beta= 0.20
     Davidson diagonalization with overlap

---- Real-time Memory Report at c_bands before calling an iterative solver
          5732 MiB given to the printing process from OS
           688 MiB allocation reported by mallinfo(arena+hblkhd)
         50678 MiB available memory on the node where the printing process lives
     GPU memory used/free/total (MiB): 5168 / 11112 / 16280
------------------
     ethr =  4.96E-07,  avg # of iterations =  1.5

     negative rho (up, down):  8.911E-01 1.662E+00

     total cpu time spent up to now is     1179.8 secs

     WARNING: integrated charge=    84.00067804, expected=    84.00000000

     total energy              =   -2035.49069840 Ry
     estimated scf accuracy    <       0.00164632 Ry

     total magnetization       =    -0.00 Bohr mag/cell
     absolute magnetization    =     2.85 Bohr mag/cell
[tb_dev] Currently allocated     2.97E+01 Mbytes, locked:    0 /  17
[tb_pin] Currently allocated     0.00E+00 Mbytes, locked:    0 /   0

     iteration # 47     ecut=    60.00 Ry     beta= 0.20
     Davidson diagonalization with overlap

---- Real-time Memory Report at c_bands before calling an iterative solver
          5740 MiB given to the printing process from OS
           697 MiB allocation reported by mallinfo(arena+hblkhd)
         50667 MiB available memory on the node where the printing process lives
     GPU memory used/free/total (MiB): 5168 / 11112 / 16280
------------------
     ethr =  4.96E-07,  avg # of iterations =  2.7

     negative rho (up, down):  8.916E-01 1.662E+00

     total cpu time spent up to now is     1204.7 secs

     WARNING: integrated charge=    84.00067938, expected=    84.00000000

     total energy              =   -2035.49077003 Ry
     estimated scf accuracy    <       0.00195522 Ry

     total magnetization       =    -0.00 Bohr mag/cell
     absolute magnetization    =     2.84 Bohr mag/cell
[tb_dev] Currently allocated     2.97E+01 Mbytes, locked:    0 /  17
[tb_pin] Currently allocated     0.00E+00 Mbytes, locked:    0 /   0

     iteration # 48     ecut=    60.00 Ry     beta= 0.20
     Davidson diagonalization with overlap

---- Real-time Memory Report at c_bands before calling an iterative solver
[...]

     total cpu time spent up to now is     1698.7 secs

     WARNING: integrated charge=    84.00071215, expected=    84.00000000

     total energy              =   -2035.49153405 Ry
     estimated scf accuracy    <       0.00319373 Ry

     total magnetization       =    -0.00 Bohr mag/cell
     absolute magnetization    =     2.77 Bohr mag/cell
[tb_dev] Currently allocated     2.97E+01 Mbytes, locked:    0 /  17
[tb_pin] Currently allocated     0.00E+00 Mbytes, locked:    0 /   0

     iteration # 67     ecut=    60.00 Ry     beta= 0.20
     Davidson diagonalization with overlap

---- Real-time Memory Report at c_bands before calling an iterative solver
          5922 MiB given to the printing process from OS
           877 MiB allocation reported by mallinfo(arena+hblkhd)
         50492 MiB available memory on the node where the printing process lives
     GPU memory used/free/total (MiB): 5168 / 11112 / 16280
------------------
     ethr =  2.29E-07,  avg # of iterations =  3.2

     negative rho (up, down):  8.991E-01 1.645E+00

     total cpu time spent up to now is     1726.9 secs

     WARNING: integrated charge=    84.00071879, expected=    84.00000000

     total energy              =   -2035.49175816 Ry
     estimated scf accuracy    <       0.00207569 Ry

     total magnetization       =    -0.00 Bohr mag/cell
     absolute magnetization    =     2.89 Bohr mag/cell
[tb_dev] Currently allocated     2.97E+01 Mbytes, locked:    0 /  17
[tb_pin] Currently allocated     0.00E+00 Mbytes, locked:    0 /   0

     iteration # 68     ecut=    60.00 Ry     beta= 0.20
     Davidson diagonalization with overlap

---- Real-time Memory Report at c_bands before calling an iterative solver
          5931 MiB given to the printing process from OS
           885 MiB allocation reported by mallinfo(arena+hblkhd)
         50481 MiB available memory on the node where the printing process lives
     GPU memory used/free/total (MiB): 5168 / 11112 / 16280
------------------
     ethr =  2.29E-07,  avg # of iterations =  3.1

     negative rho (up, down):  8.976E-01 1.648E+00

     total cpu time spent up to now is     1753.7 secs

     WARNING: integrated charge=    84.00070187, expected=    84.00000000

     total energy              =   -2035.49161632 Ry
     estimated scf accuracy    <       0.00164665 Ry

     total magnetization       =    -0.00 Bohr mag/cell
     absolute magnetization    =     2.79 Bohr mag/cell
[tb_dev] Currently allocated     2.97E+01 Mbytes, locked:    0 /  17
[tb_pin] Currently allocated     0.00E+00 Mbytes, locked:    0 /   0

     iteration # 69     ecut=    60.00 Ry     beta= 0.20
     Davidson diagonalization with overlap

---- Real-time Memory Report at c_bands before calling an iterative solver
          5943 MiB given to the printing process from OS
           894 MiB allocation reported by mallinfo(arena+hblkhd)
         50475 MiB available memory on the node where the printing process lives
     GPU memory used/free/total (MiB): 5168 / 11112 / 16280
------------------
     ethr =  2.29E-07,  avg # of iterations =  4.6

     negative rho (up, down):  8.975E-01 1.649E+00

     total cpu time spent up to now is     1782.7 secs

     WARNING: integrated charge=    84.00071332, expected=    84.00000000

     total energy              =   -2035.49147164 Ry
     estimated scf accuracy    <       0.00056850 Ry

     total magnetization       =    -0.00 Bohr mag/cell
     absolute magnetization    =     2.87 Bohr mag/cell
[tb_dev] Currently allocated     2.97E+01 Mbytes, locked:    0 /  17
[tb_pin] Currently allocated     0.00E+00 Mbytes, locked:    0 /   0

     iteration # 70     ecut=    60.00 Ry     beta= 0.20
     Davidson diagonalization with overlap

---- Real-time Memory Report at c_bands before calling an iterative solver
          5952 MiB given to the printing process from OS
           902 MiB allocation reported by mallinfo(arena+hblkhd)
         50467 MiB available memory on the node where the printing process lives
     GPU memory used/free/total (MiB): 5168 / 11112 / 16280
------------------
     ethr =  2.29E-07,  avg # of iterations =  2.7

     negative rho (up, down):  8.967E-01 1.656E+00

     total cpu time spent up to now is     1807.5 secs

     WARNING: integrated charge=    84.00072204, expected=    84.00000000

     total energy              =   -2035.49094181 Ry
     estimated scf accuracy    <       0.00043551 Ry

     total magnetization       =    -0.00 Bohr mag/cell
     absolute magnetization    =     2.86 Bohr mag/cell
[tb_dev] Currently allocated     2.97E+01 Mbytes, locked:    0 /  17
[tb_pin] Currently allocated     0.00E+00 Mbytes, locked:    0 /   0

     iteration # 71     ecut=    60.00 Ry     beta= 0.20
     Davidson diagonalization with overlap

---- Real-time Memory Report at c_bands before calling an iterative solver
          5961 MiB given to the printing process from OS
           911 MiB allocation reported by mallinfo(arena+hblkhd)
         50459 MiB available memory on the node where the printing process lives
     GPU memory used/free/total (MiB): 5168 / 11112 / 16280
------------------
     ethr =  2.29E-07,  avg # of iterations =  4.7

     negative rho (up, down):  8.967E-01 1.655E+00

     total cpu time spent up to now is     1837.0 secs

     WARNING: integrated charge=    84.00072113, expected=    84.00000000

     total energy              =   -2035.49103659 Ry
     estimated scf accuracy    <       0.00231071 Ry

     total magnetization       =    -0.00 Bohr mag/cell
     absolute magnetization    =     2.85 Bohr mag/cell
[tb_dev] Currently allocated     2.97E+01 Mbytes, locked:    0 /  17
[tb_pin] Currently allocated     0.00E+00 Mbytes, locked:    0 /   0

     iteration # 72     ecut=    60.00 Ry     beta= 0.20
     Davidson diagonalization with overlap

---- Real-time Memory Report at c_bands before calling an iterative solver
          5969 MiB given to the printing process from OS
           919 MiB allocation reported by mallinfo(arena+hblkhd)
         50424 MiB available memory on the node where the printing process lives
     GPU memory used/free/total (MiB): 5168 / 11112 / 16280
------------------
     ethr =  2.29E-07,  avg # of iterations =  1.1

     negative rho (up, down):  8.978E-01 1.655E+00

     total cpu time spent up to now is     1859.2 secs

     WARNING: integrated charge=    84.00072144, expected=    84.00000000

     total energy              =   -2035.49106873 Ry
     estimated scf accuracy    <       0.00220838 Ry

     total magnetization       =    -0.00 Bohr mag/cell
     absolute magnetization    =     2.85 Bohr mag/cell
[tb_dev] Currently allocated     2.97E+01 Mbytes, locked:    0 /  17
[tb_pin] Currently allocated     0.00E+00 Mbytes, locked:    0 /   0

     iteration # 73     ecut=    60.00 Ry     beta= 0.20
     Davidson diagonalization with overlap

---- Real-time Memory Report at c_bands before calling an iterative solver
          5977 MiB given to the printing process from OS
           928 MiB allocation reported by mallinfo(arena+hblkhd)
         50430 MiB available memory on the node where the printing process lives
     GPU memory used/free/total (MiB): 5168 / 11112 / 16280
------------------
     ethr =  2.29E-07,  avg # of iterations =  1.3

     negative rho (up, down):  8.944E-01 1.654E+00

     total cpu time spent up to now is     1881.8 secs

     WARNING: integrated charge=    84.00070387, expected=    84.00000000

     total energy              =   -2035.49113900 Ry
     estimated scf accuracy    <       0.00231309 Ry

     total magnetization       =    -0.00 Bohr mag/cell
     absolute magnetization    =     2.86 Bohr mag/cell
[tb_dev] Currently allocated     2.97E+01 Mbytes, locked:    0 /  17
[tb_pin] Currently allocated     0.00E+00 Mbytes, locked:    0 /   0

     iteration # 74     ecut=    60.00 Ry     beta= 0.20
     Davidson diagonalization with overlap

---- Real-time Memory Report at c_bands before calling an iterative solver
          5985 MiB given to the printing process from OS
           936 MiB allocation reported by mallinfo(arena+hblkhd)
         50425 MiB available memory on the node where the printing process lives
     GPU memory used/free/total (MiB): 5168 / 11112 / 16280
------------------
     ethr =  2.29E-07,  avg # of iterations =  3.2

     negative rho (up, down):  8.886E-01 1.664E+00

     total cpu time spent up to now is     1908.1 secs

     WARNING: integrated charge=    84.00071070, expected=    84.00000000

     total energy              =   -2035.49029093 Ry
     estimated scf accuracy    <       0.00107946 Ry

     total magnetization       =    -0.00 Bohr mag/cell
     absolute magnetization    =     2.81 Bohr mag/cell
[tb_dev] Currently allocated     2.97E+01 Mbytes, locked:    0 /  17
[tb_pin] Currently allocated     0.00E+00 Mbytes, locked:    0 /   0

     iteration # 75     ecut=    60.00 Ry     beta= 0.20
     Davidson diagonalization with overlap

---- Real-time Memory Report at c_bands before calling an iterative solver
          5994 MiB given to the printing process from OS
           944 MiB allocation reported by mallinfo(arena+hblkhd)
         50407 MiB available memory on the node where the printing process lives
     GPU memory used/free/total (MiB): 5168 / 11112 / 16280
------------------
     ethr =  2.29E-07,  avg # of iterations =  5.5

     negative rho (up, down):  8.884E-01 1.664E+00

     total cpu time spent up to now is     1941.6 secs

     WARNING: integrated charge=    84.00071251, expected=    84.00000000

     total energy              =   -2035.49056972 Ry
     estimated scf accuracy    <       0.01654530 Ry

     total magnetization       =    -0.00 Bohr mag/cell
     absolute magnetization    =     2.86 Bohr mag/cell
[tb_dev] Currently allocated     2.97E+01 Mbytes, locked:    0 /  17
[tb_pin] Currently allocated     0.00E+00 Mbytes, locked:    0 /   0

     iteration # 76     ecut=    60.00 Ry     beta= 0.20
     Davidson diagonalization with overlap

---- Real-time Memory Report at c_bands before calling an iterative solver
          5994 MiB given to the printing process from OS
           965 MiB allocation reported by mallinfo(arena+hblkhd)
         50401 MiB available memory on the node where the printing process lives
     GPU memory used/free/total (MiB): 5168 / 11112 / 16280
------------------
     ethr =  2.29E-07,  avg # of iterations =  1.1

     negative rho (up, down):  8.932E-01 1.658E+00

     total cpu time spent up to now is     1963.8 secs

     WARNING: integrated charge=    84.00070234, expected=    84.00000000

     total energy              =   -2035.49068279 Ry
     estimated scf accuracy    <       0.01766060 Ry

     total magnetization       =    -0.00 Bohr mag/cell
     absolute magnetization    =     2.86 Bohr mag/cell
[tb_dev] Currently allocated     2.97E+01 Mbytes, locked:    0 /  17
[tb_pin] Currently allocated     0.00E+00 Mbytes, locked:    0 /   0

     iteration # 77     ecut=    60.00 Ry     beta= 0.20
     Davidson diagonalization with overlap

---- Real-time Memory Report at c_bands before calling an iterative solver
          5994 MiB given to the printing process from OS
           973 MiB allocation reported by mallinfo(arena+hblkhd)
         50392 MiB available memory on the node where the printing process lives
     GPU memory used/free/total (MiB): 5168 / 11112 / 16280
------------------
     ethr =  2.29E-07,  avg # of iterations =  5.2

     negative rho (up, down):  8.994E-01 1.644E+00

     total cpu time spent up to now is     1996.5 secs

     WARNING: integrated charge=    84.00067802, expected=    84.00000000

     total energy              =   -2035.49192738 Ry
     estimated scf accuracy    <       0.00301205 Ry

     total magnetization       =    -0.00 Bohr mag/cell
     absolute magnetization    =     2.83 Bohr mag/cell
[tb_dev] Currently allocated     2.97E+01 Mbytes, locked:    0 /  17
[tb_pin] Currently allocated     0.00E+00 Mbytes, locked:    0 /   0

     iteration # 78     ecut=    60.00 Ry     beta= 0.20
     Davidson diagonalization with overlap

---- Real-time Memory Report at c_bands before calling an iterative solver
          5994 MiB given to the printing process from OS
           982 MiB allocation reported by mallinfo(arena+hblkhd)
         50383 MiB available memory on the node where the printing process lives
     GPU memory used/free/total (MiB): 5168 / 11112 / 16280
------------------
     ethr =  2.29E-07,  avg # of iterations =  5.1

     negative rho (up, down):  9.000E-01 1.650E+00

     total cpu time spent up to now is     2029.3 secs

     WARNING: integrated charge=    84.00073684, expected=    84.00000000

     total energy              =   -2035.49120281 Ry
     estimated scf accuracy    <       0.01124762 Ry

     total magnetization       =    -0.00 Bohr mag/cell
     absolute magnetization    =     2.66 Bohr mag/cell
[tb_dev] Currently allocated     2.97E+01 Mbytes, locked:    0 /  17
[tb_pin] Currently allocated     0.00E+00 Mbytes, locked:    0 /   0

     iteration # 79     ecut=    60.00 Ry     beta= 0.20
     Davidson diagonalization with overlap

---- Real-time Memory Report at c_bands before calling an iterative solver
          5994 MiB given to the printing process from OS
           990 MiB allocation reported by mallinfo(arena+hblkhd)
         50378 MiB available memory on the node where the printing process lives
     GPU memory used/free/total (MiB): 5168 / 11112 / 16280
------------------
     ethr =  2.29E-07,  avg # of iterations =  4.9

     negative rho (up, down):  9.039E-01 1.649E+00

     total cpu time spent up to now is     2061.3 secs

     WARNING: integrated charge=    84.00073913, expected=    84.00000000

     total energy              =   -2035.49150493 Ry
     estimated scf accuracy    <       0.00188499 Ry

     total magnetization       =    -0.00 Bohr mag/cell
     absolute magnetization    =     2.81 Bohr mag/cell
[tb_dev] Currently allocated     2.97E+01 Mbytes, locked:    0 /  17
[tb_pin] Currently allocated     0.00E+00 Mbytes, locked:    0 /   0

     iteration # 80     ecut=    60.00 Ry     beta= 0.20
     Davidson diagonalization with overlap

---- Real-time Memory Report at c_bands before calling an iterative solver
          5994 MiB given to the printing process from OS
           998 MiB allocation reported by mallinfo(arena+hblkhd)
         50369 MiB available memory on the node where the printing process lives
     GPU memory used/free/total (MiB): 5168 / 11112 / 16280
------------------
     ethr =  2.29E-07,  avg # of iterations =  5.0

     negative rho (up, down):  9.072E-01 1.641E+00

     total cpu time spent up to now is     2091.6 secs

     WARNING: integrated charge=    84.00072673, expected=    84.00000000

     total energy              =   -2035.49219214 Ry
     estimated scf accuracy    <       0.00818852 Ry

     total magnetization       =    -0.00 Bohr mag/cell
     absolute magnetization    =     2.88 Bohr mag/cell

     End of self-consistent calculation

     convergence NOT achieved after  80 iterations: stopping

     Writing config to output data dir ./out/aiida.save/
 
     init_run     :     37.53s CPU      7.75s WALL (       1 calls)
     electrons    :   3445.07s CPU   2082.82s WALL (       1 calls)

     Called by init_run:
     wfcinit      :      0.90s CPU      0.90s WALL (       1 calls)
                                        0.90s GPU  (       1 calls)
     potinit      :     20.38s CPU      2.10s WALL (       1 calls)
     hinit0       :      9.31s CPU      3.54s WALL (       1 calls)

     Called by electrons:
     c_bands      :   1548.23s CPU   1596.32s WALL (      80 calls)
     sum_band     :    328.39s CPU    343.11s WALL (      80 calls)
     v_of_rho     :     92.97s CPU      8.46s WALL (      81 calls)
     v_h          :     13.50s CPU      1.21s WALL (      81 calls)
     v_xc         :     79.45s CPU      7.24s WALL (      81 calls)
     newd         :    106.69s CPU     10.04s WALL (      81 calls)
                                       10.04s GPU  (      81 calls)
     PAW_pot      :   1267.96s CPU    114.67s WALL (      81 calls)
     mix_rho      :     77.26s CPU      8.03s WALL (      80 calls)

     Called by c_bands:
     init_us_2    :     58.47s CPU     73.61s WALL (   39680 calls)
     init_us_2:gp :     57.76s CPU     72.91s WALL (   39680 calls)
     cegterg      :   1327.42s CPU   1351.45s WALL (   19840 calls)

     Called by sum_band:
     sum_band:wei :      1.00s CPU      1.00s WALL (      80 calls)
                                        1.00s GPU  (      80 calls)
     sum_band:loo :    312.10s CPU    326.67s WALL (      80 calls)
                                      326.68s GPU  (      80 calls)
     sum_band:buf :     75.34s CPU     77.06s WALL (   19840 calls)
                                       76.93s GPU  (   19840 calls)
     sum_band:ini :     27.67s CPU     32.28s WALL (   19840 calls)
                                       32.17s GPU  (   19840 calls)
     sum_band:cal :      0.65s CPU      9.12s WALL (   19840 calls)
                                        7.64s GPU  (   19840 calls)
     sum_band:bec :      5.62s CPU      6.00s WALL (   19840 calls)
                                        5.86s GPU  (   19840 calls)
     addusdens    :      9.79s CPU      9.92s WALL (      80 calls)
                                        9.92s GPU  (      80 calls)
     addusd:skk   :      0.04s CPU      0.05s WALL (     240 calls)
                                        0.05s GPU  (     240 calls)

     Called by *egterg:
     cdiaghg      :    239.27s CPU    272.99s WALL (   74986 calls)
                                      272.48s GPU  (   74986 calls)
     cegterg:over :     23.83s CPU     24.73s WALL (   55394 calls)
     cegterg:upda :     26.99s CPU     28.77s WALL (   55394 calls)
     cegterg:last :     16.36s CPU     16.86s WALL (   33460 calls)
     h_psi        :    949.64s CPU    936.56s WALL (   75234 calls)
                                      935.19s GPU  (   75234 calls)
     s_psi        :     11.58s CPU     32.56s WALL (   75234 calls)
                                       29.79s GPU  (   75234 calls)
     g_psi        :      0.39s CPU      3.19s WALL (   55394 calls)
                                        2.83s GPU  (   55394 calls)

     Called by h_psi:
     h_psi:calbec :      2.75s CPU     25.04s WALL (   75234 calls)
                                       24.56s GPU  (   75234 calls)
     vloc_psi     :    878.71s CPU    866.76s WALL (   75234 calls)
                                      866.28s GPU  (   75234 calls)
     add_vuspsi   :     18.36s CPU     36.81s WALL (   75234 calls)
                                       36.33s GPU  (   75234 calls)

     General routines
     calbec       :      2.50s CPU      2.56s WALL (   95074 calls)
     fft          :      3.79s CPU      1.08s WALL (    2023 calls)
                                        0.82s GPU  (    1861 calls)
     ffts         :      0.42s CPU      0.14s WALL (     322 calls)
                                        0.03s GPU  (     160 calls)
     fftw         :      9.27s CPU    762.78s WALL (  472096 calls)
                                      758.20s GPU  (  472096 calls)
     interpolate  :     16.58s CPU      1.48s WALL (     162 calls)
     davcio       :      0.28s CPU      4.13s WALL (     514 calls)
 
     Parallel routines

     PAW routines
     PAW_pot      :   1267.96s CPU    114.67s WALL (      81 calls)
     PAW_symme    :      0.28s CPU      0.04s WALL (     160 calls)
 
     PWSCF        :  58m 5.97s CPU  34m54.83s WALL

 
   This run was terminated on:  21:47: 2  23Oct2023            

=------------------------------------------------------------------------------=
   JOB DONE.
=------------------------------------------------------------------------------=
