
     Program PWSCF v.7.2 starts on 23Oct2023 at 22: 0: 1 

     This program is part of the open-source Quantum ESPRESSO suite
     for quantum simulation of materials; please cite
         "P. Giannozzi et al., J. Phys.:Condens. Matter 21 395502 (2009);
         "P. Giannozzi et al., J. Phys.:Condens. Matter 29 465901 (2017);
         "P. Giannozzi et al., J. Chem. Phys. 152 154105 (2020);
          URL http://www.quantum-espresso.org", 
     in publications or presentations arising from this work. More details at
     http://www.quantum-espresso.org/quote

     Parallel version (MPI & OpenMP), running on      12 processor cores
     Number of MPI processes:                 1
     Threads/MPI process:                    12

     MPI processes distributed on     1 nodes
     60457 MiB available memory on the printing compute node when the environment starts
 
     Reading input from aiida.in

     Current dimensions of program PWSCF are:
     Max number of different atomic species (ntypx) = 10
     Max number of k-points (npk) =  40000
     Max angular momentum in pseudopotentials (lmaxx) =  4
     file Ba.pbesol-spn-kjpaw_psl.1.0.0.UPF: wavefunction(s)  5S 6S renormalized
     file O.pbesol-n-kjpaw_psl.0.1.UPF: wavefunction(s)  2P renormalized
     Message from routine setup:
     using ibrav=0 with symmetry is DISCOURAGED, use correct ibrav instead
 
     Subspace diagonalization in iterative solution of the eigenvalue problem:
     a serial algorithm will be used

 
     G-vector sticks info
     --------------------
     sticks:   dense  smooth     PW     G-vecs:    dense   smooth      PW
     Sum        2579    1285    389                87273    30827    5163
 
     Using Slab Decomposition
 


     bravais-lattice index     =            0
     lattice parameter (alat)  =       9.6610  a.u.
     unit-cell volume          =     646.5368 (a.u.)^3
     number of atoms/cell      =            7
     number of atomic types    =            4
     number of electrons       =        42.00
     number of Kohn-Sham states=           25
     kinetic-energy cutoff     =      50.0000  Ry
     charge density cutoff     =     400.0000  Ry
     scf convergence threshold =      1.4E-09
     mixing beta               =       0.1000
     number of iterations used =            8  plain     mixing
     Exchange-correlation= PBESOL
                           (   1   4  10   8   0   0   0)

     GPU acceleration is ACTIVE.


     GPU used by master process:

        Device Number: 0
        Device name: Tesla P100-PCIE-16GB
        Compute capability : 60
        Ratio of single to double precision performance  : 2
        Memory Clock Rate (KHz): 715000
        Memory Bus Width (bits): 4096
        Peak Memory Bandwidth (GB/s): 732.16

     celldm(1)=   9.660958  celldm(2)=   0.000000  celldm(3)=   0.000000
     celldm(4)=   0.000000  celldm(5)=   0.000000  celldm(6)=   0.000000

     crystal axes: (cart. coord. in units of alat)
               a(1) = (   0.864043   0.503417   0.000000 )  
               a(2) = (  -0.864043   0.503417   0.000000 )  
               a(3) = (  -0.564878   0.000000   0.824212 )  

     reciprocal axes: (cart. coord. in units 2 pi/alat)
               b(1) = (  0.578675  0.993212  0.396598 )  
               b(2) = ( -0.578675  0.993212 -0.396598 )  
               b(3) = (  0.000000 -0.000000  1.213280 )  


     PseudoPot. # 1 for Ba read from file:
     ./pseudo/Ba.pbesol-spn-kjpaw_psl.1.0.0.UPF
     MD5 check sum: f28c4a63d325c1a0d00fd3a4f19b8d73
     Pseudo is Projector augmented-wave + core cor, Zval = 10.0
     Generated using "atomic" code by A. Dal Corso  v.6.0 svn rev. 13079
     Shape of augmentation charge: PSQ
     Using radial grid of 1251 points,  7 beta functions with: 
                l(1) =   0
                l(2) =   0
                l(3) =   0
                l(4) =   1
                l(5) =   1
                l(6) =   2
                l(7) =   2
     Q(r) pseudized with 0 coefficients 


     PseudoPot. # 2 for Be read from file:
     ./pseudo/be_pbesol_v1.4.uspp.F.UPF
     MD5 check sum: 09f0a726f30643f9a0ebddd893618f5c
     Pseudo is Ultrasoft, Zval =  4.0
     Generated by new atomic code, or converted to UPF format
     Using radial grid of  769 points,  6 beta functions with: 
                l(1) =   0
                l(2) =   0
                l(3) =   0
                l(4) =   1
                l(5) =   1
                l(6) =   2
     Q(r) pseudized with 10 coefficients,  rinner =    1.000   1.000   1.000
                                                       1.000   1.000

     PseudoPot. # 3 for O  read from file:
     ./pseudo/O.pbesol-n-kjpaw_psl.0.1.UPF
     MD5 check sum: 81d73d1479e654e5638b0319f0d6c2c7
     Pseudo is Projector augmented-wave + core cor, Zval =  6.0
     Generated using "atomic" code by A. Dal Corso  v.6.0 svn rev. 13079
     Shape of augmentation charge: BESSEL
     Using radial grid of 1095 points,  4 beta functions with: 
                l(1) =   0
                l(2) =   0
                l(3) =   1
                l(4) =   1
     Q(r) pseudized with 0 coefficients 


     PseudoPot. # 4 for Si read from file:
     ./pseudo/Si.pbesol-n-rrkjus_psl.1.0.0.UPF
     MD5 check sum: c4212819de858c94c3a1644338846ac9
     Pseudo is Ultrasoft + core correction, Zval =  4.0
     Generated using "atomic" code by A. Dal Corso  v.6.0 svn rev. 13079
     Using radial grid of 1141 points,  6 beta functions with: 
                l(1) =   0
                l(2) =   0
                l(3) =   1
                l(4) =   1
                l(5) =   2
                l(6) =   2
     Q(r) pseudized with 0 coefficients 


     atomic species   valence    mass     pseudopotential
        Ba            10.00   137.32700     Ba( 1.00)
        Be             4.00     9.01218     Be( 1.00)
        O              6.00    15.99940     O ( 1.00)
        Si             4.00    28.08550     Si( 1.00)

     Starting magnetic structure 
     atomic species   magnetization
        Ba           0.100
        Be           0.100
        O            0.100
        Si           0.100

      2 Sym. Ops. (no inversion) found


                                    s                        frac. trans.

      isym =  1     identity                                     

 cryst.   s( 1) = (     1          0          0      )
                  (     0          1          0      )
                  (     0          0          1      )

 cart.    s( 1) = (  1.0000000 -0.0000000  0.0000000 )
                  (  0.0000000  1.0000000  0.0000000 )
                  (  0.0000000  0.0000000  1.0000000 )


      isym =  2     inv. 180 deg rotation - cart. axis [0,1,0]   

 cryst.   s( 2) = (     0         -1          0      )
                  (    -1          0          0      )
                  (     0          0          1      )

 cart.    s( 2) = (  1.0000000  0.0000000  0.0000000 )
                  (  0.0000000 -1.0000000  0.0000000 )
                  (  0.0000000  0.0000000  1.0000000 )


   Cartesian axes

     site n.     atom                  positions (alat units)
         1           Ba  tau(   1) = (   0.0000000   0.0000000  -0.0000000  )
         2           Be  tau(   2) = (   0.0214586  -0.0000000   0.6025814  )
         3           Si  tau(   3) = (   0.5835201  -0.0000000   0.3919128  )
         4           O   tau(   4) = (   0.7614232   0.2485875   0.4661743  )
         5           O   tau(   5) = (   0.7614232   0.7582472   0.4661743  )
         6           O   tau(   6) = (   0.5222028   0.0000000   0.0918172  )
         7           O   tau(   7) = (   0.3271608   0.0000000   0.5687887  )

   Crystallographic axes

     site n.     atom                  positions (cryst. coord.)
         1           Ba  tau(   1) = (  0.0000000  0.0000000  0.0000000  )
         2           Be  tau(   2) = (  0.2514000 -0.2514000  0.7311000  )
         3           Si  tau(   3) = (  0.4931000 -0.4931000  0.4755000  )
         4           O   tau(   4) = (  0.8724000 -0.3786000  0.5656000  )
         5           O   tau(   5) = (  1.3786000  0.1276000  0.5656000  )
         6           O   tau(   6) = (  0.3386000 -0.3386000  0.1114000  )
         7           O   tau(   7) = (  0.4149000 -0.4149000  0.6901000  )

     number of k points=   282  Marzari-Vanderbilt smearing, width (Ry)=  0.0100
                       cart. coord. in units 2pi/alat
        k(    1) = (   0.0000000   0.0000000   0.0000000), wk =   0.0010000
        k(    2) = (   0.0000000   0.0000000   0.1213280), wk =   0.0020000
        k(    3) = (   0.0000000   0.0000000   0.2426560), wk =   0.0020000
        k(    4) = (   0.0000000   0.0000000   0.3639840), wk =   0.0020000
        k(    5) = (   0.0000000   0.0000000   0.4853120), wk =   0.0020000
        k(    6) = (   0.0000000   0.0000000  -0.6066400), wk =   0.0010000
        k(    7) = (  -0.0578675   0.0993212  -0.0396598), wk =   0.0040000
        k(    8) = (  -0.0578675   0.0993212   0.0816682), wk =   0.0040000
        k(    9) = (  -0.0578675   0.0993212   0.2029962), wk =   0.0040000
        k(   10) = (  -0.0578675   0.0993212   0.3243242), wk =   0.0040000
        k(   11) = (  -0.0578675   0.0993212   0.4456522), wk =   0.0040000
        k(   12) = (  -0.0578675   0.0993212  -0.6462998), wk =   0.0040000
        k(   13) = (  -0.0578675   0.0993212  -0.5249718), wk =   0.0040000
        k(   14) = (  -0.0578675   0.0993212  -0.4036438), wk =   0.0040000
        k(   15) = (  -0.0578675   0.0993212  -0.2823158), wk =   0.0040000
        k(   16) = (  -0.0578675   0.0993212  -0.1609878), wk =   0.0040000
        k(   17) = (  -0.1157349   0.1986424  -0.0793196), wk =   0.0040000
        k(   18) = (  -0.1157349   0.1986424   0.0420085), wk =   0.0040000
        k(   19) = (  -0.1157349   0.1986424   0.1633365), wk =   0.0040000
        k(   20) = (  -0.1157349   0.1986424   0.2846645), wk =   0.0040000
        k(   21) = (  -0.1157349   0.1986424   0.4059925), wk =   0.0040000
        k(   22) = (  -0.1157349   0.1986424  -0.6859596), wk =   0.0040000
        k(   23) = (  -0.1157349   0.1986424  -0.5646316), wk =   0.0040000
        k(   24) = (  -0.1157349   0.1986424  -0.4433036), wk =   0.0040000
        k(   25) = (  -0.1157349   0.1986424  -0.3219756), wk =   0.0040000
        k(   26) = (  -0.1157349   0.1986424  -0.2006476), wk =   0.0040000
        k(   27) = (  -0.1736024   0.2979635  -0.1189793), wk =   0.0040000
        k(   28) = (  -0.1736024   0.2979635   0.0023487), wk =   0.0040000
        k(   29) = (  -0.1736024   0.2979635   0.1236767), wk =   0.0040000
        k(   30) = (  -0.1736024   0.2979635   0.2450047), wk =   0.0040000
        k(   31) = (  -0.1736024   0.2979635   0.3663327), wk =   0.0040000
        k(   32) = (  -0.1736024   0.2979635  -0.7256194), wk =   0.0040000
        k(   33) = (  -0.1736024   0.2979635  -0.6042914), wk =   0.0040000
        k(   34) = (  -0.1736024   0.2979635  -0.4829634), wk =   0.0040000
        k(   35) = (  -0.1736024   0.2979635  -0.3616353), wk =   0.0040000
        k(   36) = (  -0.1736024   0.2979635  -0.2403073), wk =   0.0040000
        k(   37) = (  -0.2314699   0.3972847  -0.1586391), wk =   0.0040000
        k(   38) = (  -0.2314699   0.3972847  -0.0373111), wk =   0.0040000
        k(   39) = (  -0.2314699   0.3972847   0.0840169), wk =   0.0040000
        k(   40) = (  -0.2314699   0.3972847   0.2053449), wk =   0.0040000
        k(   41) = (  -0.2314699   0.3972847   0.3266729), wk =   0.0040000
        k(   42) = (  -0.2314699   0.3972847  -0.7652791), wk =   0.0040000
        k(   43) = (  -0.2314699   0.3972847  -0.6439511), wk =   0.0040000
        k(   44) = (  -0.2314699   0.3972847  -0.5226231), wk =   0.0040000
        k(   45) = (  -0.2314699   0.3972847  -0.4012951), wk =   0.0040000
        k(   46) = (  -0.2314699   0.3972847  -0.2799671), wk =   0.0040000
        k(   47) = (   0.2893373  -0.4966059   0.1982989), wk =   0.0020000
        k(   48) = (   0.2893373  -0.4966059   0.3196269), wk =   0.0040000
        k(   49) = (   0.2893373  -0.4966059   0.4409549), wk =   0.0040000
        k(   50) = (   0.2893373  -0.4966059   0.5622829), wk =   0.0040000
        k(   51) = (   0.2893373  -0.4966059   0.6836109), wk =   0.0040000
        k(   52) = (   0.2893373  -0.4966059  -0.4083411), wk =   0.0020000
        k(   53) = (   0.0000000   0.1986424   0.0000000), wk =   0.0020000
        k(   54) = (   0.0000000   0.1986424   0.1213280), wk =   0.0040000
        k(   55) = (   0.0000000   0.1986424   0.2426560), wk =   0.0040000
        k(   56) = (   0.0000000   0.1986424   0.3639840), wk =   0.0040000
        k(   57) = (   0.0000000   0.1986424   0.4853120), wk =   0.0040000
        k(   58) = (   0.0000000   0.1986424  -0.6066400), wk =   0.0020000
        k(   59) = (  -0.0578675   0.2979635  -0.0396598), wk =   0.0040000
        k(   60) = (  -0.0578675   0.2979635   0.0816682), wk =   0.0040000
        k(   61) = (  -0.0578675   0.2979635   0.2029962), wk =   0.0040000
        k(   62) = (  -0.0578675   0.2979635   0.3243242), wk =   0.0040000
        k(   63) = (  -0.0578675   0.2979635   0.4456522), wk =   0.0040000
        k(   64) = (  -0.0578675   0.2979635  -0.6462998), wk =   0.0040000
        k(   65) = (  -0.0578675   0.2979635  -0.5249718), wk =   0.0040000
        k(   66) = (  -0.0578675   0.2979635  -0.4036438), wk =   0.0040000
        k(   67) = (  -0.0578675   0.2979635  -0.2823158), wk =   0.0040000
        k(   68) = (  -0.0578675   0.2979635  -0.1609878), wk =   0.0040000
        k(   69) = (  -0.1157349   0.3972847  -0.0793196), wk =   0.0040000
        k(   70) = (  -0.1157349   0.3972847   0.0420085), wk =   0.0040000
        k(   71) = (  -0.1157349   0.3972847   0.1633365), wk =   0.0040000
        k(   72) = (  -0.1157349   0.3972847   0.2846645), wk =   0.0040000
        k(   73) = (  -0.1157349   0.3972847   0.4059925), wk =   0.0040000
        k(   74) = (  -0.1157349   0.3972847  -0.6859596), wk =   0.0040000
        k(   75) = (  -0.1157349   0.3972847  -0.5646316), wk =   0.0040000
        k(   76) = (  -0.1157349   0.3972847  -0.4433036), wk =   0.0040000
        k(   77) = (  -0.1157349   0.3972847  -0.3219756), wk =   0.0040000
        k(   78) = (  -0.1157349   0.3972847  -0.2006476), wk =   0.0040000
        k(   79) = (  -0.1736024   0.4966059  -0.1189793), wk =   0.0040000
        k(   80) = (  -0.1736024   0.4966059   0.0023487), wk =   0.0040000
        k(   81) = (  -0.1736024   0.4966059   0.1236767), wk =   0.0040000
        k(   82) = (  -0.1736024   0.4966059   0.2450047), wk =   0.0040000
        k(   83) = (  -0.1736024   0.4966059   0.3663327), wk =   0.0040000
        k(   84) = (  -0.1736024   0.4966059  -0.7256194), wk =   0.0040000
        k(   85) = (  -0.1736024   0.4966059  -0.6042914), wk =   0.0040000
        k(   86) = (  -0.1736024   0.4966059  -0.4829634), wk =   0.0040000
        k(   87) = (  -0.1736024   0.4966059  -0.3616353), wk =   0.0040000
        k(   88) = (  -0.1736024   0.4966059  -0.2403073), wk =   0.0040000
        k(   89) = (   0.3472048  -0.3972847   0.2379587), wk =   0.0040000
        k(   90) = (   0.3472048  -0.3972847   0.3592867), wk =   0.0040000
        k(   91) = (   0.3472048  -0.3972847   0.4806147), wk =   0.0040000
        k(   92) = (   0.3472048  -0.3972847   0.6019427), wk =   0.0040000
        k(   93) = (   0.3472048  -0.3972847   0.7232707), wk =   0.0040000
        k(   94) = (   0.3472048  -0.3972847  -0.3686814), wk =   0.0040000
        k(   95) = (   0.3472048  -0.3972847  -0.2473534), wk =   0.0040000
        k(   96) = (   0.3472048  -0.3972847  -0.1260254), wk =   0.0040000
        k(   97) = (   0.3472048  -0.3972847  -0.0046973), wk =   0.0040000
        k(   98) = (   0.3472048  -0.3972847   0.1166307), wk =   0.0040000
        k(   99) = (   0.2893373  -0.2979635   0.1982989), wk =   0.0040000
        k(  100) = (   0.2893373  -0.2979635   0.3196269), wk =   0.0040000
        k(  101) = (   0.2893373  -0.2979635   0.4409549), wk =   0.0040000
        k(  102) = (   0.2893373  -0.2979635   0.5622829), wk =   0.0040000
        k(  103) = (   0.2893373  -0.2979635   0.6836109), wk =   0.0040000
        k(  104) = (   0.2893373  -0.2979635  -0.4083411), wk =   0.0040000
        k(  105) = (   0.2893373  -0.2979635  -0.2870131), wk =   0.0040000
        k(  106) = (   0.2893373  -0.2979635  -0.1656851), wk =   0.0040000
        k(  107) = (   0.2893373  -0.2979635  -0.0443571), wk =   0.0040000
        k(  108) = (   0.2893373  -0.2979635   0.0769709), wk =   0.0040000
        k(  109) = (   0.2314699  -0.1986424   0.1586391), wk =   0.0040000
        k(  110) = (   0.2314699  -0.1986424   0.2799671), wk =   0.0040000
        k(  111) = (   0.2314699  -0.1986424   0.4012951), wk =   0.0040000
        k(  112) = (   0.2314699  -0.1986424   0.5226231), wk =   0.0040000
        k(  113) = (   0.2314699  -0.1986424   0.6439511), wk =   0.0040000
        k(  114) = (   0.2314699  -0.1986424  -0.4480009), wk =   0.0040000
        k(  115) = (   0.2314699  -0.1986424  -0.3266729), wk =   0.0040000
        k(  116) = (   0.2314699  -0.1986424  -0.2053449), wk =   0.0040000
        k(  117) = (   0.2314699  -0.1986424  -0.0840169), wk =   0.0040000
        k(  118) = (   0.2314699  -0.1986424   0.0373111), wk =   0.0040000
        k(  119) = (   0.1736024  -0.0993212   0.1189793), wk =   0.0040000
        k(  120) = (   0.1736024  -0.0993212   0.2403073), wk =   0.0040000
        k(  121) = (   0.1736024  -0.0993212   0.3616353), wk =   0.0040000
        k(  122) = (   0.1736024  -0.0993212   0.4829634), wk =   0.0040000
        k(  123) = (   0.1736024  -0.0993212   0.6042914), wk =   0.0040000
        k(  124) = (   0.1736024  -0.0993212  -0.4876607), wk =   0.0040000
        k(  125) = (   0.1736024  -0.0993212  -0.3663327), wk =   0.0040000
        k(  126) = (   0.1736024  -0.0993212  -0.2450047), wk =   0.0040000
        k(  127) = (   0.1736024  -0.0993212  -0.1236767), wk =   0.0040000
        k(  128) = (   0.1736024  -0.0993212  -0.0023487), wk =   0.0040000
        k(  129) = (   0.1157349   0.0000000   0.0793196), wk =   0.0020000
        k(  130) = (   0.1157349   0.0000000   0.2006476), wk =   0.0020000
        k(  131) = (   0.1157349   0.0000000   0.3219756), wk =   0.0020000
        k(  132) = (   0.1157349   0.0000000   0.4433036), wk =   0.0020000
        k(  133) = (   0.1157349   0.0000000   0.5646316), wk =   0.0020000
        k(  134) = (   0.1157349   0.0000000  -0.5273205), wk =   0.0020000
        k(  135) = (   0.1157349   0.0000000  -0.4059925), wk =   0.0020000
        k(  136) = (   0.1157349   0.0000000  -0.2846645), wk =   0.0020000
        k(  137) = (   0.1157349   0.0000000  -0.1633365), wk =   0.0020000
        k(  138) = (   0.1157349   0.0000000  -0.0420085), wk =   0.0020000
        k(  139) = (   0.0000000   0.3972847   0.0000000), wk =   0.0020000
        k(  140) = (   0.0000000   0.3972847   0.1213280), wk =   0.0040000
        k(  141) = (   0.0000000   0.3972847   0.2426560), wk =   0.0040000
        k(  142) = (   0.0000000   0.3972847   0.3639840), wk =   0.0040000
        k(  143) = (   0.0000000   0.3972847   0.4853120), wk =   0.0040000
        k(  144) = (   0.0000000   0.3972847  -0.6066400), wk =   0.0020000
        k(  145) = (  -0.0578675   0.4966059  -0.0396598), wk =   0.0040000
        k(  146) = (  -0.0578675   0.4966059   0.0816682), wk =   0.0040000
        k(  147) = (  -0.0578675   0.4966059   0.2029962), wk =   0.0040000
        k(  148) = (  -0.0578675   0.4966059   0.3243242), wk =   0.0040000
        k(  149) = (  -0.0578675   0.4966059   0.4456522), wk =   0.0040000
        k(  150) = (  -0.0578675   0.4966059  -0.6462998), wk =   0.0040000
        k(  151) = (  -0.0578675   0.4966059  -0.5249718), wk =   0.0040000
        k(  152) = (  -0.0578675   0.4966059  -0.4036438), wk =   0.0040000
        k(  153) = (  -0.0578675   0.4966059  -0.2823158), wk =   0.0040000
        k(  154) = (  -0.0578675   0.4966059  -0.1609878), wk =   0.0040000
        k(  155) = (  -0.1157349   0.5959271  -0.0793196), wk =   0.0040000
        k(  156) = (  -0.1157349   0.5959271   0.0420085), wk =   0.0040000
        k(  157) = (  -0.1157349   0.5959271   0.1633365), wk =   0.0040000
        k(  158) = (  -0.1157349   0.5959271   0.2846645), wk =   0.0040000
        k(  159) = (  -0.1157349   0.5959271   0.4059925), wk =   0.0040000
        k(  160) = (  -0.1157349   0.5959271  -0.6859596), wk =   0.0040000
        k(  161) = (  -0.1157349   0.5959271  -0.5646316), wk =   0.0040000
        k(  162) = (  -0.1157349   0.5959271  -0.4433036), wk =   0.0040000
        k(  163) = (  -0.1157349   0.5959271  -0.3219756), wk =   0.0040000
        k(  164) = (  -0.1157349   0.5959271  -0.2006476), wk =   0.0040000
        k(  165) = (   0.4050722  -0.2979635   0.2776184), wk =   0.0040000
        k(  166) = (   0.4050722  -0.2979635   0.3989464), wk =   0.0040000
        k(  167) = (   0.4050722  -0.2979635   0.5202745), wk =   0.0040000
        k(  168) = (   0.4050722  -0.2979635   0.6416025), wk =   0.0040000
        k(  169) = (   0.4050722  -0.2979635   0.7629305), wk =   0.0040000
        k(  170) = (   0.4050722  -0.2979635  -0.3290216), wk =   0.0040000
        k(  171) = (   0.4050722  -0.2979635  -0.2076936), wk =   0.0040000
        k(  172) = (   0.4050722  -0.2979635  -0.0863656), wk =   0.0040000
        k(  173) = (   0.4050722  -0.2979635   0.0349624), wk =   0.0040000
        k(  174) = (   0.4050722  -0.2979635   0.1562904), wk =   0.0040000
        k(  175) = (   0.3472048  -0.1986424   0.2379587), wk =   0.0040000
        k(  176) = (   0.3472048  -0.1986424   0.3592867), wk =   0.0040000
        k(  177) = (   0.3472048  -0.1986424   0.4806147), wk =   0.0040000
        k(  178) = (   0.3472048  -0.1986424   0.6019427), wk =   0.0040000
        k(  179) = (   0.3472048  -0.1986424   0.7232707), wk =   0.0040000
        k(  180) = (   0.3472048  -0.1986424  -0.3686814), wk =   0.0040000
        k(  181) = (   0.3472048  -0.1986424  -0.2473534), wk =   0.0040000
        k(  182) = (   0.3472048  -0.1986424  -0.1260254), wk =   0.0040000
        k(  183) = (   0.3472048  -0.1986424  -0.0046973), wk =   0.0040000
        k(  184) = (   0.3472048  -0.1986424   0.1166307), wk =   0.0040000
        k(  185) = (   0.2893373  -0.0993212   0.1982989), wk =   0.0040000
        k(  186) = (   0.2893373  -0.0993212   0.3196269), wk =   0.0040000
        k(  187) = (   0.2893373  -0.0993212   0.4409549), wk =   0.0040000
        k(  188) = (   0.2893373  -0.0993212   0.5622829), wk =   0.0040000
        k(  189) = (   0.2893373  -0.0993212   0.6836109), wk =   0.0040000
        k(  190) = (   0.2893373  -0.0993212  -0.4083411), wk =   0.0040000
        k(  191) = (   0.2893373  -0.0993212  -0.2870131), wk =   0.0040000
        k(  192) = (   0.2893373  -0.0993212  -0.1656851), wk =   0.0040000
        k(  193) = (   0.2893373  -0.0993212  -0.0443571), wk =   0.0040000
        k(  194) = (   0.2893373  -0.0993212   0.0769709), wk =   0.0040000
        k(  195) = (   0.2314699   0.0000000   0.1586391), wk =   0.0020000
        k(  196) = (   0.2314699   0.0000000   0.2799671), wk =   0.0020000
        k(  197) = (   0.2314699   0.0000000   0.4012951), wk =   0.0020000
        k(  198) = (   0.2314699   0.0000000   0.5226231), wk =   0.0020000
        k(  199) = (   0.2314699   0.0000000   0.6439511), wk =   0.0020000
        k(  200) = (   0.2314699   0.0000000  -0.4480009), wk =   0.0020000
        k(  201) = (   0.2314699   0.0000000  -0.3266729), wk =   0.0020000
        k(  202) = (   0.2314699   0.0000000  -0.2053449), wk =   0.0020000
        k(  203) = (   0.2314699   0.0000000  -0.0840169), wk =   0.0020000
        k(  204) = (   0.2314699   0.0000000   0.0373111), wk =   0.0020000
        k(  205) = (   0.0000000   0.5959271  -0.0000000), wk =   0.0020000
        k(  206) = (   0.0000000   0.5959271   0.1213280), wk =   0.0040000
        k(  207) = (   0.0000000   0.5959271   0.2426560), wk =   0.0040000
        k(  208) = (   0.0000000   0.5959271   0.3639840), wk =   0.0040000
        k(  209) = (   0.0000000   0.5959271   0.4853120), wk =   0.0040000
        k(  210) = (   0.0000000   0.5959271  -0.6066400), wk =   0.0020000
        k(  211) = (  -0.0578675   0.6952482  -0.0396598), wk =   0.0040000
        k(  212) = (  -0.0578675   0.6952482   0.0816682), wk =   0.0040000
        k(  213) = (  -0.0578675   0.6952482   0.2029962), wk =   0.0040000
        k(  214) = (  -0.0578675   0.6952482   0.3243242), wk =   0.0040000
        k(  215) = (  -0.0578675   0.6952482   0.4456522), wk =   0.0040000
        k(  216) = (  -0.0578675   0.6952482  -0.6462998), wk =   0.0040000
        k(  217) = (  -0.0578675   0.6952482  -0.5249718), wk =   0.0040000
        k(  218) = (  -0.0578675   0.6952482  -0.4036438), wk =   0.0040000
        k(  219) = (  -0.0578675   0.6952482  -0.2823158), wk =   0.0040000
        k(  220) = (  -0.0578675   0.6952482  -0.1609878), wk =   0.0040000
        k(  221) = (   0.4629397  -0.1986424   0.3172782), wk =   0.0040000
        k(  222) = (   0.4629397  -0.1986424   0.4386062), wk =   0.0040000
        k(  223) = (   0.4629397  -0.1986424   0.5599342), wk =   0.0040000
        k(  224) = (   0.4629397  -0.1986424   0.6812622), wk =   0.0040000
        k(  225) = (   0.4629397  -0.1986424   0.8025902), wk =   0.0040000
        k(  226) = (   0.4629397  -0.1986424  -0.2893618), wk =   0.0040000
        k(  227) = (   0.4629397  -0.1986424  -0.1680338), wk =   0.0040000
        k(  228) = (   0.4629397  -0.1986424  -0.0467058), wk =   0.0040000
        k(  229) = (   0.4629397  -0.1986424   0.0746222), wk =   0.0040000
        k(  230) = (   0.4629397  -0.1986424   0.1959502), wk =   0.0040000
        k(  231) = (   0.4050722  -0.0993212   0.2776184), wk =   0.0040000
        k(  232) = (   0.4050722  -0.0993212   0.3989464), wk =   0.0040000
        k(  233) = (   0.4050722  -0.0993212   0.5202745), wk =   0.0040000
        k(  234) = (   0.4050722  -0.0993212   0.6416025), wk =   0.0040000
        k(  235) = (   0.4050722  -0.0993212   0.7629305), wk =   0.0040000
        k(  236) = (   0.4050722  -0.0993212  -0.3290216), wk =   0.0040000
        k(  237) = (   0.4050722  -0.0993212  -0.2076936), wk =   0.0040000
        k(  238) = (   0.4050722  -0.0993212  -0.0863656), wk =   0.0040000
        k(  239) = (   0.4050722  -0.0993212   0.0349624), wk =   0.0040000
        k(  240) = (   0.4050722  -0.0993212   0.1562904), wk =   0.0040000
        k(  241) = (   0.3472048  -0.0000000   0.2379587), wk =   0.0020000
        k(  242) = (   0.3472048  -0.0000000   0.3592867), wk =   0.0020000
        k(  243) = (   0.3472048  -0.0000000   0.4806147), wk =   0.0020000
        k(  244) = (   0.3472048  -0.0000000   0.6019427), wk =   0.0020000
        k(  245) = (   0.3472048  -0.0000000   0.7232707), wk =   0.0020000
        k(  246) = (   0.3472048  -0.0000000  -0.3686814), wk =   0.0020000
        k(  247) = (   0.3472048  -0.0000000  -0.2473534), wk =   0.0020000
        k(  248) = (   0.3472048  -0.0000000  -0.1260254), wk =   0.0020000
        k(  249) = (   0.3472048  -0.0000000  -0.0046973), wk =   0.0020000
        k(  250) = (   0.3472048  -0.0000000   0.1166307), wk =   0.0020000
        k(  251) = (   0.0000000   0.7945694   0.0000000), wk =   0.0020000
        k(  252) = (   0.0000000   0.7945694   0.1213280), wk =   0.0040000
        k(  253) = (   0.0000000   0.7945694   0.2426560), wk =   0.0040000
        k(  254) = (   0.0000000   0.7945694   0.3639840), wk =   0.0040000
        k(  255) = (   0.0000000   0.7945694   0.4853120), wk =   0.0040000
        k(  256) = (   0.0000000   0.7945694  -0.6066400), wk =   0.0020000
        k(  257) = (   0.5208072  -0.0993212   0.3569380), wk =   0.0040000
        k(  258) = (   0.5208072  -0.0993212   0.4782660), wk =   0.0040000
        k(  259) = (   0.5208072  -0.0993212   0.5995940), wk =   0.0040000
        k(  260) = (   0.5208072  -0.0993212   0.7209220), wk =   0.0040000
        k(  261) = (   0.5208072  -0.0993212   0.8422500), wk =   0.0040000
        k(  262) = (   0.5208072  -0.0993212  -0.2497020), wk =   0.0040000
        k(  263) = (   0.5208072  -0.0993212  -0.1283740), wk =   0.0040000
        k(  264) = (   0.5208072  -0.0993212  -0.0070460), wk =   0.0040000
        k(  265) = (   0.5208072  -0.0993212   0.1142820), wk =   0.0040000
        k(  266) = (   0.5208072  -0.0993212   0.2356100), wk =   0.0040000
        k(  267) = (   0.4629397  -0.0000000   0.3172782), wk =   0.0020000
        k(  268) = (   0.4629397  -0.0000000   0.4386062), wk =   0.0020000
        k(  269) = (   0.4629397  -0.0000000   0.5599342), wk =   0.0020000
        k(  270) = (   0.4629397  -0.0000000   0.6812622), wk =   0.0020000
        k(  271) = (   0.4629397  -0.0000000   0.8025902), wk =   0.0020000
        k(  272) = (   0.4629397  -0.0000000  -0.2893618), wk =   0.0020000
        k(  273) = (   0.4629397  -0.0000000  -0.1680338), wk =   0.0020000
        k(  274) = (   0.4629397  -0.0000000  -0.0467058), wk =   0.0020000
        k(  275) = (   0.4629397  -0.0000000   0.0746222), wk =   0.0020000
        k(  276) = (   0.4629397  -0.0000000   0.1959502), wk =   0.0020000
        k(  277) = (   0.0000000  -0.9932118   0.0000000), wk =   0.0010000
        k(  278) = (   0.0000000  -0.9932118   0.1213280), wk =   0.0020000
        k(  279) = (   0.0000000  -0.9932118   0.2426560), wk =   0.0020000
        k(  280) = (   0.0000000  -0.9932118   0.3639840), wk =   0.0020000
        k(  281) = (   0.0000000  -0.9932118   0.4853120), wk =   0.0020000
        k(  282) = (   0.0000000  -0.9932118  -0.6066400), wk =   0.0010000

                       cryst. coord.
        k(    1) = (   0.0000000   0.0000000   0.0000000), wk =   0.0010000
        k(    2) = (   0.0000000   0.0000000   0.1000000), wk =   0.0020000
        k(    3) = (   0.0000000   0.0000000   0.2000000), wk =   0.0020000
        k(    4) = (   0.0000000   0.0000000   0.3000000), wk =   0.0020000
        k(    5) = (   0.0000000   0.0000000   0.4000000), wk =   0.0020000
        k(    6) = (   0.0000000   0.0000000  -0.5000000), wk =   0.0010000
        k(    7) = (  -0.0000000   0.1000000   0.0000000), wk =   0.0040000
        k(    8) = (  -0.0000000   0.1000000   0.1000000), wk =   0.0040000
        k(    9) = (  -0.0000000   0.1000000   0.2000000), wk =   0.0040000
        k(   10) = (  -0.0000000   0.1000000   0.3000000), wk =   0.0040000
        k(   11) = (  -0.0000000   0.1000000   0.4000000), wk =   0.0040000
        k(   12) = (  -0.0000000   0.1000000  -0.5000000), wk =   0.0040000
        k(   13) = (  -0.0000000   0.1000000  -0.4000000), wk =   0.0040000
        k(   14) = (  -0.0000000   0.1000000  -0.3000000), wk =   0.0040000
        k(   15) = (  -0.0000000   0.1000000  -0.2000000), wk =   0.0040000
        k(   16) = (  -0.0000000   0.1000000  -0.1000000), wk =   0.0040000
        k(   17) = (  -0.0000000   0.2000000   0.0000000), wk =   0.0040000
        k(   18) = (  -0.0000000   0.2000000   0.1000000), wk =   0.0040000
        k(   19) = (  -0.0000000   0.2000000   0.2000000), wk =   0.0040000
        k(   20) = (  -0.0000000   0.2000000   0.3000000), wk =   0.0040000
        k(   21) = (  -0.0000000   0.2000000   0.4000000), wk =   0.0040000
        k(   22) = (  -0.0000000   0.2000000  -0.5000000), wk =   0.0040000
        k(   23) = (  -0.0000000   0.2000000  -0.4000000), wk =   0.0040000
        k(   24) = (  -0.0000000   0.2000000  -0.3000000), wk =   0.0040000
        k(   25) = (  -0.0000000   0.2000000  -0.2000000), wk =   0.0040000
        k(   26) = (  -0.0000000   0.2000000  -0.1000000), wk =   0.0040000
        k(   27) = (  -0.0000000   0.3000000   0.0000000), wk =   0.0040000
        k(   28) = (  -0.0000000   0.3000000   0.1000000), wk =   0.0040000
        k(   29) = (  -0.0000000   0.3000000   0.2000000), wk =   0.0040000
        k(   30) = (  -0.0000000   0.3000000   0.3000000), wk =   0.0040000
        k(   31) = (  -0.0000000   0.3000000   0.4000000), wk =   0.0040000
        k(   32) = (  -0.0000000   0.3000000  -0.5000000), wk =   0.0040000
        k(   33) = (  -0.0000000   0.3000000  -0.4000000), wk =   0.0040000
        k(   34) = (  -0.0000000   0.3000000  -0.3000000), wk =   0.0040000
        k(   35) = (  -0.0000000   0.3000000  -0.2000000), wk =   0.0040000
        k(   36) = (  -0.0000000   0.3000000  -0.1000000), wk =   0.0040000
        k(   37) = (  -0.0000000   0.4000000   0.0000000), wk =   0.0040000
        k(   38) = (  -0.0000000   0.4000000   0.1000000), wk =   0.0040000
        k(   39) = (  -0.0000000   0.4000000   0.2000000), wk =   0.0040000
        k(   40) = (  -0.0000000   0.4000000   0.3000000), wk =   0.0040000
        k(   41) = (  -0.0000000   0.4000000   0.4000000), wk =   0.0040000
        k(   42) = (  -0.0000000   0.4000000  -0.5000000), wk =   0.0040000
        k(   43) = (  -0.0000000   0.4000000  -0.4000000), wk =   0.0040000
        k(   44) = (  -0.0000000   0.4000000  -0.3000000), wk =   0.0040000
        k(   45) = (  -0.0000000   0.4000000  -0.2000000), wk =   0.0040000
        k(   46) = (  -0.0000000   0.4000000  -0.1000000), wk =   0.0040000
        k(   47) = (  -0.0000000  -0.5000000  -0.0000000), wk =   0.0020000
        k(   48) = (  -0.0000000  -0.5000000   0.1000000), wk =   0.0040000
        k(   49) = (  -0.0000000  -0.5000000   0.2000000), wk =   0.0040000
        k(   50) = (  -0.0000000  -0.5000000   0.3000000), wk =   0.0040000
        k(   51) = (  -0.0000000  -0.5000000   0.4000000), wk =   0.0040000
        k(   52) = (  -0.0000000  -0.5000000  -0.5000000), wk =   0.0020000
        k(   53) = (   0.1000000   0.1000000  -0.0000000), wk =   0.0020000
        k(   54) = (   0.1000000   0.1000000   0.1000000), wk =   0.0040000
        k(   55) = (   0.1000000   0.1000000   0.2000000), wk =   0.0040000
        k(   56) = (   0.1000000   0.1000000   0.3000000), wk =   0.0040000
        k(   57) = (   0.1000000   0.1000000   0.4000000), wk =   0.0040000
        k(   58) = (   0.1000000   0.1000000  -0.5000000), wk =   0.0020000
        k(   59) = (   0.1000000   0.2000000   0.0000000), wk =   0.0040000
        k(   60) = (   0.1000000   0.2000000   0.1000000), wk =   0.0040000
        k(   61) = (   0.1000000   0.2000000   0.2000000), wk =   0.0040000
        k(   62) = (   0.1000000   0.2000000   0.3000000), wk =   0.0040000
        k(   63) = (   0.1000000   0.2000000   0.4000000), wk =   0.0040000
        k(   64) = (   0.1000000   0.2000000  -0.5000000), wk =   0.0040000
        k(   65) = (   0.1000000   0.2000000  -0.4000000), wk =   0.0040000
        k(   66) = (   0.1000000   0.2000000  -0.3000000), wk =   0.0040000
        k(   67) = (   0.1000000   0.2000000  -0.2000000), wk =   0.0040000
        k(   68) = (   0.1000000   0.2000000  -0.1000000), wk =   0.0040000
        k(   69) = (   0.1000000   0.3000000   0.0000000), wk =   0.0040000
        k(   70) = (   0.1000000   0.3000000   0.1000000), wk =   0.0040000
        k(   71) = (   0.1000000   0.3000000   0.2000000), wk =   0.0040000
        k(   72) = (   0.1000000   0.3000000   0.3000000), wk =   0.0040000
        k(   73) = (   0.1000000   0.3000000   0.4000000), wk =   0.0040000
        k(   74) = (   0.1000000   0.3000000  -0.5000000), wk =   0.0040000
        k(   75) = (   0.1000000   0.3000000  -0.4000000), wk =   0.0040000
        k(   76) = (   0.1000000   0.3000000  -0.3000000), wk =   0.0040000
        k(   77) = (   0.1000000   0.3000000  -0.2000000), wk =   0.0040000
        k(   78) = (   0.1000000   0.3000000  -0.1000000), wk =   0.0040000
        k(   79) = (   0.1000000   0.4000000   0.0000000), wk =   0.0040000
        k(   80) = (   0.1000000   0.4000000   0.1000000), wk =   0.0040000
        k(   81) = (   0.1000000   0.4000000   0.2000000), wk =   0.0040000
        k(   82) = (   0.1000000   0.4000000   0.3000000), wk =   0.0040000
        k(   83) = (   0.1000000   0.4000000   0.4000000), wk =   0.0040000
        k(   84) = (   0.1000000   0.4000000  -0.5000000), wk =   0.0040000
        k(   85) = (   0.1000000   0.4000000  -0.4000000), wk =   0.0040000
        k(   86) = (   0.1000000   0.4000000  -0.3000000), wk =   0.0040000
        k(   87) = (   0.1000000   0.4000000  -0.2000000), wk =   0.0040000
        k(   88) = (   0.1000000   0.4000000  -0.1000000), wk =   0.0040000
        k(   89) = (   0.1000000  -0.5000000  -0.0000000), wk =   0.0040000
        k(   90) = (   0.1000000  -0.5000000   0.1000000), wk =   0.0040000
        k(   91) = (   0.1000000  -0.5000000   0.2000000), wk =   0.0040000
        k(   92) = (   0.1000000  -0.5000000   0.3000000), wk =   0.0040000
        k(   93) = (   0.1000000  -0.5000000   0.4000000), wk =   0.0040000
        k(   94) = (   0.1000000  -0.5000000  -0.5000000), wk =   0.0040000
        k(   95) = (   0.1000000  -0.5000000  -0.4000000), wk =   0.0040000
        k(   96) = (   0.1000000  -0.5000000  -0.3000000), wk =   0.0040000
        k(   97) = (   0.1000000  -0.5000000  -0.2000000), wk =   0.0040000
        k(   98) = (   0.1000000  -0.5000000  -0.1000000), wk =   0.0040000
        k(   99) = (   0.1000000  -0.4000000  -0.0000000), wk =   0.0040000
        k(  100) = (   0.1000000  -0.4000000   0.1000000), wk =   0.0040000
        k(  101) = (   0.1000000  -0.4000000   0.2000000), wk =   0.0040000
        k(  102) = (   0.1000000  -0.4000000   0.3000000), wk =   0.0040000
        k(  103) = (   0.1000000  -0.4000000   0.4000000), wk =   0.0040000
        k(  104) = (   0.1000000  -0.4000000  -0.5000000), wk =   0.0040000
        k(  105) = (   0.1000000  -0.4000000  -0.4000000), wk =   0.0040000
        k(  106) = (   0.1000000  -0.4000000  -0.3000000), wk =   0.0040000
        k(  107) = (   0.1000000  -0.4000000  -0.2000000), wk =   0.0040000
        k(  108) = (   0.1000000  -0.4000000  -0.1000000), wk =   0.0040000
        k(  109) = (   0.1000000  -0.3000000  -0.0000000), wk =   0.0040000
        k(  110) = (   0.1000000  -0.3000000   0.1000000), wk =   0.0040000
        k(  111) = (   0.1000000  -0.3000000   0.2000000), wk =   0.0040000
        k(  112) = (   0.1000000  -0.3000000   0.3000000), wk =   0.0040000
        k(  113) = (   0.1000000  -0.3000000   0.4000000), wk =   0.0040000
        k(  114) = (   0.1000000  -0.3000000  -0.5000000), wk =   0.0040000
        k(  115) = (   0.1000000  -0.3000000  -0.4000000), wk =   0.0040000
        k(  116) = (   0.1000000  -0.3000000  -0.3000000), wk =   0.0040000
        k(  117) = (   0.1000000  -0.3000000  -0.2000000), wk =   0.0040000
        k(  118) = (   0.1000000  -0.3000000  -0.1000000), wk =   0.0040000
        k(  119) = (   0.1000000  -0.2000000  -0.0000000), wk =   0.0040000
        k(  120) = (   0.1000000  -0.2000000   0.1000000), wk =   0.0040000
        k(  121) = (   0.1000000  -0.2000000   0.2000000), wk =   0.0040000
        k(  122) = (   0.1000000  -0.2000000   0.3000000), wk =   0.0040000
        k(  123) = (   0.1000000  -0.2000000   0.4000000), wk =   0.0040000
        k(  124) = (   0.1000000  -0.2000000  -0.5000000), wk =   0.0040000
        k(  125) = (   0.1000000  -0.2000000  -0.4000000), wk =   0.0040000
        k(  126) = (   0.1000000  -0.2000000  -0.3000000), wk =   0.0040000
        k(  127) = (   0.1000000  -0.2000000  -0.2000000), wk =   0.0040000
        k(  128) = (   0.1000000  -0.2000000  -0.1000000), wk =   0.0040000
        k(  129) = (   0.1000000  -0.1000000  -0.0000000), wk =   0.0020000
        k(  130) = (   0.1000000  -0.1000000   0.1000000), wk =   0.0020000
        k(  131) = (   0.1000000  -0.1000000   0.2000000), wk =   0.0020000
        k(  132) = (   0.1000000  -0.1000000   0.3000000), wk =   0.0020000
        k(  133) = (   0.1000000  -0.1000000   0.4000000), wk =   0.0020000
        k(  134) = (   0.1000000  -0.1000000  -0.5000000), wk =   0.0020000
        k(  135) = (   0.1000000  -0.1000000  -0.4000000), wk =   0.0020000
        k(  136) = (   0.1000000  -0.1000000  -0.3000000), wk =   0.0020000
        k(  137) = (   0.1000000  -0.1000000  -0.2000000), wk =   0.0020000
        k(  138) = (   0.1000000  -0.1000000  -0.1000000), wk =   0.0020000
        k(  139) = (   0.2000000   0.2000000  -0.0000000), wk =   0.0020000
        k(  140) = (   0.2000000   0.2000000   0.1000000), wk =   0.0040000
        k(  141) = (   0.2000000   0.2000000   0.2000000), wk =   0.0040000
        k(  142) = (   0.2000000   0.2000000   0.3000000), wk =   0.0040000
        k(  143) = (   0.2000000   0.2000000   0.4000000), wk =   0.0040000
        k(  144) = (   0.2000000   0.2000000  -0.5000000), wk =   0.0020000
        k(  145) = (   0.2000000   0.3000000  -0.0000000), wk =   0.0040000
        k(  146) = (   0.2000000   0.3000000   0.1000000), wk =   0.0040000
        k(  147) = (   0.2000000   0.3000000   0.2000000), wk =   0.0040000
        k(  148) = (   0.2000000   0.3000000   0.3000000), wk =   0.0040000
        k(  149) = (   0.2000000   0.3000000   0.4000000), wk =   0.0040000
        k(  150) = (   0.2000000   0.3000000  -0.5000000), wk =   0.0040000
        k(  151) = (   0.2000000   0.3000000  -0.4000000), wk =   0.0040000
        k(  152) = (   0.2000000   0.3000000  -0.3000000), wk =   0.0040000
        k(  153) = (   0.2000000   0.3000000  -0.2000000), wk =   0.0040000
        k(  154) = (   0.2000000   0.3000000  -0.1000000), wk =   0.0040000
        k(  155) = (   0.2000000   0.4000000   0.0000000), wk =   0.0040000
        k(  156) = (   0.2000000   0.4000000   0.1000000), wk =   0.0040000
        k(  157) = (   0.2000000   0.4000000   0.2000000), wk =   0.0040000
        k(  158) = (   0.2000000   0.4000000   0.3000000), wk =   0.0040000
        k(  159) = (   0.2000000   0.4000000   0.4000000), wk =   0.0040000
        k(  160) = (   0.2000000   0.4000000  -0.5000000), wk =   0.0040000
        k(  161) = (   0.2000000   0.4000000  -0.4000000), wk =   0.0040000
        k(  162) = (   0.2000000   0.4000000  -0.3000000), wk =   0.0040000
        k(  163) = (   0.2000000   0.4000000  -0.2000000), wk =   0.0040000
        k(  164) = (   0.2000000   0.4000000  -0.1000000), wk =   0.0040000
        k(  165) = (   0.2000000  -0.5000000   0.0000000), wk =   0.0040000
        k(  166) = (   0.2000000  -0.5000000   0.1000000), wk =   0.0040000
        k(  167) = (   0.2000000  -0.5000000   0.2000000), wk =   0.0040000
        k(  168) = (   0.2000000  -0.5000000   0.3000000), wk =   0.0040000
        k(  169) = (   0.2000000  -0.5000000   0.4000000), wk =   0.0040000
        k(  170) = (   0.2000000  -0.5000000  -0.5000000), wk =   0.0040000
        k(  171) = (   0.2000000  -0.5000000  -0.4000000), wk =   0.0040000
        k(  172) = (   0.2000000  -0.5000000  -0.3000000), wk =   0.0040000
        k(  173) = (   0.2000000  -0.5000000  -0.2000000), wk =   0.0040000
        k(  174) = (   0.2000000  -0.5000000  -0.1000000), wk =   0.0040000
        k(  175) = (   0.2000000  -0.4000000  -0.0000000), wk =   0.0040000
        k(  176) = (   0.2000000  -0.4000000   0.1000000), wk =   0.0040000
        k(  177) = (   0.2000000  -0.4000000   0.2000000), wk =   0.0040000
        k(  178) = (   0.2000000  -0.4000000   0.3000000), wk =   0.0040000
        k(  179) = (   0.2000000  -0.4000000   0.4000000), wk =   0.0040000
        k(  180) = (   0.2000000  -0.4000000  -0.5000000), wk =   0.0040000
        k(  181) = (   0.2000000  -0.4000000  -0.4000000), wk =   0.0040000
        k(  182) = (   0.2000000  -0.4000000  -0.3000000), wk =   0.0040000
        k(  183) = (   0.2000000  -0.4000000  -0.2000000), wk =   0.0040000
        k(  184) = (   0.2000000  -0.4000000  -0.1000000), wk =   0.0040000
        k(  185) = (   0.2000000  -0.3000000  -0.0000000), wk =   0.0040000
        k(  186) = (   0.2000000  -0.3000000   0.1000000), wk =   0.0040000
        k(  187) = (   0.2000000  -0.3000000   0.2000000), wk =   0.0040000
        k(  188) = (   0.2000000  -0.3000000   0.3000000), wk =   0.0040000
        k(  189) = (   0.2000000  -0.3000000   0.4000000), wk =   0.0040000
        k(  190) = (   0.2000000  -0.3000000  -0.5000000), wk =   0.0040000
        k(  191) = (   0.2000000  -0.3000000  -0.4000000), wk =   0.0040000
        k(  192) = (   0.2000000  -0.3000000  -0.3000000), wk =   0.0040000
        k(  193) = (   0.2000000  -0.3000000  -0.2000000), wk =   0.0040000
        k(  194) = (   0.2000000  -0.3000000  -0.1000000), wk =   0.0040000
        k(  195) = (   0.2000000  -0.2000000  -0.0000000), wk =   0.0020000
        k(  196) = (   0.2000000  -0.2000000   0.1000000), wk =   0.0020000
        k(  197) = (   0.2000000  -0.2000000   0.2000000), wk =   0.0020000
        k(  198) = (   0.2000000  -0.2000000   0.3000000), wk =   0.0020000
        k(  199) = (   0.2000000  -0.2000000   0.4000000), wk =   0.0020000
        k(  200) = (   0.2000000  -0.2000000  -0.5000000), wk =   0.0020000
        k(  201) = (   0.2000000  -0.2000000  -0.4000000), wk =   0.0020000
        k(  202) = (   0.2000000  -0.2000000  -0.3000000), wk =   0.0020000
        k(  203) = (   0.2000000  -0.2000000  -0.2000000), wk =   0.0020000
        k(  204) = (   0.2000000  -0.2000000  -0.1000000), wk =   0.0020000
        k(  205) = (   0.3000000   0.3000000  -0.0000000), wk =   0.0020000
        k(  206) = (   0.3000000   0.3000000   0.1000000), wk =   0.0040000
        k(  207) = (   0.3000000   0.3000000   0.2000000), wk =   0.0040000
        k(  208) = (   0.3000000   0.3000000   0.3000000), wk =   0.0040000
        k(  209) = (   0.3000000   0.3000000   0.4000000), wk =   0.0040000
        k(  210) = (   0.3000000   0.3000000  -0.5000000), wk =   0.0020000
        k(  211) = (   0.3000000   0.4000000  -0.0000000), wk =   0.0040000
        k(  212) = (   0.3000000   0.4000000   0.1000000), wk =   0.0040000
        k(  213) = (   0.3000000   0.4000000   0.2000000), wk =   0.0040000
        k(  214) = (   0.3000000   0.4000000   0.3000000), wk =   0.0040000
        k(  215) = (   0.3000000   0.4000000   0.4000000), wk =   0.0040000
        k(  216) = (   0.3000000   0.4000000  -0.5000000), wk =   0.0040000
        k(  217) = (   0.3000000   0.4000000  -0.4000000), wk =   0.0040000
        k(  218) = (   0.3000000   0.4000000  -0.3000000), wk =   0.0040000
        k(  219) = (   0.3000000   0.4000000  -0.2000000), wk =   0.0040000
        k(  220) = (   0.3000000   0.4000000  -0.1000000), wk =   0.0040000
        k(  221) = (   0.3000000  -0.5000000  -0.0000000), wk =   0.0040000
        k(  222) = (   0.3000000  -0.5000000   0.1000000), wk =   0.0040000
        k(  223) = (   0.3000000  -0.5000000   0.2000000), wk =   0.0040000
        k(  224) = (   0.3000000  -0.5000000   0.3000000), wk =   0.0040000
        k(  225) = (   0.3000000  -0.5000000   0.4000000), wk =   0.0040000
        k(  226) = (   0.3000000  -0.5000000  -0.5000000), wk =   0.0040000
        k(  227) = (   0.3000000  -0.5000000  -0.4000000), wk =   0.0040000
        k(  228) = (   0.3000000  -0.5000000  -0.3000000), wk =   0.0040000
        k(  229) = (   0.3000000  -0.5000000  -0.2000000), wk =   0.0040000
        k(  230) = (   0.3000000  -0.5000000  -0.1000000), wk =   0.0040000
        k(  231) = (   0.3000000  -0.4000000  -0.0000000), wk =   0.0040000
        k(  232) = (   0.3000000  -0.4000000   0.1000000), wk =   0.0040000
        k(  233) = (   0.3000000  -0.4000000   0.2000000), wk =   0.0040000
        k(  234) = (   0.3000000  -0.4000000   0.3000000), wk =   0.0040000
        k(  235) = (   0.3000000  -0.4000000   0.4000000), wk =   0.0040000
        k(  236) = (   0.3000000  -0.4000000  -0.5000000), wk =   0.0040000
        k(  237) = (   0.3000000  -0.4000000  -0.4000000), wk =   0.0040000
        k(  238) = (   0.3000000  -0.4000000  -0.3000000), wk =   0.0040000
        k(  239) = (   0.3000000  -0.4000000  -0.2000000), wk =   0.0040000
        k(  240) = (   0.3000000  -0.4000000  -0.1000000), wk =   0.0040000
        k(  241) = (   0.3000000  -0.3000000  -0.0000000), wk =   0.0020000
        k(  242) = (   0.3000000  -0.3000000   0.1000000), wk =   0.0020000
        k(  243) = (   0.3000000  -0.3000000   0.2000000), wk =   0.0020000
        k(  244) = (   0.3000000  -0.3000000   0.3000000), wk =   0.0020000
        k(  245) = (   0.3000000  -0.3000000   0.4000000), wk =   0.0020000
        k(  246) = (   0.3000000  -0.3000000  -0.5000000), wk =   0.0020000
        k(  247) = (   0.3000000  -0.3000000  -0.4000000), wk =   0.0020000
        k(  248) = (   0.3000000  -0.3000000  -0.3000000), wk =   0.0020000
        k(  249) = (   0.3000000  -0.3000000  -0.2000000), wk =   0.0020000
        k(  250) = (   0.3000000  -0.3000000  -0.1000000), wk =   0.0020000
        k(  251) = (   0.4000000   0.4000000  -0.0000000), wk =   0.0020000
        k(  252) = (   0.4000000   0.4000000   0.1000000), wk =   0.0040000
        k(  253) = (   0.4000000   0.4000000   0.2000000), wk =   0.0040000
        k(  254) = (   0.4000000   0.4000000   0.3000000), wk =   0.0040000
        k(  255) = (   0.4000000   0.4000000   0.4000000), wk =   0.0040000
        k(  256) = (   0.4000000   0.4000000  -0.5000000), wk =   0.0020000
        k(  257) = (   0.4000000  -0.5000000  -0.0000000), wk =   0.0040000
        k(  258) = (   0.4000000  -0.5000000   0.1000000), wk =   0.0040000
        k(  259) = (   0.4000000  -0.5000000   0.2000000), wk =   0.0040000
        k(  260) = (   0.4000000  -0.5000000   0.3000000), wk =   0.0040000
        k(  261) = (   0.4000000  -0.5000000   0.4000000), wk =   0.0040000
        k(  262) = (   0.4000000  -0.5000000  -0.5000000), wk =   0.0040000
        k(  263) = (   0.4000000  -0.5000000  -0.4000000), wk =   0.0040000
        k(  264) = (   0.4000000  -0.5000000  -0.3000000), wk =   0.0040000
        k(  265) = (   0.4000000  -0.5000000  -0.2000000), wk =   0.0040000
        k(  266) = (   0.4000000  -0.5000000  -0.1000000), wk =   0.0040000
        k(  267) = (   0.4000000  -0.4000000  -0.0000000), wk =   0.0020000
        k(  268) = (   0.4000000  -0.4000000   0.1000000), wk =   0.0020000
        k(  269) = (   0.4000000  -0.4000000   0.2000000), wk =   0.0020000
        k(  270) = (   0.4000000  -0.4000000   0.3000000), wk =   0.0020000
        k(  271) = (   0.4000000  -0.4000000   0.4000000), wk =   0.0020000
        k(  272) = (   0.4000000  -0.4000000  -0.5000000), wk =   0.0020000
        k(  273) = (   0.4000000  -0.4000000  -0.4000000), wk =   0.0020000
        k(  274) = (   0.4000000  -0.4000000  -0.3000000), wk =   0.0020000
        k(  275) = (   0.4000000  -0.4000000  -0.2000000), wk =   0.0020000
        k(  276) = (   0.4000000  -0.4000000  -0.1000000), wk =   0.0020000
        k(  277) = (  -0.5000000  -0.5000000   0.0000000), wk =   0.0010000
        k(  278) = (  -0.5000000  -0.5000000   0.1000000), wk =   0.0020000
        k(  279) = (  -0.5000000  -0.5000000   0.2000000), wk =   0.0020000
        k(  280) = (  -0.5000000  -0.5000000   0.3000000), wk =   0.0020000
        k(  281) = (  -0.5000000  -0.5000000   0.4000000), wk =   0.0020000
        k(  282) = (  -0.5000000  -0.5000000  -0.5000000), wk =   0.0010000

     Dense  grid:    87273 G-vectors     FFT dimensions: (  64,  64,  64)

     Smooth grid:    30827 G-vectors     FFT dimensions: (  45,  45,  45)

     Dynamical RAM for                 wfc:       1.47 MB

     Dynamical RAM for     wfc (w. buffer):     831.95 MB

     Dynamical RAM for           str. fact:       5.33 MB

     Dynamical RAM for           local pot:       0.00 MB

     Dynamical RAM for          nlocal pot:       4.89 MB

     Dynamical RAM for                qrad:       8.56 MB

     Dynamical RAM for          rho,v,vnew:      19.99 MB

     Dynamical RAM for               rhoin:       6.66 MB

     Dynamical RAM for            rho*nmix:      42.61 MB

     Dynamical RAM for           G-vectors:       5.23 MB

     Dynamical RAM for          h,s,v(r/c):       0.11 MB

     Dynamical RAM for          <psi|beta>:       0.03 MB

     Dynamical RAM for                 psi:       2.94 MB

     Dynamical RAM for                hpsi:       2.94 MB

     Dynamical RAM for                spsi:       2.94 MB

     Dynamical RAM for      wfcinit/wfcrot:       2.96 MB

     Dynamical RAM for           addusdens:     279.65 MB

     Dynamical RAM for          addusforce:     287.68 MB

     Dynamical RAM for         addusstress:     294.97 MB

     Estimated static dynamical RAM per process >     901.27 MB

     Estimated max dynamical RAM per process >       1.21 GB

     Atomic positions and unit cell read from directory:
     ./out/aiida.save/
 

     Check: negative core charge=   -0.000002
     Generating pointlists ...
     new r_m :   0.2187 (alat units)  2.1130 (a.u.) for type    1
     new r_m :   0.1269 (alat units)  1.2257 (a.u.) for type    2
     new r_m :   0.1263 (alat units)  1.2206 (a.u.) for type    3
     new r_m :   0.1263 (alat units)  1.2206 (a.u.) for type    4

     The initial density is read from file :
     ./out/aiida.save/charge-density


     negative rho (up, down):  6.426E-01 9.807E-01
     Starting wfcs from file
     Checking if some PAW data can be deallocated... 

     total cpu time spent up to now is        6.0 secs

     per-process dynamical memory:   452.3 Mb

     Self-consistent Calculation
[tb_dev] Currently allocated     5.34E-05 Mbytes, locked:    0 /   2
[tb_pin] Currently allocated     0.00E+00 Mbytes, locked:    0 /   0

     iteration #  1     ecut=    50.00 Ry     beta= 0.10
     Davidson diagonalization with overlap

---- Real-time Memory Report at c_bands before calling an iterative solver
           748 MiB given to the printing process from OS
           446 MiB allocation reported by mallinfo(arena+hblkhd)
         59035 MiB available memory on the node where the printing process lives
     GPU memory used/free/total (MiB): 856 / 15424 / 16280
------------------
     ethr =  1.00E-05,  avg # of iterations =  7.2

     negative rho (up, down):  7.206E-01 9.396E-01

     total cpu time spent up to now is       30.8 secs

     total energy              =    -634.65605970 Ry
     estimated scf accuracy    <       5.46907528 Ry

     total magnetization       =    -0.00 Bohr mag/cell
     absolute magnetization    =     3.16 Bohr mag/cell
[tb_dev] Currently allocated     6.71E+00 Mbytes, locked:    0 /  17
[tb_pin] Currently allocated     0.00E+00 Mbytes, locked:    0 /   0

     iteration #  2     ecut=    50.00 Ry     beta= 0.10
     Davidson diagonalization with overlap

---- Real-time Memory Report at c_bands before calling an iterative solver
          2115 MiB given to the printing process from OS
          1601 MiB allocation reported by mallinfo(arena+hblkhd)
         56525 MiB available memory on the node where the printing process lives
     GPU memory used/free/total (MiB): 1560 / 14720 / 16280
------------------
     ethr =  1.00E-02,  avg # of iterations =  1.6

     negative rho (up, down):  7.528E-01 9.544E-01

     total cpu time spent up to now is       40.9 secs

     total energy              =    -634.75237474 Ry
     estimated scf accuracy    <       0.43539155 Ry

     total magnetization       =     0.00 Bohr mag/cell
     absolute magnetization    =     0.43 Bohr mag/cell
[tb_dev] Currently allocated     6.71E+00 Mbytes, locked:    0 /  17
[tb_pin] Currently allocated     0.00E+00 Mbytes, locked:    0 /   0

     iteration #  3     ecut=    50.00 Ry     beta= 0.10
     Davidson diagonalization with overlap

---- Real-time Memory Report at c_bands before calling an iterative solver
          2280 MiB given to the printing process from OS
          1612 MiB allocation reported by mallinfo(arena+hblkhd)
         56515 MiB available memory on the node where the printing process lives
     GPU memory used/free/total (MiB): 1560 / 14720 / 16280
------------------
     ethr =  1.04E-03,  avg # of iterations =  3.0

     negative rho (up, down):  7.380E-01 9.031E-01

     total cpu time spent up to now is       53.9 secs

     total energy              =    -634.65193520 Ry
     estimated scf accuracy    <       2.17685336 Ry

     total magnetization       =    -0.00 Bohr mag/cell
     absolute magnetization    =     1.42 Bohr mag/cell
[tb_dev] Currently allocated     6.71E+00 Mbytes, locked:    0 /  17
[tb_pin] Currently allocated     0.00E+00 Mbytes, locked:    0 /   0

     iteration #  4     ecut=    50.00 Ry     beta= 0.10
     Davidson diagonalization with overlap

---- Real-time Memory Report at c_bands before calling an iterative solver
          2374 MiB given to the printing process from OS
          1624 MiB allocation reported by mallinfo(arena+hblkhd)
         56503 MiB available memory on the node where the printing process lives
     GPU memory used/free/total (MiB): 1560 / 14720 / 16280
------------------
     ethr =  1.04E-03,  avg # of iterations =  3.8

     negative rho (up, down):  7.550E-01 8.985E-01

     total cpu time spent up to now is       67.7 secs

     total energy              =    -634.76615987 Ry
     estimated scf accuracy    <       1.44623862 Ry

     total magnetization       =     0.00 Bohr mag/cell
     absolute magnetization    =     1.58 Bohr mag/cell
[tb_dev] Currently allocated     6.71E+00 Mbytes, locked:    0 /  17
[tb_pin] Currently allocated     0.00E+00 Mbytes, locked:    0 /   0

     iteration #  5     ecut=    50.00 Ry     beta= 0.10
     Davidson diagonalization with overlap

---- Real-time Memory Report at c_bands before calling an iterative solver
          2434 MiB given to the printing process from OS
          1635 MiB allocation reported by mallinfo(arena+hblkhd)
         56492 MiB available memory on the node where the printing process lives
     GPU memory used/free/total (MiB): 1560 / 14720 / 16280
------------------
     ethr =  1.04E-03,  avg # of iterations =  1.5

     negative rho (up, down):  7.642E-01 9.118E-01

     total cpu time spent up to now is       77.9 secs

     total energy              =    -634.70895084 Ry
     estimated scf accuracy    <       1.43721146 Ry

     total magnetization       =    -0.00 Bohr mag/cell
     absolute magnetization    =     1.12 Bohr mag/cell
[tb_dev] Currently allocated     6.71E+00 Mbytes, locked:    0 /  17
[tb_pin] Currently allocated     0.00E+00 Mbytes, locked:    0 /   0

     iteration #  6     ecut=    50.00 Ry     beta= 0.10
     Davidson diagonalization with overlap

---- Real-time Memory Report at c_bands before calling an iterative solver
          2495 MiB given to the printing process from OS
          1647 MiB allocation reported by mallinfo(arena+hblkhd)
         56477 MiB available memory on the node where the printing process lives
     GPU memory used/free/total (MiB): 1560 / 14720 / 16280
------------------
     ethr =  1.04E-03,  avg # of iterations =  2.5

     negative rho (up, down):  8.159E-01 9.274E-01

     total cpu time spent up to now is       89.6 secs

     total energy              =    -634.75535690 Ry
     estimated scf accuracy    <       0.45788141 Ry

     total magnetization       =    -0.00 Bohr mag/cell
     absolute magnetization    =     1.72 Bohr mag/cell
[tb_dev] Currently allocated     6.71E+00 Mbytes, locked:    0 /  17
[tb_pin] Currently allocated     0.00E+00 Mbytes, locked:    0 /   0

     iteration #  7     ecut=    50.00 Ry     beta= 0.10
     Davidson diagonalization with overlap

---- Real-time Memory Report at c_bands before calling an iterative solver
          2554 MiB given to the printing process from OS
          1659 MiB allocation reported by mallinfo(arena+hblkhd)
         56466 MiB available memory on the node where the printing process lives
     GPU memory used/free/total (MiB): 1560 / 14720 / 16280
------------------
     ethr =  1.04E-03,  avg # of iterations =  1.0

     negative rho (up, down):  8.243E-01 9.289E-01

     total cpu time spent up to now is       99.0 secs

     total energy              =    -634.75594303 Ry
     estimated scf accuracy    <       0.60250833 Ry

     total magnetization       =     0.00 Bohr mag/cell
     absolute magnetization    =     1.76 Bohr mag/cell
[tb_dev] Currently allocated     6.71E+00 Mbytes, locked:    0 /  17
[tb_pin] Currently allocated     0.00E+00 Mbytes, locked:    0 /   0

     iteration #  8     ecut=    50.00 Ry     beta= 0.10
     Davidson diagonalization with overlap

---- Real-time Memory Report at c_bands before calling an iterative solver
          2579 MiB given to the printing process from OS
          1670 MiB allocation reported by mallinfo(arena+hblkhd)
         56458 MiB available memory on the node where the printing process lives
     GPU memory used/free/total (MiB): 1560 / 14720 / 16280
------------------
     ethr =  1.04E-03,  avg # of iterations =  1.0

     negative rho (up, down):  8.049E-01 9.258E-01

     total cpu time spent up to now is      108.3 secs

     total energy              =    -634.76022006 Ry
     estimated scf accuracy    <       0.57526633 Ry

     total magnetization       =    -0.00 Bohr mag/cell
     absolute magnetization    =     1.67 Bohr mag/cell
[tb_dev] Currently allocated     6.71E+00 Mbytes, locked:    0 /  17
[tb_pin] Currently allocated     0.00E+00 Mbytes, locked:    0 /   0

     iteration #  9     ecut=    50.00 Ry     beta= 0.10
     Davidson diagonalization with overlap

---- Real-time Memory Report at c_bands before calling an iterative solver
          2592 MiB given to the printing process from OS
          1683 MiB allocation reported by mallinfo(arena+hblkhd)
         56445 MiB available memory on the node where the printing process lives
     GPU memory used/free/total (MiB): 1560 / 14720 / 16280
------------------
     ethr =  1.04E-03,  avg # of iterations =  1.3

     negative rho (up, down):  8.037E-01 9.242E-01

     total cpu time spent up to now is      118.1 secs

     total energy              =    -634.76144421 Ry
     estimated scf accuracy    <       0.78758618 Ry

     total magnetization       =    -0.00 Bohr mag/cell
     absolute magnetization    =     1.88 Bohr mag/cell
[tb_dev] Currently allocated     6.71E+00 Mbytes, locked:    0 /  17
[tb_pin] Currently allocated     0.00E+00 Mbytes, locked:    0 /   0

     iteration # 10     ecut=    50.00 Ry     beta= 0.10
     Davidson diagonalization with overlap

---- Real-time Memory Report at c_bands before calling an iterative solver
          2605 MiB given to the printing process from OS
          1695 MiB allocation reported by mallinfo(arena+hblkhd)
         56432 MiB available memory on the node where the printing process lives
     GPU memory used/free/total (MiB): 1560 / 14720 / 16280
------------------
     ethr =  1.04E-03,  avg # of iterations =  1.0

     negative rho (up, down):  7.843E-01 9.285E-01

     total cpu time spent up to now is      127.4 secs

     total energy              =    -634.76375658 Ry
     estimated scf accuracy    <       0.87711074 Ry

     total magnetization       =    -0.00 Bohr mag/cell
     absolute magnetization    =     1.93 Bohr mag/cell
[tb_dev] Currently allocated     6.71E+00 Mbytes, locked:    0 /  17
[tb_pin] Currently allocated     0.00E+00 Mbytes, locked:    0 /   0

     iteration # 11     ecut=    50.00 Ry     beta= 0.10
     Davidson diagonalization with overlap

---- Real-time Memory Report at c_bands before calling an iterative solver
          2615 MiB given to the printing process from OS
          1704 MiB allocation reported by mallinfo(arena+hblkhd)
         56424 MiB available memory on the node where the printing process lives
     GPU memory used/free/total (MiB): 1560 / 14720 / 16280
------------------
     ethr =  1.04E-03,  avg # of iterations =  1.5

     negative rho (up, down):  7.638E-01 9.209E-01

     total cpu time spent up to now is      137.6 secs

     total energy              =    -634.74787613 Ry
     estimated scf accuracy    <       1.17626232 Ry

     total magnetization       =    -0.00 Bohr mag/cell
     absolute magnetization    =     1.82 Bohr mag/cell
[tb_dev] Currently allocated     6.71E+00 Mbytes, locked:    0 /  17
[tb_pin] Currently allocated     0.00E+00 Mbytes, locked:    0 /   0

     iteration # 12     ecut=    50.00 Ry     beta= 0.10
     Davidson diagonalization with overlap

---- Real-time Memory Report at c_bands before calling an iterative solver
          2625 MiB given to the printing process from OS
          1713 MiB allocation reported by mallinfo(arena+hblkhd)
         56415 MiB available memory on the node where the printing process lives
     GPU memory used/free/total (MiB): 1560 / 14720 / 16280
------------------
     ethr =  1.04E-03,  avg # of iterations =  1.5

     negative rho (up, down):  7.727E-01 9.236E-01

     total cpu time spent up to now is      147.6 secs

     total energy              =    -634.75793238 Ry
     estimated scf accuracy    <       0.57747761 Ry

     total magnetization       =    -0.00 Bohr mag/cell
     absolute magnetization    =     1.35 Bohr mag/cell
[tb_dev] Currently allocated     6.71E+00 Mbytes, locked:    0 /  17
[tb_pin] Currently allocated     0.00E+00 Mbytes, locked:    0 /   0

     iteration # 13     ecut=    50.00 Ry     beta= 0.10
     Davidson diagonalization with overlap

---- Real-time Memory Report at c_bands before calling an iterative solver
          2634 MiB given to the printing process from OS
          1722 MiB allocation reported by mallinfo(arena+hblkhd)
         56407 MiB available memory on the node where the printing process lives
     GPU memory used/free/total (MiB): 1560 / 14720 / 16280
------------------
     ethr =  1.04E-03,  avg # of iterations =  1.1

     negative rho (up, down):  7.570E-01 9.313E-01

     total cpu time spent up to now is      157.1 secs

     total energy              =    -634.74917306 Ry
     estimated scf accuracy    <       0.80790249 Ry

     total magnetization       =     0.00 Bohr mag/cell
     absolute magnetization    =     1.09 Bohr mag/cell
[tb_dev] Currently allocated     6.71E+00 Mbytes, locked:    0 /  17
[tb_pin] Currently allocated     0.00E+00 Mbytes, locked:    0 /   0

     iteration # 14     ecut=    50.00 Ry     beta= 0.10
     Davidson diagonalization with overlap

---- Real-time Memory Report at c_bands before calling an iterative solver
          2643 MiB given to the printing process from OS
          1733 MiB allocation reported by mallinfo(arena+hblkhd)
         56395 MiB available memory on the node where the printing process lives
     GPU memory used/free/total (MiB): 1560 / 14720 / 16280
------------------
     ethr =  1.04E-03,  avg # of iterations =  1.2

     negative rho (up, down):  7.481E-01 9.322E-01

     total cpu time spent up to now is      166.9 secs

     total energy              =    -634.75072654 Ry
     estimated scf accuracy    <       0.46923196 Ry

     total magnetization       =    -0.00 Bohr mag/cell
     absolute magnetization    =     1.03 Bohr mag/cell
[tb_dev] Currently allocated     6.71E+00 Mbytes, locked:    0 /  17
[tb_pin] Currently allocated     0.00E+00 Mbytes, locked:    0 /   0

     iteration # 15     ecut=    50.00 Ry     beta= 0.10
     Davidson diagonalization with overlap

---- Real-time Memory Report at c_bands before calling an iterative solver
          2654 MiB given to the printing process from OS
          1744 MiB allocation reported by mallinfo(arena+hblkhd)
         56385 MiB available memory on the node where the printing process lives
     GPU memory used/free/total (MiB): 1560 / 14720 / 16280
------------------
     ethr =  1.04E-03,  avg # of iterations =  1.0

     negative rho (up, down):  7.643E-01 9.229E-01

     total cpu time spent up to now is      176.5 secs

     total energy              =    -634.75522346 Ry
     estimated scf accuracy    <       0.40456712 Ry

     total magnetization       =     0.00 Bohr mag/cell
     absolute magnetization    =     0.67 Bohr mag/cell
[tb_dev] Currently allocated     6.71E+00 Mbytes, locked:    0 /  17
[tb_pin] Currently allocated     0.00E+00 Mbytes, locked:    0 /   0

     iteration # 16     ecut=    50.00 Ry     beta= 0.10
     Davidson diagonalization with overlap

---- Real-time Memory Report at c_bands before calling an iterative solver
          2664 MiB given to the printing process from OS
          1753 MiB allocation reported by mallinfo(arena+hblkhd)
         56377 MiB available memory on the node where the printing process lives
     GPU memory used/free/total (MiB): 1560 / 14720 / 16280
------------------
     ethr =  9.63E-04,  avg # of iterations =  1.0

     negative rho (up, down):  8.185E-01 9.723E-01

     total cpu time spent up to now is      186.0 secs

     total energy              =    -634.75560518 Ry
     estimated scf accuracy    <       0.56174578 Ry

     total magnetization       =     0.00 Bohr mag/cell
     absolute magnetization    =     0.93 Bohr mag/cell
[tb_dev] Currently allocated     6.71E+00 Mbytes, locked:    0 /  17
[tb_pin] Currently allocated     0.00E+00 Mbytes, locked:    0 /   0

     iteration # 17     ecut=    50.00 Ry     beta= 0.10
     Davidson diagonalization with overlap

---- Real-time Memory Report at c_bands before calling an iterative solver
          2674 MiB given to the printing process from OS
          1763 MiB allocation reported by mallinfo(arena+hblkhd)
         56369 MiB available memory on the node where the printing process lives
     GPU memory used/free/total (MiB): 1560 / 14720 / 16280
------------------
     ethr =  9.63E-04,  avg # of iterations =  3.3

     negative rho (up, down):  7.664E-01 1.025E+00

     total cpu time spent up to now is      199.0 secs

     total energy              =    -634.80367156 Ry
     estimated scf accuracy    <       2.38352446 Ry

     total magnetization       =     0.00 Bohr mag/cell
     absolute magnetization    =     2.79 Bohr mag/cell
[tb_dev] Currently allocated     6.71E+00 Mbytes, locked:    0 /  17
[tb_pin] Currently allocated     0.00E+00 Mbytes, locked:    0 /   0

     iteration # 18     ecut=    50.00 Ry     beta= 0.10
     Davidson diagonalization with overlap

---- Real-time Memory Report at c_bands before calling an iterative solver
          2684 MiB given to the printing process from OS
          1778 MiB allocation reported by mallinfo(arena+hblkhd)
         56357 MiB available memory on the node where the printing process lives
     GPU memory used/free/total (MiB): 1560 / 14720 / 16280
------------------
     ethr =  9.63E-04,  avg # of iterations =  2.1

     negative rho (up, down):  7.612E-01 9.059E-01

     total cpu time spent up to now is      210.1 secs

     total energy              =    -634.75231973 Ry
     estimated scf accuracy    <       4.08500519 Ry

     total magnetization       =    -0.00 Bohr mag/cell
     absolute magnetization    =     2.67 Bohr mag/cell
[tb_dev] Currently allocated     6.71E+00 Mbytes, locked:    0 /  17
[tb_pin] Currently allocated     0.00E+00 Mbytes, locked:    0 /   0

     iteration # 19     ecut=    50.00 Ry     beta= 0.10
     Davidson diagonalization with overlap

---- Real-time Memory Report at c_bands before calling an iterative solver
          2695 MiB given to the printing process from OS
          1788 MiB allocation reported by mallinfo(arena+hblkhd)
         56345 MiB available memory on the node where the printing process lives
     GPU memory used/free/total (MiB): 1560 / 14720 / 16280
------------------
     ethr =  9.63E-04,  avg # of iterations =  3.0

     negative rho (up, down):  7.597E-01 9.077E-01

     total cpu time spent up to now is      222.4 secs

     total energy              =    -634.77404717 Ry
     estimated scf accuracy    <       1.57417581 Ry

     total magnetization       =    -0.00 Bohr mag/cell
     absolute magnetization    =     0.95 Bohr mag/cell
[tb_dev] Currently allocated     6.71E+00 Mbytes, locked:    0 /  17
[tb_pin] Currently allocated     0.00E+00 Mbytes, locked:    0 /   0

     iteration # 20     ecut=    50.00 Ry     beta= 0.10
     Davidson diagonalization with overlap

---- Real-time Memory Report at c_bands before calling an iterative solver
          2706 MiB given to the printing process from OS
          1797 MiB allocation reported by mallinfo(arena+hblkhd)
         56335 MiB available memory on the node where the printing process lives
     GPU memory used/free/total (MiB): 1560 / 14720 / 16280
------------------
     ethr =  9.63E-04,  avg # of iterations =  1.0

     negative rho (up, down):  7.669E-01 8.946E-01

     total cpu time spent up to now is      231.9 secs

     total energy              =    -634.76869681 Ry
     estimated scf accuracy    <       1.81685538 Ry

     total magnetization       =    -0.00 Bohr mag/cell
     absolute magnetization    =     0.76 Bohr mag/cell
[tb_dev] Currently allocated     6.71E+00 Mbytes, locked:    0 /  17
[tb_pin] Currently allocated     0.00E+00 Mbytes, locked:    0 /   0

     iteration # 21     ecut=    50.00 Ry     beta= 0.10
     Davidson diagonalization with overlap

---- Real-time Memory Report at c_bands before calling an iterative solver
          2714 MiB given to the printing process from OS
          1807 MiB allocation reported by mallinfo(arena+hblkhd)
         56325 MiB available memory on the node where the printing process lives
     GPU memory used/free/total (MiB): 1560 / 14720 / 16280
------------------
     ethr =  9.63E-04,  avg # of iterations =  1.0

     negative rho (up, down):  7.466E-01 9.313E-01

     total cpu time spent up to now is      241.3 secs

     total energy              =    -634.77363058 Ry
     estimated scf accuracy    <       1.59403279 Ry

     total magnetization       =     0.00 Bohr mag/cell
     absolute magnetization    =     0.93 Bohr mag/cell
[tb_dev] Currently allocated     6.71E+00 Mbytes, locked:    0 /  17
[tb_pin] Currently allocated     0.00E+00 Mbytes, locked:    0 /   0

     iteration # 22     ecut=    50.00 Ry     beta= 0.10
     Davidson diagonalization with overlap

---- Real-time Memory Report at c_bands before calling an iterative solver
          2725 MiB given to the printing process from OS
          1816 MiB allocation reported by mallinfo(arena+hblkhd)
         56317 MiB available memory on the node where the printing process lives
     GPU memory used/free/total (MiB): 1560 / 14720 / 16280
------------------
     ethr =  9.63E-04,  avg # of iterations =  1.0

     negative rho (up, down):  7.341E-01 9.586E-01

     total cpu time spent up to now is      250.7 secs

     total energy              =    -634.76868693 Ry
     estimated scf accuracy    <       1.90882406 Ry

     total magnetization       =    -0.00 Bohr mag/cell
     absolute magnetization    =     0.70 Bohr mag/cell
[tb_dev] Currently allocated     6.71E+00 Mbytes, locked:    0 /  17
[tb_pin] Currently allocated     0.00E+00 Mbytes, locked:    0 /   0

     iteration # 23     ecut=    50.00 Ry     beta= 0.10
     Davidson diagonalization with overlap

---- Real-time Memory Report at c_bands before calling an iterative solver
          2738 MiB given to the printing process from OS
          1827 MiB allocation reported by mallinfo(arena+hblkhd)
         56302 MiB available memory on the node where the printing process lives
     GPU memory used/free/total (MiB): 1560 / 14720 / 16280
------------------
     ethr =  9.63E-04,  avg # of iterations =  1.5

     negative rho (up, down):  7.765E-01 8.809E-01

     total cpu time spent up to now is      261.1 secs

     total energy              =    -634.75390900 Ry
     estimated scf accuracy    <       1.86166049 Ry

     total magnetization       =     0.00 Bohr mag/cell
     absolute magnetization    =     0.94 Bohr mag/cell
[tb_dev] Currently allocated     6.71E+00 Mbytes, locked:    0 /  17
[tb_pin] Currently allocated     0.00E+00 Mbytes, locked:    0 /   0

     iteration # 24     ecut=    50.00 Ry     beta= 0.10
     Davidson diagonalization with overlap

---- Real-time Memory Report at c_bands before calling an iterative solver
          2746 MiB given to the printing process from OS
          1836 MiB allocation reported by mallinfo(arena+hblkhd)
         56297 MiB available memory on the node where the printing process lives
     GPU memory used/free/total (MiB): 1560 / 14720 / 16280
------------------
     ethr =  9.63E-04,  avg # of iterations =  2.0

     negative rho (up, down):  7.702E-01 8.567E-01

     total cpu time spent up to now is      272.1 secs

     total energy              =    -634.76087272 Ry
     estimated scf accuracy    <       1.30556725 Ry

     total magnetization       =     0.00 Bohr mag/cell
     absolute magnetization    =     1.11 Bohr mag/cell
[tb_dev] Currently allocated     6.71E+00 Mbytes, locked:    0 /  17
[tb_pin] Currently allocated     0.00E+00 Mbytes, locked:    0 /   0

     iteration # 25     ecut=    50.00 Ry     beta= 0.10
     Davidson diagonalization with overlap

---- Real-time Memory Report at c_bands before calling an iterative solver
          2756 MiB given to the printing process from OS
          1846 MiB allocation reported by mallinfo(arena+hblkhd)
         56287 MiB available memory on the node where the printing process lives
     GPU memory used/free/total (MiB): 1560 / 14720 / 16280
------------------
     ethr =  9.63E-04,  avg # of iterations =  1.0

     negative rho (up, down):  7.973E-01 8.372E-01

     total cpu time spent up to now is      281.5 secs

     total energy              =    -634.76523516 Ry
     estimated scf accuracy    <       1.20129561 Ry

     total magnetization       =    -0.00 Bohr mag/cell
     absolute magnetization    =     1.11 Bohr mag/cell
[tb_dev] Currently allocated     6.71E+00 Mbytes, locked:    0 /  17
[tb_pin] Currently allocated     0.00E+00 Mbytes, locked:    0 /   0

     iteration # 26     ecut=    50.00 Ry     beta= 0.10
     Davidson diagonalization with overlap

---- Real-time Memory Report at c_bands before calling an iterative solver
          2766 MiB given to the printing process from OS
          1857 MiB allocation reported by mallinfo(arena+hblkhd)
         56275 MiB available memory on the node where the printing process lives
     GPU memory used/free/total (MiB): 1560 / 14720 / 16280
------------------
     ethr =  9.63E-04,  avg # of iterations =  2.0

     negative rho (up, down):  7.386E-01 8.540E-01

     total cpu time spent up to now is      292.4 secs

     total energy              =    -634.75102464 Ry
     estimated scf accuracy    <       1.47753110 Ry

     total magnetization       =    -0.00 Bohr mag/cell
     absolute magnetization    =     1.94 Bohr mag/cell
[tb_dev] Currently allocated     6.71E+00 Mbytes, locked:    0 /  17
[tb_pin] Currently allocated     0.00E+00 Mbytes, locked:    0 /   0

     iteration # 27     ecut=    50.00 Ry     beta= 0.10
     Davidson diagonalization with overlap

---- Real-time Memory Report at c_bands before calling an iterative solver
          2776 MiB given to the printing process from OS
          1867 MiB allocation reported by mallinfo(arena+hblkhd)
         56243 MiB available memory on the node where the printing process lives
     GPU memory used/free/total (MiB): 1560 / 14720 / 16280
------------------
     ethr =  9.63E-04,  avg # of iterations =  2.0

     negative rho (up, down):  7.042E-01 8.622E-01

     total cpu time spent up to now is      303.8 secs

     total energy              =    -634.72695684 Ry
     estimated scf accuracy    <       1.43988790 Ry

     total magnetization       =    -0.00 Bohr mag/cell
     absolute magnetization    =     0.78 Bohr mag/cell
[tb_dev] Currently allocated     6.71E+00 Mbytes, locked:    0 /  17
[...]
     GPU memory used/free/total (MiB): 1560 / 14720 / 16280
------------------
     ethr =  8.52E-04,  avg # of iterations =  1.5

     negative rho (up, down):  7.049E-01 8.980E-01

     total cpu time spent up to now is      740.3 secs

     total energy              =    -634.76796297 Ry
     estimated scf accuracy    <       0.99243265 Ry

     total magnetization       =    -0.00 Bohr mag/cell
     absolute magnetization    =     1.37 Bohr mag/cell
[tb_dev] Currently allocated     6.71E+00 Mbytes, locked:    0 /  17
[tb_pin] Currently allocated     0.00E+00 Mbytes, locked:    0 /   0

     iteration # 66     ecut=    50.00 Ry     beta= 0.10
     Davidson diagonalization with overlap

---- Real-time Memory Report at c_bands before calling an iterative solver
          3181 MiB given to the printing process from OS
         -1824 MiB allocation reported by mallinfo(arena+hblkhd)
         55861 MiB available memory on the node where the printing process lives
     GPU memory used/free/total (MiB): 1560 / 14720 / 16280
------------------
     ethr =  8.52E-04,  avg # of iterations =  1.0

     negative rho (up, down):  6.094E-01 9.366E-01

     total cpu time spent up to now is      749.8 secs

     total energy              =    -634.75858865 Ry
     estimated scf accuracy    <       1.08119750 Ry

     total magnetization       =    -0.00 Bohr mag/cell
     absolute magnetization    =     1.51 Bohr mag/cell
[tb_dev] Currently allocated     6.71E+00 Mbytes, locked:    0 /  17
[tb_pin] Currently allocated     0.00E+00 Mbytes, locked:    0 /   0

     iteration # 67     ecut=    50.00 Ry     beta= 0.10
     Davidson diagonalization with overlap

---- Real-time Memory Report at c_bands before calling an iterative solver
          3192 MiB given to the printing process from OS
         -1813 MiB allocation reported by mallinfo(arena+hblkhd)
         55846 MiB available memory on the node where the printing process lives
     GPU memory used/free/total (MiB): 1560 / 14720 / 16280
------------------
     ethr =  8.52E-04,  avg # of iterations =  2.0

     negative rho (up, down):  6.532E-01 9.103E-01

     total cpu time spent up to now is      760.7 secs

     total energy              =    -634.77898865 Ry
     estimated scf accuracy    <       1.76105604 Ry

     total magnetization       =     0.00 Bohr mag/cell
     absolute magnetization    =     1.95 Bohr mag/cell
[tb_dev] Currently allocated     6.71E+00 Mbytes, locked:    0 /  17
[tb_pin] Currently allocated     0.00E+00 Mbytes, locked:    0 /   0

     iteration # 68     ecut=    50.00 Ry     beta= 0.10
     Davidson diagonalization with overlap

---- Real-time Memory Report at c_bands before calling an iterative solver
          3202 MiB given to the printing process from OS
         -1803 MiB allocation reported by mallinfo(arena+hblkhd)
         55809 MiB available memory on the node where the printing process lives
     GPU memory used/free/total (MiB): 1560 / 14720 / 16280
------------------
     ethr =  8.52E-04,  avg # of iterations =  1.8

     negative rho (up, down):  6.623E-01 9.099E-01

     total cpu time spent up to now is      771.4 secs

     total energy              =    -634.79230082 Ry
     estimated scf accuracy    <       2.29757354 Ry

     total magnetization       =     0.00 Bohr mag/cell
     absolute magnetization    =     2.71 Bohr mag/cell
[tb_dev] Currently allocated     6.71E+00 Mbytes, locked:    0 /  17
[tb_pin] Currently allocated     0.00E+00 Mbytes, locked:    0 /   0

     iteration # 69     ecut=    50.00 Ry     beta= 0.10
     Davidson diagonalization with overlap

---- Real-time Memory Report at c_bands before calling an iterative solver
          3212 MiB given to the printing process from OS
         -1793 MiB allocation reported by mallinfo(arena+hblkhd)
         55810 MiB available memory on the node where the printing process lives
     GPU memory used/free/total (MiB): 1560 / 14720 / 16280
------------------
     ethr =  8.52E-04,  avg # of iterations =  1.0

     negative rho (up, down):  6.873E-01 8.949E-01

     total cpu time spent up to now is      780.8 secs

     total energy              =    -634.77806260 Ry
     estimated scf accuracy    <       2.64425086 Ry

     total magnetization       =    -0.00 Bohr mag/cell
     absolute magnetization    =     2.98 Bohr mag/cell
[tb_dev] Currently allocated     6.71E+00 Mbytes, locked:    0 /  17
[tb_pin] Currently allocated     0.00E+00 Mbytes, locked:    0 /   0

     iteration # 70     ecut=    50.00 Ry     beta= 0.10
     Davidson diagonalization with overlap

---- Real-time Memory Report at c_bands before calling an iterative solver
          3224 MiB given to the printing process from OS
         -1781 MiB allocation reported by mallinfo(arena+hblkhd)
         55804 MiB available memory on the node where the printing process lives
     GPU memory used/free/total (MiB): 1560 / 14720 / 16280
------------------
     ethr =  8.52E-04,  avg # of iterations =  1.0

     negative rho (up, down):  6.838E-01 8.821E-01

     total cpu time spent up to now is      790.2 secs

     total energy              =    -634.79315010 Ry
     estimated scf accuracy    <       2.24461828 Ry

     total magnetization       =    -0.00 Bohr mag/cell
     absolute magnetization    =     2.69 Bohr mag/cell
[tb_dev] Currently allocated     6.71E+00 Mbytes, locked:    0 /  17
[tb_pin] Currently allocated     0.00E+00 Mbytes, locked:    0 /   0

     iteration # 71     ecut=    50.00 Ry     beta= 0.10
     Davidson diagonalization with overlap

---- Real-time Memory Report at c_bands before calling an iterative solver
          3233 MiB given to the printing process from OS
         -1772 MiB allocation reported by mallinfo(arena+hblkhd)
         55801 MiB available memory on the node where the printing process lives
     GPU memory used/free/total (MiB): 1560 / 14720 / 16280
------------------
     ethr =  8.52E-04,  avg # of iterations =  1.3

     negative rho (up, down):  6.808E-01 8.769E-01

     total cpu time spent up to now is      800.0 secs

     total energy              =    -634.80751233 Ry
     estimated scf accuracy    <       2.92069395 Ry

     total magnetization       =    -0.00 Bohr mag/cell
     absolute magnetization    =     3.10 Bohr mag/cell
[tb_dev] Currently allocated     6.71E+00 Mbytes, locked:    0 /  17
[tb_pin] Currently allocated     0.00E+00 Mbytes, locked:    0 /   0

     iteration # 72     ecut=    50.00 Ry     beta= 0.10
     Davidson diagonalization with overlap

---- Real-time Memory Report at c_bands before calling an iterative solver
          3243 MiB given to the printing process from OS
         -1761 MiB allocation reported by mallinfo(arena+hblkhd)
         55789 MiB available memory on the node where the printing process lives
     GPU memory used/free/total (MiB): 1560 / 14720 / 16280
------------------
     ethr =  8.52E-04,  avg # of iterations =  1.6

     negative rho (up, down):  6.770E-01 8.806E-01

     total cpu time spent up to now is      810.2 secs

     total energy              =    -634.80004723 Ry
     estimated scf accuracy    <       4.07276184 Ry

     total magnetization       =     0.00 Bohr mag/cell
     absolute magnetization    =     3.67 Bohr mag/cell
[tb_dev] Currently allocated     6.71E+00 Mbytes, locked:    0 /  17
[tb_pin] Currently allocated     0.00E+00 Mbytes, locked:    0 /   0

     iteration # 73     ecut=    50.00 Ry     beta= 0.10
     Davidson diagonalization with overlap

---- Real-time Memory Report at c_bands before calling an iterative solver
          3254 MiB given to the printing process from OS
         -1751 MiB allocation reported by mallinfo(arena+hblkhd)
         55783 MiB available memory on the node where the printing process lives
     GPU memory used/free/total (MiB): 1560 / 14720 / 16280
------------------
     ethr =  8.52E-04,  avg # of iterations =  1.0

     negative rho (up, down):  7.164E-01 8.484E-01

     total cpu time spent up to now is      819.6 secs

     total energy              =    -634.79363196 Ry
     estimated scf accuracy    <       3.88985269 Ry

     total magnetization       =    -0.00 Bohr mag/cell
     absolute magnetization    =     3.59 Bohr mag/cell
[tb_dev] Currently allocated     6.71E+00 Mbytes, locked:    0 /  17
[tb_pin] Currently allocated     0.00E+00 Mbytes, locked:    0 /   0

     iteration # 74     ecut=    50.00 Ry     beta= 0.10
     Davidson diagonalization with overlap

---- Real-time Memory Report at c_bands before calling an iterative solver
          3265 MiB given to the printing process from OS
         -1741 MiB allocation reported by mallinfo(arena+hblkhd)
         55769 MiB available memory on the node where the printing process lives
     GPU memory used/free/total (MiB): 1560 / 14720 / 16280
------------------
     ethr =  8.52E-04,  avg # of iterations =  1.5

     negative rho (up, down):  7.314E-01 8.438E-01

     total cpu time spent up to now is      829.8 secs

     total energy              =    -634.79625331 Ry
     estimated scf accuracy    <       3.51358816 Ry

     total magnetization       =     0.00 Bohr mag/cell
     absolute magnetization    =     3.41 Bohr mag/cell
[tb_dev] Currently allocated     6.71E+00 Mbytes, locked:    0 /  17
[tb_pin] Currently allocated     0.00E+00 Mbytes, locked:    0 /   0

     iteration # 75     ecut=    50.00 Ry     beta= 0.10
     Davidson diagonalization with overlap

---- Real-time Memory Report at c_bands before calling an iterative solver
          3276 MiB given to the printing process from OS
         -1730 MiB allocation reported by mallinfo(arena+hblkhd)
         55760 MiB available memory on the node where the printing process lives
     GPU memory used/free/total (MiB): 1560 / 14720 / 16280
------------------
     ethr =  8.52E-04,  avg # of iterations =  1.0

     negative rho (up, down):  7.165E-01 8.584E-01

     total cpu time spent up to now is      839.4 secs

     total energy              =    -634.77075577 Ry
     estimated scf accuracy    <       3.72286596 Ry

     total magnetization       =     0.00 Bohr mag/cell
     absolute magnetization    =     3.44 Bohr mag/cell
[tb_dev] Currently allocated     6.71E+00 Mbytes, locked:    0 /  17
[tb_pin] Currently allocated     0.00E+00 Mbytes, locked:    0 /   0

     iteration # 76     ecut=    50.00 Ry     beta= 0.10
     Davidson diagonalization with overlap

---- Real-time Memory Report at c_bands before calling an iterative solver
          3284 MiB given to the printing process from OS
         -1719 MiB allocation reported by mallinfo(arena+hblkhd)
         55750 MiB available memory on the node where the printing process lives
     GPU memory used/free/total (MiB): 1560 / 14720 / 16280
------------------
     ethr =  8.52E-04,  avg # of iterations =  1.6

     negative rho (up, down):  8.169E-01 7.654E-01

     total cpu time spent up to now is      849.6 secs

     total energy              =    -634.75501994 Ry
     estimated scf accuracy    <       2.25931921 Ry

     total magnetization       =    -0.00 Bohr mag/cell
     absolute magnetization    =     2.71 Bohr mag/cell
[tb_dev] Currently allocated     6.71E+00 Mbytes, locked:    0 /  17
[tb_pin] Currently allocated     0.00E+00 Mbytes, locked:    0 /   0

     iteration # 77     ecut=    50.00 Ry     beta= 0.10
     Davidson diagonalization with overlap

---- Real-time Memory Report at c_bands before calling an iterative solver
          3296 MiB given to the printing process from OS
         -1709 MiB allocation reported by mallinfo(arena+hblkhd)
         55740 MiB available memory on the node where the printing process lives
     GPU memory used/free/total (MiB): 1560 / 14720 / 16280
------------------
     ethr =  8.52E-04,  avg # of iterations =  2.1

     negative rho (up, down):  8.873E-01 8.745E-01

     total cpu time spent up to now is      860.6 secs

     total energy              =    -634.69667728 Ry
     estimated scf accuracy    <       1.85442037 Ry

     total magnetization       =    -0.00 Bohr mag/cell
     absolute magnetization    =     2.05 Bohr mag/cell
[tb_dev] Currently allocated     6.71E+00 Mbytes, locked:    0 /  17
[tb_pin] Currently allocated     0.00E+00 Mbytes, locked:    0 /   0

     iteration # 78     ecut=    50.00 Ry     beta= 0.10
     Davidson diagonalization with overlap

---- Real-time Memory Report at c_bands before calling an iterative solver
          3306 MiB given to the printing process from OS
         -1699 MiB allocation reported by mallinfo(arena+hblkhd)
         55731 MiB available memory on the node where the printing process lives
     GPU memory used/free/total (MiB): 1560 / 14720 / 16280
------------------
     ethr =  8.52E-04,  avg # of iterations =  4.5

     negative rho (up, down):  8.683E-01 8.285E-01

     total cpu time spent up to now is      875.5 secs

     total energy              =    -634.79977140 Ry
     estimated scf accuracy    <       1.58971806 Ry

     total magnetization       =    -0.00 Bohr mag/cell
     absolute magnetization    =     2.26 Bohr mag/cell
[tb_dev] Currently allocated     6.71E+00 Mbytes, locked:    0 /  17
[tb_pin] Currently allocated     0.00E+00 Mbytes, locked:    0 /   0

     iteration # 79     ecut=    50.00 Ry     beta= 0.10
     Davidson diagonalization with overlap

---- Real-time Memory Report at c_bands before calling an iterative solver
          3315 MiB given to the printing process from OS
         -1689 MiB allocation reported by mallinfo(arena+hblkhd)
         55722 MiB available memory on the node where the printing process lives
     GPU memory used/free/total (MiB): 1560 / 14720 / 16280
------------------
     ethr =  8.52E-04,  avg # of iterations =  2.8

     negative rho (up, down):  8.475E-01 8.877E-01

     total cpu time spent up to now is      887.4 secs

     total energy              =    -634.76266319 Ry
     estimated scf accuracy    <       4.51233715 Ry

     total magnetization       =     0.00 Bohr mag/cell
     absolute magnetization    =     3.71 Bohr mag/cell
[tb_dev] Currently allocated     6.71E+00 Mbytes, locked:    0 /  17
[tb_pin] Currently allocated     0.00E+00 Mbytes, locked:    0 /   0

     iteration # 80     ecut=    50.00 Ry     beta= 0.10
     Davidson diagonalization with overlap

---- Real-time Memory Report at c_bands before calling an iterative solver
          3326 MiB given to the printing process from OS
         -1679 MiB allocation reported by mallinfo(arena+hblkhd)
         55713 MiB available memory on the node where the printing process lives
     GPU memory used/free/total (MiB): 1560 / 14720 / 16280
------------------
     ethr =  8.52E-04,  avg # of iterations =  2.7

     negative rho (up, down):  8.217E-01 9.616E-01

     total cpu time spent up to now is      899.2 secs

     total energy              =    -634.70043631 Ry
     estimated scf accuracy    <       1.76363574 Ry

     total magnetization       =    -0.00 Bohr mag/cell
     absolute magnetization    =     2.37 Bohr mag/cell

     End of self-consistent calculation

     convergence NOT achieved after  80 iterations: stopping

     Writing config to output data dir ./out/aiida.save/
 
     init_run     :     25.47s CPU      4.81s WALL (       1 calls)
     electrons    :   1497.61s CPU    893.26s WALL (       1 calls)

     Called by init_run:
     wfcinit      :      0.62s CPU      0.62s WALL (       1 calls)
                                        0.62s GPU  (       1 calls)
     potinit      :     11.00s CPU      1.13s WALL (       1 calls)
     hinit0       :      8.33s CPU      2.29s WALL (       1 calls)

     Called by electrons:
     c_bands      :    725.40s CPU    692.02s WALL (      80 calls)
     sum_band     :    117.52s CPU    140.79s WALL (      80 calls)
     v_of_rho     :     17.73s CPU      1.62s WALL (      81 calls)
     v_h          :      2.32s CPU      0.21s WALL (      81 calls)
     v_xc         :     15.40s CPU      1.41s WALL (      81 calls)
     newd         :     36.99s CPU      3.68s WALL (      81 calls)
                                        3.68s GPU  (      81 calls)
     PAW_pot      :    587.00s CPU     53.82s WALL (      81 calls)
     mix_rho      :     16.98s CPU      1.89s WALL (      80 calls)

     Called by c_bands:
     init_us_2    :     98.54s CPU    107.31s WALL (   90240 calls)
     init_us_2:gp :     96.96s CPU    105.79s WALL (   90240 calls)
     cegterg      :    586.50s CPU    548.93s WALL (   45120 calls)

     Called by sum_band:
     sum_band:wei :      0.11s CPU      0.12s WALL (      80 calls)
                                        0.11s GPU  (      80 calls)
     sum_band:loo :    112.59s CPU    135.67s WALL (      80 calls)
                                      135.67s GPU  (      80 calls)
     sum_band:buf :     18.09s CPU     21.65s WALL (   45120 calls)
                                       21.38s GPU  (   45120 calls)
     sum_band:ini :     41.27s CPU     52.31s WALL (   45120 calls)
                                       52.07s GPU  (   45120 calls)
     sum_band:cal :      1.37s CPU      4.10s WALL (   45120 calls)
                                        3.43s GPU  (   45120 calls)
     sum_band:bec :      9.96s CPU     12.23s WALL (   45120 calls)
                                       11.94s GPU  (   45120 calls)
     addusdens    :      3.59s CPU      3.76s WALL (      80 calls)
                                        3.76s GPU  (      80 calls)
     addusd:skk   :      0.02s CPU      0.02s WALL (     320 calls)
                                        0.02s GPU  (     320 calls)

     Called by *egterg:
     cdiaghg      :    212.96s CPU    203.80s WALL (  138886 calls)
                                      202.87s GPU  (  138886 calls)
     cegterg:over :     13.23s CPU     12.61s WALL (   94330 calls)
     cegterg:upda :     22.05s CPU     20.34s WALL (   94330 calls)
     cegterg:last :      6.52s CPU      6.30s WALL (   72572 calls)
     h_psi        :    264.18s CPU    246.22s WALL (  139450 calls)
                                      245.48s GPU  (  139450 calls)
     s_psi        :     15.16s CPU     21.61s WALL (  139450 calls)
                                       20.37s GPU  (  139450 calls)
     g_psi        :      0.73s CPU      2.18s WALL (   94330 calls)
                                        1.58s GPU  (   94330 calls)

     Called by h_psi:
     h_psi:calbec :      5.06s CPU     13.12s WALL (  139450 calls)
                                       12.30s GPU  (  139450 calls)
     vloc_psi     :    209.47s CPU    196.06s WALL (  139450 calls)
                                      195.22s GPU  (  139450 calls)
     add_vuspsi   :     25.17s CPU     28.34s WALL (  139450 calls)
                                       27.53s GPU  (  139450 calls)

     General routines
     calbec       :      4.80s CPU      4.70s WALL (  184570 calls)
     fft          :      2.51s CPU      0.33s WALL (    2023 calls)
                                        0.26s GPU  (    1861 calls)
     ffts         :      0.06s CPU      0.03s WALL (     322 calls)
                                        0.01s GPU  (     160 calls)
     fftw         :     11.55s CPU    139.94s WALL (  551482 calls)
                                      136.93s GPU  (  551482 calls)
     interpolate  :      2.24s CPU      0.20s WALL (     162 calls)
     davcio       :      1.07s CPU      1.15s WALL (    1146 calls)
 
     Parallel routines

     PAW routines
     PAW_pot      :    587.00s CPU     53.82s WALL (      81 calls)
     PAW_symme    :      0.06s CPU      0.01s WALL (     160 calls)
 
     PWSCF        :  25m27.31s CPU  15m 0.10s WALL

 
   This run was terminated on:  22:15: 1  23Oct2023            

=------------------------------------------------------------------------------=
   JOB DONE.
=------------------------------------------------------------------------------=
