
     Program PWSCF v.7.2 starts on 30Nov2023 at  4:11:35 
        Git branch: develop
        Last git commit: 9055681be6fc8200e6fffe76ed5fda34c2696339
        Last git commit date: Wed Nov 8 16:29:39 2023 +0000
        Last git commit subject: Merge branch 'calbec_fix' into 'develop'

     This program is part of the open-source Quantum ESPRESSO suite
     for quantum simulation of materials; please cite
         "P. Giannozzi et al., J. Phys.:Condens. Matter 21 395502 (2009);
         "P. Giannozzi et al., J. Phys.:Condens. Matter 29 465901 (2017);
         "P. Giannozzi et al., J. Chem. Phys. 152 154105 (2020);
          URL http://www.quantum-espresso.org", 
     in publications or presentations arising from this work. More details at
     http://www.quantum-espresso.org/quote

     Parallel version (MPI), running on    56 processors

     MPI processes distributed on     1 nodes
     488380 MiB available memory on the printing compute node when the environment starts

     Reading input from aiida.in

     Current dimensions of program PWSCF are:
     Max number of different atomic species (ntypx) = 10
     Max number of k-points (npk) =  40000
     Max angular momentum in pseudopotentials (lmaxx) =  4
     Message from routine setup:
     using ibrav=0 with symmetry is DISCOURAGED, use correct ibrav instead

     K-points division:     npool     =       7
     R & G space division:  proc/nbgrp/npool/nimage =       8
     Subspace diagonalization in iterative solution of the eigenvalue problem:
     a serial algorithm will be used


     Parallelization info
     --------------------
     sticks:   dense  smooth     PW     G-vecs:    dense   smooth      PW
     Min         191      96     30                 4961     1769     302
     Max         192      97     31                 4964     1771     304
     Sum        1531     769    241                39693    14163    2421

     Using Slab Decomposition



     bravais-lattice index     =            0
     lattice parameter (alat)  =       8.3515  a.u.
     unit-cell volume          =     411.8857 (a.u.)^3
     number of atoms/cell      =            4
     number of atomic types    =            4
     number of electrons       =        42.00
     number of Kohn-Sham states=           29
     kinetic-energy cutoff     =      40.0000  Ry
     charge density cutoff     =     320.0000  Ry
     scf convergence threshold =      8.0E-10
     mixing beta               =       0.4000
     number of iterations used =            8  plain     mixing
     Exchange-correlation= SLA  PW   PSX  PSC
                           (   1   4  10   8   0   0   0)

     celldm(1)=   8.351488  celldm(2)=   0.000000  celldm(3)=   0.000000
     celldm(4)=   0.000000  celldm(5)=   0.000000  celldm(6)=   0.000000

     crystal axes: (cart. coord. in units of alat)
               a(1) = (   0.000000   0.707107   0.707107 )  
               a(2) = (   0.707107   0.000000   0.707107 )  
               a(3) = (   0.707107   0.707107   0.000000 )  

     reciprocal axes: (cart. coord. in units 2 pi/alat)
               b(1) = ( -0.707107  0.707107  0.707107 )  
               b(2) = (  0.707107 -0.707107  0.707107 )  
               b(3) = (  0.707107  0.707107 -0.707107 )  


     PseudoPot. # 1 for Cr read from file:
     ./pseudo/cr_pbesol_v1.5.uspp.F.UPF
     MD5 check sum: a621641e0be27168676a837af8893d0f
     Pseudo is Ultrasoft + core correction, Zval = 14.0
     Generated by new atomic code, or converted to UPF format
     Using radial grid of  857 points,  6 beta functions with: 
                l(1) =   0
                l(2) =   0
                l(3) =   1
                l(4) =   1
                l(5) =   2
                l(6) =   2
     Q(r) pseudized with  8 coefficients,  rinner =    0.950   0.950   0.950
                                                       0.950   0.950

     PseudoPot. # 2 for Si read from file:
     ./pseudo/Si.pbesol-n-rrkjus_psl.1.0.0.UPF
     MD5 check sum: c4212819de858c94c3a1644338846ac9
     Pseudo is Ultrasoft + core correction, Zval =  4.0
     Generated using "atomic" code by A. Dal Corso  v.6.0 svn rev. 13079
     Using radial grid of 1141 points,  6 beta functions with: 
                l(1) =   0
                l(2) =   0
                l(3) =   1
                l(4) =   1
                l(5) =   2
                l(6) =   2
     Q(r) pseudized with 0 coefficients 


     PseudoPot. # 3 for V  read from file:
     ./pseudo/v_pbesol_v1.4.uspp.F.UPF
     MD5 check sum: 72fa7d0034c41d8adc50bbc8c632b9f9
     Pseudo is Ultrasoft + core correction, Zval = 13.0
     Generated by new atomic code, or converted to UPF format
     Using radial grid of  853 points,  6 beta functions with: 
                l(1) =   0
                l(2) =   0
                l(3) =   1
                l(4) =   1
                l(5) =   2
                l(6) =   2
     Q(r) pseudized with  8 coefficients,  rinner =    1.100   1.100   1.100
                                                       1.100   1.100

     PseudoPot. # 4 for Y  read from file:
     ./pseudo/y_pbesol_v1.4.uspp.F.UPF
     MD5 check sum: dac24993bfd4491f22c7b9129ad9e93d
     Pseudo is Ultrasoft + core correction, Zval = 11.0
     Generated by new atomic code, or converted to UPF format
     Using radial grid of  885 points,  6 beta functions with: 
                l(1) =   0
                l(2) =   0
                l(3) =   1
                l(4) =   1
                l(5) =   2
                l(6) =   2
     Q(r) pseudized with  8 coefficients,  rinner =    1.200   1.200   1.200
                                                       1.200   1.200

     atomic species   valence    mass     pseudopotential
     Cr               14.00    51.99610     Cr( 1.00)
     Si                4.00    28.08550     Si( 1.00)
     V                13.00    50.94150     V ( 1.00)
     Y                11.00    88.90585     Y ( 1.00)

     Starting magnetic structure 
     atomic species   magnetization
     Cr              0.357
     Si              0.100
     V               0.385
     Y               0.455

     24 Sym. Ops. (no inversion) found


                                    s                        frac. trans.

      isym =  1     identity                                     

 cryst.   s( 1) = (     1          0          0      )
                  (     0          1          0      )
                  (     0          0          1      )

 cart.    s( 1) = (  1.0000000 -0.0000000  0.0000000 )
                  ( -0.0000000  1.0000000  0.0000000 )
                  ( -0.0000000  0.0000000  1.0000000 )


      isym =  2     180 deg rotation - cart. axis [0,0,1]        

 cryst.   s( 2) = (     0          1         -1      )
                  (     1          0         -1      )
                  (     0          0         -1      )

 cart.    s( 2) = ( -1.0000000  0.0000000  0.0000000 )
                  (  0.0000000 -1.0000000  0.0000000 )
                  (  0.0000000 -0.0000000  1.0000000 )


      isym =  3     180 deg rotation - cart. axis [0,1,0]        

 cryst.   s( 3) = (     0         -1          1      )
                  (     0         -1          0      )
                  (     1         -1          0      )

 cart.    s( 3) = ( -1.0000000 -0.0000000 -0.0000000 )
                  (  0.0000000  1.0000000 -0.0000000 )
                  (  0.0000000  0.0000000 -1.0000000 )


      isym =  4     180 deg rotation - cart. axis [1,0,0]        

 cryst.   s( 4) = (    -1          0          0      )
                  (    -1          0          1      )
                  (    -1          1          0      )

 cart.    s( 4) = (  1.0000000  0.0000000 -0.0000000 )
                  ( -0.0000000 -1.0000000 -0.0000000 )
                  ( -0.0000000 -0.0000000 -1.0000000 )


      isym =  5     120 deg rotation - cart. axis [-1,-1,-1]     

 cryst.   s( 5) = (     0          0          1      )
                  (     1          0          0      )
                  (     0          1          0      )

 cart.    s( 5) = (  0.0000000  1.0000000 -0.0000000 )
                  (  0.0000000 -0.0000000  1.0000000 )
                  (  1.0000000 -0.0000000  0.0000000 )


      isym =  6     120 deg rotation - cart. axis [-1,1,1]       

 cryst.   s( 6) = (     1         -1          0      )
                  (     0         -1          1      )
                  (     0         -1          0      )

 cart.    s( 6) = ( -0.0000000 -1.0000000 -0.0000000 )
                  ( -0.0000000  0.0000000  1.0000000 )
                  ( -1.0000000  0.0000000  0.0000000 )


      isym =  7     120 deg rotation - cart. axis [1,1,-1]       

 cryst.   s( 7) = (    -1          1          0      )
                  (    -1          0          0      )
                  (    -1          0          1      )

 cart.    s( 7) = ( -0.0000000  1.0000000  0.0000000 )
                  ( -0.0000000 -0.0000000 -1.0000000 )
                  ( -1.0000000 -0.0000000 -0.0000000 )


      isym =  8     120 deg rotation - cart. axis [1,-1,1]       

 cryst.   s( 8) = (     0          0         -1      )
                  (     0          1         -1      )
                  (     1          0         -1      )

 cart.    s( 8) = (  0.0000000 -1.0000000  0.0000000 )
                  (  0.0000000  0.0000000 -1.0000000 )
                  (  1.0000000  0.0000000 -0.0000000 )


      isym =  9     120 deg rotation - cart. axis [1,1,1]        

 cryst.   s( 9) = (     0          1          0      )
                  (     0          0          1      )
                  (     1          0          0      )

 cart.    s( 9) = ( -0.0000000  0.0000000  1.0000000 )
                  (  1.0000000  0.0000000 -0.0000000 )
                  (  0.0000000  1.0000000 -0.0000000 )


      isym = 10     120 deg rotation - cart. axis [-1,1,-1]      

 cryst.   s(10) = (    -1          0          1      )
                  (    -1          1          0      )
                  (    -1          0          0      )

 cart.    s(10) = (  0.0000000 -0.0000000  1.0000000 )
                  ( -1.0000000 -0.0000000 -0.0000000 )
                  ( -0.0000000 -1.0000000 -0.0000000 )


      isym = 11     120 deg rotation - cart. axis [1,-1,-1]      

 cryst.   s(11) = (     1          0         -1      )
                  (     0          0         -1      )
                  (     0          1         -1      )

 cart.    s(11) = (  0.0000000  0.0000000 -1.0000000 )
                  ( -1.0000000  0.0000000  0.0000000 )
                  ( -0.0000000  1.0000000  0.0000000 )


      isym = 12     120 deg rotation - cart. axis [-1,-1,1]      

 cryst.   s(12) = (     0         -1          0      )
                  (     1         -1          0      )
                  (     0         -1          1      )

 cart.    s(12) = ( -0.0000000 -0.0000000 -1.0000000 )
                  (  1.0000000 -0.0000000  0.0000000 )
                  (  0.0000000 -1.0000000  0.0000000 )


      isym = 13     inv. 180 deg rotation - cart. axis [1,1,0]   

 cryst.   s(13) = (     1          0         -1      )
                  (     0          1         -1      )
                  (     0          0         -1      )

 cart.    s(13) = (  0.0000000 -1.0000000  0.0000000 )
                  ( -1.0000000  0.0000000  0.0000000 )
                  ( -0.0000000  0.0000000  1.0000000 )


      isym = 14     inv. 180 deg rotation - cart. axis [1,-1,0]  

 cryst.   s(14) = (     0          1          0      )
                  (     1          0          0      )
                  (     0          0          1      )

 cart.    s(14) = ( -0.0000000  1.0000000  0.0000000 )
                  (  1.0000000 -0.0000000  0.0000000 )
                  (  0.0000000 -0.0000000  1.0000000 )


      isym = 15     inv.  90 deg rotation - cart. axis [0,0,-1]  

 cryst.   s(15) = (     0         -1          0      )
                  (     0         -1          1      )
                  (     1         -1          0      )

 cart.    s(15) = ( -0.0000000 -1.0000000 -0.0000000 )
                  (  1.0000000  0.0000000 -0.0000000 )
                  (  0.0000000  0.0000000 -1.0000000 )


      isym = 16     inv.  90 deg rotation - cart. axis [0,0,1]   

 cryst.   s(16) = (    -1          0          1      )
                  (    -1          0          0      )
                  (    -1          1          0      )

 cart.    s(16) = (  0.0000000  1.0000000 -0.0000000 )
                  ( -1.0000000 -0.0000000 -0.0000000 )
                  ( -0.0000000 -0.0000000 -1.0000000 )


      isym = 17     inv. 180 deg rotation - cart. axis [1,0,1]   

 cryst.   s(17) = (     1         -1          0      )
                  (     0         -1          0      )
                  (     0         -1          1      )

 cart.    s(17) = ( -0.0000000 -0.0000000 -1.0000000 )
                  ( -0.0000000  1.0000000  0.0000000 )
                  ( -1.0000000  0.0000000  0.0000000 )


      isym = 18     inv. 180 deg rotation - cart. axis [-1,0,1]  

 cryst.   s(18) = (     0          0          1      )
                  (     0          1          0      )
                  (     1          0          0      )

 cart.    s(18) = (  0.0000000 -0.0000000  1.0000000 )
                  (  0.0000000  1.0000000 -0.0000000 )
                  (  1.0000000  0.0000000 -0.0000000 )


      isym = 19     inv.  90 deg rotation - cart. axis [0,1,0]   

 cryst.   s(19) = (     0          0         -1      )
                  (     1          0         -1      )
                  (     0          1         -1      )

 cart.    s(19) = (  0.0000000  0.0000000 -1.0000000 )
                  (  0.0000000 -1.0000000  0.0000000 )
                  (  1.0000000 -0.0000000  0.0000000 )


      isym = 20     inv.  90 deg rotation - cart. axis [0,-1,0]  

 cryst.   s(20) = (    -1          1          0      )
                  (    -1          0          1      )
                  (    -1          0          0      )

 cart.    s(20) = ( -0.0000000  0.0000000  1.0000000 )
                  ( -0.0000000 -1.0000000 -0.0000000 )
                  ( -1.0000000 -0.0000000 -0.0000000 )


      isym = 21     inv. 180 deg rotation - cart. axis [0,1,1]   

 cryst.   s(21) = (    -1          0          0      )
                  (    -1          1          0      )
                  (    -1          0          1      )

 cart.    s(21) = (  1.0000000 -0.0000000  0.0000000 )
                  ( -0.0000000 -0.0000000 -1.0000000 )
                  ( -0.0000000 -1.0000000 -0.0000000 )


      isym = 22     inv. 180 deg rotation - cart. axis [0,1,-1]  

 cryst.   s(22) = (     1          0          0      )
                  (     0          0          1      )
                  (     0          1          0      )

 cart.    s(22) = (  1.0000000  0.0000000 -0.0000000 )
                  ( -0.0000000  0.0000000  1.0000000 )
                  ( -0.0000000  1.0000000  0.0000000 )


      isym = 23     inv.  90 deg rotation - cart. axis [-1,0,0]  

 cryst.   s(23) = (     0          1         -1      )
                  (     0          0         -1      )
                  (     1          0         -1      )

 cart.    s(23) = ( -1.0000000  0.0000000  0.0000000 )
                  (  0.0000000  0.0000000 -1.0000000 )
                  (  0.0000000  1.0000000 -0.0000000 )


      isym = 24     inv.  90 deg rotation - cart. axis [1,0,0]   

 cryst.   s(24) = (     0         -1          1      )
                  (     1         -1          0      )
                  (     0         -1          0      )

 cart.    s(24) = ( -1.0000000 -0.0000000 -0.0000000 )
                  (  0.0000000 -0.0000000  1.0000000 )
                  (  0.0000000 -1.0000000  0.0000000 )


   Cartesian axes

     site n.     atom                  positions (alat units)
         1        Y      tau(   1) = (   0.3535534   0.3535534   0.3535534  )
         2        V      tau(   2) = (   0.7071068   0.0000000   0.0000000  )
         3        Cr     tau(   3) = (   0.0000000   0.0000000   0.0000000  )
         4        Si     tau(   4) = (   0.3535534   0.3535534   1.0606602  )

   Crystallographic axes

     site n.     atom                  positions (cryst. coord.)
         1        Y      tau(   1) = (  0.2500000  0.2500000  0.2500000  )
         2        V      tau(   2) = ( -0.5000000  0.5000000  0.5000000  )
         3        Cr     tau(   3) = (  0.0000000  0.0000000  0.0000000  )
         4        Si     tau(   4) = (  0.7500000  0.7500000 -0.2500000  )

     number of k points=    72  Marzari-Vanderbilt smearing, width (Ry)=  0.0200
                       cart. coord. in units 2pi/alat
        k(    1) = (   0.0000000   0.0000000   0.0000000), wk =   0.0005787
        k(    2) = (   0.0589256   0.0589256  -0.0589256), wk =   0.0046296
        k(    3) = (   0.1178511   0.1178511  -0.1178511), wk =   0.0046296
        k(    4) = (   0.1767767   0.1767767  -0.1767767), wk =   0.0046296
        k(    5) = (   0.2357023   0.2357023  -0.2357023), wk =   0.0046296
        k(    6) = (   0.2946278   0.2946278  -0.2946278), wk =   0.0046296
        k(    7) = (  -0.3535534  -0.3535534   0.3535534), wk =   0.0023148
        k(    8) = (   0.1178511   0.0000000  -0.0000000), wk =   0.0034722
        k(    9) = (   0.1767767   0.0589256  -0.0589256), wk =   0.0138889
        k(   10) = (   0.2357023   0.1178511  -0.1178511), wk =   0.0138889
        k(   11) = (   0.2946278   0.1767767  -0.1767767), wk =   0.0138889
        k(   12) = (   0.3535534   0.2357023  -0.2357023), wk =   0.0138889
        k(   13) = (  -0.2946278  -0.4124790   0.4124790), wk =   0.0138889
        k(   14) = (  -0.2357023  -0.3535534   0.3535534), wk =   0.0138889
        k(   15) = (  -0.1767767  -0.2946278   0.2946278), wk =   0.0138889
        k(   16) = (  -0.1178511  -0.2357023   0.2357023), wk =   0.0138889
        k(   17) = (  -0.0589256  -0.1767767   0.1767767), wk =   0.0138889
        k(   18) = (  -0.0000000  -0.1178511   0.1178511), wk =   0.0069444
        k(   19) = (   0.2357023   0.0000000  -0.0000000), wk =   0.0034722
        k(   20) = (   0.2946278   0.0589256  -0.0589256), wk =   0.0138889
        k(   21) = (   0.3535534   0.1178511  -0.1178511), wk =   0.0138889
        k(   22) = (   0.4124790   0.1767767  -0.1767767), wk =   0.0138889
        k(   23) = (  -0.2357023  -0.4714045   0.4714045), wk =   0.0138889
        k(   24) = (  -0.1767767  -0.4124790   0.4124790), wk =   0.0138889
        k(   25) = (  -0.1178511  -0.3535534   0.3535534), wk =   0.0138889
        k(   26) = (  -0.0589256  -0.2946278   0.2946278), wk =   0.0138889
        k(   27) = (   0.0000000  -0.2357023   0.2357023), wk =   0.0069444
        k(   28) = (   0.3535534   0.0000000   0.0000000), wk =   0.0034722
        k(   29) = (   0.4124790   0.0589256  -0.0589256), wk =   0.0138889
        k(   30) = (   0.4714045   0.1178511  -0.1178511), wk =   0.0138889
        k(   31) = (  -0.1767767  -0.5303301   0.5303301), wk =   0.0138889
        k(   32) = (  -0.1178511  -0.4714045   0.4714045), wk =   0.0138889
        k(   33) = (  -0.0589256  -0.4124790   0.4124790), wk =   0.0138889
        k(   34) = (   0.0000000  -0.3535534   0.3535534), wk =   0.0069444
        k(   35) = (   0.4714045   0.0000000  -0.0000000), wk =   0.0034722
        k(   36) = (   0.5303301   0.0589256  -0.0589256), wk =   0.0138889
        k(   37) = (  -0.1178511  -0.5892557   0.5892557), wk =   0.0138889
        k(   38) = (  -0.0589256  -0.5303301   0.5303301), wk =   0.0138889
        k(   39) = (  -0.0000000  -0.4714045   0.4714045), wk =   0.0069444
        k(   40) = (   0.5892557   0.0000000  -0.0000000), wk =   0.0034722
        k(   41) = (  -0.0589256  -0.6481812   0.6481812), wk =   0.0138889
        k(   42) = (   0.0000000  -0.5892557   0.5892557), wk =   0.0069444
        k(   43) = (  -0.7071068   0.0000000   0.0000000), wk =   0.0017361
        k(   44) = (   0.2357023   0.1178511   0.0000000), wk =   0.0138889
        k(   45) = (   0.2946278   0.1767767  -0.0589256), wk =   0.0277778
        k(   46) = (   0.3535534   0.2357023  -0.1178511), wk =   0.0277778
        k(   47) = (  -0.2946278  -0.4124790   0.5303301), wk =   0.0277778
        k(   48) = (  -0.2357023  -0.3535534   0.4714045), wk =   0.0138889
        k(   49) = (   0.3535534   0.1178511   0.0000000), wk =   0.0138889
        k(   50) = (   0.4124790   0.1767767  -0.0589256), wk =   0.0277778
        k(   51) = (  -0.2357023  -0.4714045   0.5892557), wk =   0.0277778
        k(   52) = (  -0.1767767  -0.4124790   0.5303301), wk =   0.0277778
        k(   53) = (  -0.1178511  -0.3535534   0.4714045), wk =   0.0277778
        k(   54) = (  -0.0589256  -0.2946278   0.4124790), wk =   0.0277778
        k(   55) = (   0.0000000  -0.2357023   0.3535534), wk =   0.0138889
        k(   56) = (   0.4714045   0.1178511  -0.0000000), wk =   0.0138889
        k(   57) = (  -0.1767767  -0.5303301   0.6481812), wk =   0.0277778
        k(   58) = (  -0.1178511  -0.4714045   0.5892557), wk =   0.0277778
        k(   59) = (  -0.0589256  -0.4124790   0.5303301), wk =   0.0277778
        k(   60) = (  -0.0000000  -0.3535534   0.4714045), wk =   0.0138889
        k(   61) = (  -0.1178511  -0.5892557   0.7071068), wk =   0.0138889
        k(   62) = (  -0.0589256  -0.5303301   0.6481812), wk =   0.0277778
        k(   63) = (  -0.0000000  -0.4714045   0.5892557), wk =   0.0138889
        k(   64) = (  -0.7071068   0.1178511  -0.0000000), wk =   0.0069444
        k(   65) = (  -0.2357023  -0.4714045   0.7071068), wk =   0.0138889
        k(   66) = (  -0.1767767  -0.4124790   0.6481812), wk =   0.0277778
        k(   67) = (  -0.1178511  -0.3535534   0.5892557), wk =   0.0138889
        k(   68) = (  -0.1178511  -0.4714045   0.7071068), wk =   0.0138889
        k(   69) = (  -0.0589256  -0.4124790   0.6481812), wk =   0.0277778
        k(   70) = (   0.0000000  -0.3535534   0.5892557), wk =   0.0138889
        k(   71) = (  -0.7071068   0.2357023   0.0000000), wk =   0.0069444
        k(   72) = (  -0.7071068   0.3535534   0.0000000), wk =   0.0034722

                       cryst. coord.
        k(    1) = (   0.0000000   0.0000000   0.0000000), wk =   0.0005787
        k(    2) = (   0.0000000   0.0000000   0.0833333), wk =   0.0046296
        k(    3) = (   0.0000000   0.0000000   0.1666667), wk =   0.0046296
        k(    4) = (   0.0000000   0.0000000   0.2500000), wk =   0.0046296
        k(    5) = (   0.0000000   0.0000000   0.3333333), wk =   0.0046296
        k(    6) = (  -0.0000000  -0.0000000   0.4166667), wk =   0.0046296
        k(    7) = (  -0.0000000  -0.0000000  -0.5000000), wk =   0.0023148
        k(    8) = (  -0.0000000   0.0833333   0.0833333), wk =   0.0034722
        k(    9) = (   0.0000000   0.0833333   0.1666667), wk =   0.0138889
        k(   10) = (  -0.0000000   0.0833333   0.2500000), wk =   0.0138889
        k(   11) = (   0.0000000   0.0833333   0.3333333), wk =   0.0138889
        k(   12) = (  -0.0000000   0.0833333   0.4166667), wk =   0.0138889
        k(   13) = (  -0.0000000   0.0833333  -0.5000000), wk =   0.0138889
        k(   14) = (   0.0000000   0.0833333  -0.4166667), wk =   0.0138889
        k(   15) = (  -0.0000000   0.0833333  -0.3333333), wk =   0.0138889
        k(   16) = (  -0.0000000   0.0833333  -0.2500000), wk =   0.0138889
        k(   17) = (   0.0000000   0.0833333  -0.1666667), wk =   0.0138889
        k(   18) = (   0.0000000   0.0833333  -0.0833333), wk =   0.0069444
        k(   19) = (  -0.0000000   0.1666667   0.1666667), wk =   0.0034722
        k(   20) = (  -0.0000000   0.1666667   0.2500000), wk =   0.0138889
        k(   21) = (   0.0000000   0.1666667   0.3333333), wk =   0.0138889
        k(   22) = (   0.0000000   0.1666667   0.4166667), wk =   0.0138889
        k(   23) = (  -0.0000000   0.1666667  -0.5000000), wk =   0.0138889
        k(   24) = (  -0.0000000   0.1666667  -0.4166667), wk =   0.0138889
        k(   25) = (  -0.0000000   0.1666667  -0.3333333), wk =   0.0138889
        k(   26) = (   0.0000000   0.1666667  -0.2500000), wk =   0.0138889
        k(   27) = (   0.0000000   0.1666667  -0.1666667), wk =   0.0069444
        k(   28) = (   0.0000000   0.2500000   0.2500000), wk =   0.0034722
        k(   29) = (  -0.0000000   0.2500000   0.3333333), wk =   0.0138889
        k(   30) = (  -0.0000000   0.2500000   0.4166667), wk =   0.0138889
        k(   31) = (   0.0000000   0.2500000  -0.5000000), wk =   0.0138889
        k(   32) = (  -0.0000000   0.2500000  -0.4166667), wk =   0.0138889
        k(   33) = (  -0.0000000   0.2500000  -0.3333333), wk =   0.0138889
        k(   34) = (  -0.0000000   0.2500000  -0.2500000), wk =   0.0069444
        k(   35) = (  -0.0000000   0.3333333   0.3333333), wk =   0.0034722
        k(   36) = (  -0.0000000   0.3333333   0.4166667), wk =   0.0138889
        k(   37) = (   0.0000000   0.3333333  -0.5000000), wk =   0.0138889
        k(   38) = (  -0.0000000   0.3333333  -0.4166667), wk =   0.0138889
        k(   39) = (   0.0000000   0.3333333  -0.3333333), wk =   0.0069444
        k(   40) = (   0.0000000   0.4166667   0.4166667), wk =   0.0034722
        k(   41) = (   0.0000000   0.4166667  -0.5000000), wk =   0.0138889
        k(   42) = (   0.0000000   0.4166667  -0.4166667), wk =   0.0069444
        k(   43) = (   0.0000000  -0.5000000  -0.5000000), wk =   0.0017361
        k(   44) = (   0.0833333   0.1666667   0.2500000), wk =   0.0138889
        k(   45) = (   0.0833333   0.1666667   0.3333333), wk =   0.0277778
        k(   46) = (   0.0833333   0.1666667   0.4166667), wk =   0.0277778
        k(   47) = (   0.0833333   0.1666667  -0.5000000), wk =   0.0277778
        k(   48) = (   0.0833333   0.1666667  -0.4166667), wk =   0.0138889
        k(   49) = (   0.0833333   0.2500000   0.3333333), wk =   0.0138889
        k(   50) = (   0.0833333   0.2500000   0.4166667), wk =   0.0277778
        k(   51) = (   0.0833333   0.2500000  -0.5000000), wk =   0.0277778
        k(   52) = (   0.0833333   0.2500000  -0.4166667), wk =   0.0277778
        k(   53) = (   0.0833333   0.2500000  -0.3333333), wk =   0.0277778
        k(   54) = (   0.0833333   0.2500000  -0.2500000), wk =   0.0277778
        k(   55) = (   0.0833333   0.2500000  -0.1666667), wk =   0.0138889
        k(   56) = (   0.0833333   0.3333333   0.4166667), wk =   0.0138889
        k(   57) = (   0.0833333   0.3333333  -0.5000000), wk =   0.0277778
        k(   58) = (   0.0833333   0.3333333  -0.4166667), wk =   0.0277778
        k(   59) = (   0.0833333   0.3333333  -0.3333333), wk =   0.0277778
        k(   60) = (   0.0833333   0.3333333  -0.2500000), wk =   0.0138889
        k(   61) = (   0.0833333   0.4166667  -0.5000000), wk =   0.0138889
        k(   62) = (   0.0833333   0.4166667  -0.4166667), wk =   0.0277778
        k(   63) = (   0.0833333   0.4166667  -0.3333333), wk =   0.0138889
        k(   64) = (   0.0833333  -0.5000000  -0.4166667), wk =   0.0069444
        k(   65) = (   0.1666667   0.3333333  -0.5000000), wk =   0.0138889
        k(   66) = (   0.1666667   0.3333333  -0.4166667), wk =   0.0277778
        k(   67) = (   0.1666667   0.3333333  -0.3333333), wk =   0.0138889
        k(   68) = (   0.1666667   0.4166667  -0.4166667), wk =   0.0138889
        k(   69) = (   0.1666667   0.4166667  -0.3333333), wk =   0.0277778
        k(   70) = (   0.1666667   0.4166667  -0.2500000), wk =   0.0138889
        k(   71) = (   0.1666667  -0.5000000  -0.3333333), wk =   0.0069444
        k(   72) = (   0.2500000  -0.5000000  -0.2500000), wk =   0.0034722

     Dense  grid:    39693 G-vectors     FFT dimensions: (  48,  48,  48)

     Smooth grid:    14163 G-vectors     FFT dimensions: (  36,  36,  36)

     Dynamical RAM for                 wfc:       0.10 MB

     Dynamical RAM for     wfc (w. buffer):       2.14 MB

     Dynamical RAM for           str. fact:       0.30 MB

     Dynamical RAM for           local pot:       0.00 MB

     Dynamical RAM for          nlocal pot:       0.24 MB

     Dynamical RAM for                qrad:       5.74 MB

     Dynamical RAM for          rho,v,vnew:       1.09 MB

     Dynamical RAM for               rhoin:       0.36 MB

     Dynamical RAM for            rho*nmix:       2.42 MB

     Dynamical RAM for           G-vectors:       0.30 MB

     Dynamical RAM for          h,s,v(r/c):       0.04 MB

     Dynamical RAM for          <psi|beta>:       0.03 MB

     Dynamical RAM for      wfcinit/wfcrot:       0.28 MB

     Dynamical RAM for           addusdens:       2.16 MB

     Dynamical RAM for          addusforce:       2.11 MB

     Dynamical RAM for         addusstress:       2.26 MB

     Estimated static dynamical RAM per process >      11.19 MB

     Estimated max dynamical RAM per process >      15.87 MB

     Estimated total dynamical RAM >     772.20 MB

     Check: negative core charge=   -0.000004
     Generating pointlists ...
     new r_m :   0.2526 (alat units)  2.1096 (a.u.) for type    1
     new r_m :   0.2526 (alat units)  2.1096 (a.u.) for type    2
     new r_m :   0.2526 (alat units)  2.1096 (a.u.) for type    3
     new r_m :   0.2526 (alat units)  2.1096 (a.u.) for type    4

     The initial density is read from file :
     ./out/aiida.save/charge-density


     negative rho (up, down):  1.808E-04 1.643E-03
     Starting wfcs are   37 randomized atomic wfcs

     total cpu time spent up to now is        1.7 secs

     per-process dynamical memory:    23.1 Mb

     Self-consistent Calculation

     iteration #  1     ecut=    40.00 Ry     beta= 0.40
     PPCG style diagonalization

---- Real-time Memory Report at c_bands before calling an iterative solver
            60 MiB given to the printing process from OS
            22 MiB allocation reported by mallinfo(arena+hblkhd)
        487132 MiB available memory on the node where the printing process lives
------------------
     ethr =  1.00E-05,  avg # of iterations = 11.3

     Threshold (ethr) on eigenvalues was too large:
     Diagonalizing with lowered threshold

     PPCG style diagonalization

---- Real-time Memory Report at c_bands before calling an iterative solver
            65 MiB given to the printing process from OS
            24 MiB allocation reported by mallinfo(arena+hblkhd)
        486963 MiB available memory on the node where the printing process lives
------------------
     ethr =  7.38E-07,  avg # of iterations =  3.0

     negative rho (up, down):  1.889E-04 1.634E-03

     total cpu time spent up to now is        4.3 secs

     total energy              =    -424.30188214 Ry
     estimated scf accuracy    <       0.00030918 Ry

     total magnetization       =     3.22 Bohr mag/cell
     absolute magnetization    =     3.38 Bohr mag/cell

     iteration #  2     ecut=    40.00 Ry     beta= 0.40
     PPCG style diagonalization

---- Real-time Memory Report at c_bands before calling an iterative solver
            66 MiB given to the printing process from OS
            25 MiB allocation reported by mallinfo(arena+hblkhd)
        486960 MiB available memory on the node where the printing process lives
------------------
     ethr =  7.36E-07,  avg # of iterations =  8.6

     negative rho (up, down):  1.906E-04 1.632E-03

     total cpu time spent up to now is        5.7 secs

     total energy              =    -424.30181379 Ry
     estimated scf accuracy    <       0.00612409 Ry

     total magnetization       =     3.10 Bohr mag/cell
     absolute magnetization    =     3.26 Bohr mag/cell

     iteration #  3     ecut=    40.00 Ry     beta= 0.40
     PPCG style diagonalization

---- Real-time Memory Report at c_bands before calling an iterative solver
            66 MiB given to the printing process from OS
            25 MiB allocation reported by mallinfo(arena+hblkhd)
        486960 MiB available memory on the node where the printing process lives
------------------
     ethr =  7.36E-07,  avg # of iterations =  7.3

     negative rho (up, down):  1.969E-04 1.627E-03

     total cpu time spent up to now is        6.9 secs

     total energy              =    -424.30212120 Ry
     estimated scf accuracy    <       0.00030809 Ry

     total magnetization       =     3.14 Bohr mag/cell
     absolute magnetization    =     3.30 Bohr mag/cell

     iteration #  4     ecut=    40.00 Ry     beta= 0.40
     PPCG style diagonalization

---- Real-time Memory Report at c_bands before calling an iterative solver
            66 MiB given to the printing process from OS
            25 MiB allocation reported by mallinfo(arena+hblkhd)
        486958 MiB available memory on the node where the printing process lives
------------------
     ethr =  7.34E-07,  avg # of iterations =  4.2

     negative rho (up, down):  2.132E-04 1.611E-03

     total cpu time spent up to now is        7.8 secs

     total energy              =    -424.30238424 Ry
     estimated scf accuracy    <       0.00030786 Ry

     total magnetization       =     3.10 Bohr mag/cell
     absolute magnetization    =     3.26 Bohr mag/cell

     iteration #  5     ecut=    40.00 Ry     beta= 0.40
     PPCG style diagonalization

---- Real-time Memory Report at c_bands before calling an iterative solver
            67 MiB given to the printing process from OS
            25 MiB allocation reported by mallinfo(arena+hblkhd)
        486957 MiB available memory on the node where the printing process lives
------------------
     ethr =  7.33E-07,  avg # of iterations =  6.3

     negative rho (up, down):  1.759E-04 1.645E-03

     total cpu time spent up to now is        8.9 secs

     total energy              =    -424.30095006 Ry
     estimated scf accuracy    <       0.00037998 Ry

     total magnetization       =     2.98 Bohr mag/cell
     absolute magnetization    =     3.14 Bohr mag/cell

     iteration #  6     ecut=    40.00 Ry     beta= 0.40
     PPCG style diagonalization

---- Real-time Memory Report at c_bands before calling an iterative solver
            67 MiB given to the printing process from OS
            25 MiB allocation reported by mallinfo(arena+hblkhd)
        486943 MiB available memory on the node where the printing process lives
------------------
     ethr =  7.33E-07,  avg # of iterations =  8.0

     negative rho (up, down):  1.160E-05 1.789E-03

     total cpu time spent up to now is       10.3 secs

     total energy              =    -424.28388949 Ry
     estimated scf accuracy    <       0.00035869 Ry

     total magnetization       =     3.23 Bohr mag/cell
     absolute magnetization    =     3.39 Bohr mag/cell

     iteration #  7     ecut=    40.00 Ry     beta= 0.40
     PPCG style diagonalization

---- Real-time Memory Report at c_bands before calling an iterative solver
            67 MiB given to the printing process from OS
            25 MiB allocation reported by mallinfo(arena+hblkhd)
        486943 MiB available memory on the node where the printing process lives
------------------
     ethr =  7.33E-07,  avg # of iterations =  9.8

     negative rho (up, down):  2.372E-04 1.593E-03

     total cpu time spent up to now is       11.9 secs

     total energy              =    -424.28254371 Ry
     estimated scf accuracy    <       0.00147589 Ry

     total magnetization       =     4.13 Bohr mag/cell
     absolute magnetization    =     4.32 Bohr mag/cell

     iteration #  8     ecut=    40.00 Ry     beta= 0.40
     PPCG style diagonalization

---- Real-time Memory Report at c_bands before calling an iterative solver
            67 MiB given to the printing process from OS
            26 MiB allocation reported by mallinfo(arena+hblkhd)
        486942 MiB available memory on the node where the printing process lives
------------------
     ethr =  7.33E-07,  avg # of iterations = 10.2

     negative rho (up, down):  2.175E-04 1.610E-03

     total cpu time spent up to now is       13.6 secs

     total energy              =    -424.30240208 Ry
     estimated scf accuracy    <       0.00040145 Ry

     total magnetization       =     2.81 Bohr mag/cell
     absolute magnetization    =     2.97 Bohr mag/cell

     iteration #  9     ecut=    40.00 Ry     beta= 0.40
     PPCG style diagonalization

---- Real-time Memory Report at c_bands before calling an iterative solver
            68 MiB given to the printing process from OS
            26 MiB allocation reported by mallinfo(arena+hblkhd)
        486941 MiB available memory on the node where the printing process lives
------------------
     ethr =  7.33E-07,  avg # of iterations =  7.2

     negative rho (up, down):  1.173E-04 1.696E-03

     total cpu time spent up to now is       14.9 secs

     total energy              =    -424.29480978 Ry
     estimated scf accuracy    <       0.00032119 Ry

     total magnetization       =     2.96 Bohr mag/cell
     absolute magnetization    =     3.12 Bohr mag/cell

     iteration # 10     ecut=    40.00 Ry     beta= 0.40
     PPCG style diagonalization

---- Real-time Memory Report at c_bands before calling an iterative solver
            68 MiB given to the printing process from OS
            26 MiB allocation reported by mallinfo(arena+hblkhd)
        486940 MiB available memory on the node where the printing process lives
------------------
     ethr =  7.33E-07,  avg # of iterations =  9.3

     negative rho (up, down):  1.803E-04 1.642E-03

     total cpu time spent up to now is       16.4 secs

     total energy              =    -424.29987088 Ry
     estimated scf accuracy    <       0.00040187 Ry

     total magnetization       =     3.61 Bohr mag/cell
     absolute magnetization    =     3.78 Bohr mag/cell

     iteration # 11     ecut=    40.00 Ry     beta= 0.40
     PPCG style diagonalization

---- Real-time Memory Report at c_bands before calling an iterative solver
            68 MiB given to the printing process from OS
            26 MiB allocation reported by mallinfo(arena+hblkhd)
        486940 MiB available memory on the node where the printing process lives
------------------
     ethr =  7.33E-07,  avg # of iterations =  9.0

     negative rho (up, down):  7.611E-05 1.729E-03

     total cpu time spent up to now is       17.9 secs

     total energy              =    -424.29359856 Ry
     estimated scf accuracy    <       0.00026710 Ry

     total magnetization       =     3.22 Bohr mag/cell
     absolute magnetization    =     3.39 Bohr mag/cell

     iteration # 12     ecut=    40.00 Ry     beta= 0.40
     PPCG style diagonalization

---- Real-time Memory Report at c_bands before calling an iterative solver
            68 MiB given to the printing process from OS
            26 MiB allocation reported by mallinfo(arena+hblkhd)
        486934 MiB available memory on the node where the printing process lives
------------------
     ethr =  6.36E-07,  avg # of iterations =  9.4

     negative rho (up, down):  1.727E-04 1.649E-03

     total cpu time spent up to now is       19.4 secs

     total energy              =    -424.29747080 Ry
     estimated scf accuracy    <       0.00067469 Ry

     total magnetization       =     3.84 Bohr mag/cell
     absolute magnetization    =     4.01 Bohr mag/cell

     iteration # 13     ecut=    40.00 Ry     beta= 0.40
     PPCG style diagonalization

---- Real-time Memory Report at c_bands before calling an iterative solver
            68 MiB given to the printing process from OS
            26 MiB allocation reported by mallinfo(arena+hblkhd)
        486934 MiB available memory on the node where the printing process lives
------------------
     ethr =  6.36E-07,  avg # of iterations =  9.3

     negative rho (up, down):  2.588E-04 1.578E-03

     total cpu time spent up to now is       20.9 secs

     total energy              =    -424.29965121 Ry
     estimated scf accuracy    <       0.00026749 Ry

     total magnetization       =     3.27 Bohr mag/cell
     absolute magnetization    =     3.44 Bohr mag/cell

     iteration # 14     ecut=    40.00 Ry     beta= 0.40
     PPCG style diagonalization

---- Real-time Memory Report at c_bands before calling an iterative solver
            68 MiB given to the printing process from OS
            26 MiB allocation reported by mallinfo(arena+hblkhd)
        486934 MiB available memory on the node where the printing process lives
------------------
     ethr =  6.36E-07,  avg # of iterations =  9.3

     negative rho (up, down):  3.344E-04 1.516E-03

     total cpu time spent up to now is       22.4 secs

     total energy              =    -424.30326312 Ry
     estimated scf accuracy    <       0.00054786 Ry

     total magnetization       =     2.65 Bohr mag/cell
     absolute magnetization    =     2.82 Bohr mag/cell

     iteration # 15     ecut=    40.00 Ry     beta= 0.40
     PPCG style diagonalization

---- Real-time Memory Report at c_bands before calling an iterative solver
            68 MiB given to the printing process from OS
            26 MiB allocation reported by mallinfo(arena+hblkhd)
        486933 MiB available memory on the node where the printing process lives
------------------
     ethr =  6.36E-07,  avg # of iterations =  9.2

     negative rho (up, down):  3.580E-04 1.496E-03

     total cpu time spent up to now is       23.8 secs

     total energy              =    -424.30831569 Ry
     estimated scf accuracy    <       0.00200824 Ry

     total magnetization       =     1.99 Bohr mag/cell
     absolute magnetization    =     2.47 Bohr mag/cell

     iteration # 16     ecut=    40.00 Ry     beta= 0.40
     PPCG style diagonalization

---- Real-time Memory Report at c_bands before calling an iterative solver
            68 MiB given to the printing process from OS
            26 MiB allocation reported by mallinfo(arena+hblkhd)
        486933 MiB available memory on the node where the printing process lives
------------------
     ethr =  6.36E-07,  avg # of iterations =  8.0

     negative rho (up, down):  3.527E-04 1.501E-03

     total cpu time spent up to now is       25.2 secs

     total energy              =    -424.30833718 Ry
     estimated scf accuracy    <       0.00304138 Ry

     total magnetization       =     1.76 Bohr mag/cell
     absolute magnetization    =     2.57 Bohr mag/cell

     iteration # 17     ecut=    40.00 Ry     beta= 0.40
     PPCG style diagonalization

---- Real-time Memory Report at c_bands before calling an iterative solver
            68 MiB given to the printing process from OS
            26 MiB allocation reported by mallinfo(arena+hblkhd)
        486932 MiB available memory on the node where the printing process lives
------------------
     ethr =  6.36E-07,  avg # of iterations =  3.1

     negative rho (up, down):  3.717E-04 1.485E-03

     total cpu time spent up to now is       25.7 secs

     total energy              =    -424.30948948 Ry
     estimated scf accuracy    <       0.00272900 Ry

     total magnetization       =     1.81 Bohr mag/cell
     absolute magnetization    =     2.53 Bohr mag/cell

     iteration # 18     ecut=    40.00 Ry     beta= 0.40
     PPCG style diagonalization

---- Real-time Memory Report at c_bands before calling an iterative solver
            68 MiB given to the printing process from OS
            26 MiB allocation reported by mallinfo(arena+hblkhd)
        486932 MiB available memory on the node where the printing process lives
------------------
     ethr =  6.36E-07,  avg # of iterations =  6.6

     negative rho (up, down):  4.454E-04 1.423E-03

     total cpu time spent up to now is       27.0 secs

     total energy              =    -424.31283120 Ry
     estimated scf accuracy    <       0.00386402 Ry

     total magnetization       =     1.63 Bohr mag/cell
     absolute magnetization    =     2.70 Bohr mag/cell

     iteration # 19     ecut=    40.00 Ry     beta= 0.40
     PPCG style diagonalization

---- Real-time Memory Report at c_bands before calling an iterative solver
            68 MiB given to the printing process from OS
            26 MiB allocation reported by mallinfo(arena+hblkhd)
        486931 MiB available memory on the node where the printing process lives
------------------
     ethr =  6.36E-07,  avg # of iterations =  9.2

     negative rho (up, down):  4.505E-04 1.419E-03

     total cpu time spent up to now is       28.4 secs

     total energy              =    -424.31804963 Ry
     estimated scf accuracy    <       0.01254597 Ry

     total magnetization       =     0.92 Bohr mag/cell
     absolute magnetization    =     3.47 Bohr mag/cell

     iteration # 20     ecut=    40.00 Ry     beta= 0.40
     PPCG style diagonalization

---- Real-time Memory Report at c_bands before calling an iterative solver
            68 MiB given to the printing process from OS
            26 MiB allocation reported by mallinfo(arena+hblkhd)
        486931 MiB available memory on the node where the printing process lives
------------------
     ethr =  6.36E-07,  avg # of iterations =  2.9

     negative rho (up, down):  4.285E-04 1.437E-03

     total cpu time spent up to now is       28.9 secs

     total energy              =    -424.31492816 Ry
     estimated scf accuracy    <       0.01348931 Ry

     total magnetization       =     0.88 Bohr mag/cell
     absolute magnetization    =     3.52 Bohr mag/cell

     iteration # 21     ecut=    40.00 Ry     beta= 0.40
     PPCG style diagonalization

---- Real-time Memory Report at c_bands before calling an iterative solver
            68 MiB given to the printing process from OS
            26 MiB allocation reported by mallinfo(arena+hblkhd)
        486931 MiB available memory on the node where the printing process lives
------------------
     ethr =  6.36E-07,  avg # of iterations =  7.2

     negative rho (up, down):  6.872E-05 1.736E-03

     total cpu time spent up to now is       30.2 secs

     total energy              =    -424.20443282 Ry
     estimated scf accuracy    <       0.00981635 Ry

     total magnetization       =     1.08 Bohr mag/cell
     absolute magnetization    =     3.29 Bohr mag/cell

     iteration # 22     ecut=    40.00 Ry     beta= 0.40
     PPCG style diagonalization

---- Real-time Memory Report at c_bands before calling an iterative solver
            68 MiB given to the printing process from OS
            26 MiB allocation reported by mallinfo(arena+hblkhd)
        486930 MiB available memory on the node where the printing process lives
------------------
     ethr =  6.36E-07,  avg # of iterations = 10.9

     negative rho (up, down):  0.000E+00 2.548E-03

     total cpu time spent up to now is       32.0 secs

     total energy              =    -424.28252135 Ry
     estimated scf accuracy    <       0.00078866 Ry

     total magnetization       =     3.88 Bohr mag/cell
     absolute magnetization    =     4.06 Bohr mag/cell

     iteration # 23     ecut=    40.00 Ry     beta= 0.40
     PPCG style diagonalization

---- Real-time Memory Report at c_bands before calling an iterative solver
            69 MiB given to the printing process from OS
            26 MiB allocation reported by mallinfo(arena+hblkhd)
        486929 MiB available memory on the node where the printing process lives
------------------
     ethr =  6.36E-07,  avg # of iterations =  9.7

     negative rho (up, down):  8.919E-05 1.720E-03

     total cpu time spent up to now is       33.6 secs

     total energy              =    -424.29098003 Ry
     estimated scf accuracy    <       0.00431001 Ry

     total magnetization       =     4.49 Bohr mag/cell
     absolute magnetization    =     4.69 Bohr mag/cell

     iteration # 24     ecut=    40.00 Ry     beta= 0.40
     PPCG style diagonalization

---- Real-time Memory Report at c_bands before calling an iterative solver
            69 MiB given to the printing process from OS
            26 MiB allocation reported by mallinfo(arena+hblkhd)
        486931 MiB available memory on the node where the printing process lives
------------------
     ethr =  6.36E-07,  avg # of iterations =  9.9

     negative rho (up, down):  0.000E+00 3.396E-03

     total cpu time spent up to now is       35.3 secs

     total energy              =    -424.26335185 Ry
     estimated scf accuracy    <       0.00057509 Ry

     total magnetization       =     3.77 Bohr mag/cell
     absolute magnetization    =     3.94 Bohr mag/cell

     iteration # 25     ecut=    40.00 Ry     beta= 0.40
     PPCG style diagonalization

---- Real-time Memory Report at c_bands before calling an iterative solver
            69 MiB given to the printing process from OS
            26 MiB allocation reported by mallinfo(arena+hblkhd)
        486931 MiB available memory on the node where the printing process lives
------------------
     ethr =  6.36E-07,  avg # of iterations = 10.3

     negative rho (up, down):  0.000E+00 2.960E-03

     total cpu time spent up to now is       37.0 secs

     total energy              =    -424.28569161 Ry
     estimated scf accuracy    <       0.00784522 Ry

     total magnetization       =     4.73 Bohr mag/cell
     absolute magnetization    =     4.95 Bohr mag/cell

     iteration # 26     ecut=    40.00 Ry     beta= 0.40
     PPCG style diagonalization

---- Real-time Memory Report at c_bands before calling an iterative solver
            69 MiB given to the printing process from OS
            26 MiB allocation reported by mallinfo(arena+hblkhd)
        486931 MiB available memory on the node where the printing process lives
------------------
     ethr =  6.36E-07,  avg # of iterations =  8.4

     negative rho (up, down):  0.000E+00 2.921E-03

     total cpu time spent up to now is       38.4 secs

     total energy              =    -424.28634207 Ry
     estimated scf accuracy    <       0.00580958 Ry

     total magnetization       =     4.61 Bohr mag/cell
     absolute magnetization    =     4.82 Bohr mag/cell

     iteration # 27     ecut=    40.00 Ry     beta= 0.40
     PPCG style diagonalization

---- Real-time Memory Report at c_bands before calling an iterative solver
            69 MiB given to the printing process from OS
            26 MiB allocation reported by mallinfo(arena+hblkhd)
        486930 MiB available memory on the node where the printing process lives
------------------
     ethr =  6.36E-07,  avg # of iterations =  2.2

     negative rho (up, down):  1.933E-05 1.778E-03

     total cpu time spent up to now is       38.8 secs

     total energy              =    -424.29196561 Ry
     estimated scf accuracy    <       0.00564885 Ry

     total magnetization       =     4.60 Bohr mag/cell
     absolute magnetization    =     4.81 Bohr mag/cell

     iteration # 28     ecut=    40.00 Ry     beta= 0.40
     PPCG style diagonalization

---- Real-time Memory Report at c_bands before calling an iterative solver
            69 MiB given to the printing process from OS
            26 MiB allocation reported by mallinfo(arena+hblkhd)
        486930 MiB available memory on the node where the printing process lives
------------------
     ethr =  6.36E-07,  avg # of iterations =  9.6

     negative rho (up, down):  1.754E-05 1.779E-03

     total cpu time spent up to now is       40.3 secs

     total energy              =    -424.29622862 Ry
     estimated scf accuracy    <       0.00142896 Ry

     total magnetization       =     4.11 Bohr mag/cell
     absolute magnetization    =     4.29 Bohr mag/cell

     iteration # 29     ecut=    40.00 Ry     beta= 0.40
     PPCG style diagonalization

---- Real-time Memory Report at c_bands before calling an iterative solver
            69 MiB given to the printing process from OS
            26 MiB allocation reported by mallinfo(arena+hblkhd)
        486930 MiB available memory on the node where the printing process lives
------------------
     ethr =  6.36E-07,  avg # of iterations =  2.0

     negative rho (up, down):  1.196E-04 1.693E-03

     total cpu time spent up to now is       40.7 secs

     total energy              =    -424.29634913 Ry
     estimated scf accuracy    <       0.00149411 Ry

     total magnetization       =     4.12 Bohr mag/cell
     absolute magnetization    =     4.30 Bohr mag/cell

     iteration # 30     ecut=    40.00 Ry     beta= 0.40
     PPCG style diagonalization

---- Real-time Memory Report at c_bands before calling an iterative solver
            69 MiB given to the printing process from OS
            26 MiB allocation reported by mallinfo(arena+hblkhd)
        486930 MiB available memory on the node where the printing process lives
------------------
     ethr =  6.36E-07,  avg # of iterations =  9.4

     negative rho (up, down):  2.118E-04 1.617E-03

     total cpu time spent up to now is       42.2 secs

     total energy              =    -424.29831923 Ry
     estimated scf accuracy    <       0.00046587 Ry

     total magnetization       =     3.60 Bohr mag/cell
     absolute magnetization    =     3.77 Bohr mag/cell

     iteration # 31     ecut=    40.00 Ry     beta= 0.40
     PPCG style diagonalization

---- Real-time Memory Report at c_bands before calling an iterative solver
            69 MiB given to the printing process from OS
            26 MiB allocation reported by mallinfo(arena+hblkhd)
        486927 MiB available memory on the node where the printing process lives
------------------
     ethr =  6.36E-07,  avg # of iterations =  9.3

     negative rho (up, down):  3.321E-04 1.518E-03

     total cpu time spent up to now is       43.7 secs

     total energy              =    -424.29780443 Ry
     estimated scf accuracy    <       0.00035087 Ry

     total magnetization       =     3.00 Bohr mag/cell
     absolute magnetization    =     3.16 Bohr mag/cell

     iteration # 32     ecut=    40.00 Ry     beta= 0.40
     PPCG style diagonalization

---- Real-time Memory Report at c_bands before calling an iterative solver
            69 MiB given to the printing process from OS
            26 MiB allocation reported by mallinfo(arena+hblkhd)
        486927 MiB available memory on the node where the printing process lives
------------------
     ethr =  6.36E-07,  avg # of iterations =  9.5

     negative rho (up, down):  6.461E-07 5.256E-03

     total cpu time spent up to now is       45.2 secs

     total energy              =    -424.06165829 Ry
     estimated scf accuracy    <       0.00203815 Ry

     total magnetization       =     2.00 Bohr mag/cell
     absolute magnetization    =     2.47 Bohr mag/cell

     iteration # 33     ecut=    40.00 Ry     beta= 0.40
     PPCG style diagonalization

---- Real-time Memory Report at c_bands before calling an iterative solver
            69 MiB given to the printing process from OS
            26 MiB allocation reported by mallinfo(arena+hblkhd)
        486927 MiB available memory on the node where the printing process lives
------------------
     ethr =  6.36E-07,  avg # of iterations = 11.8

     negative rho (up, down):  2.012E-05 1.203E-02

     total cpu time spent up to now is       47.1 secs

     total energy              =    -424.12916806 Ry
     estimated scf accuracy    <       0.02141680 Ry

     total magnetization       =     5.20 Bohr mag/cell
     absolute magnetization    =     5.45 Bohr mag/cell

     iteration # 34     ecut=    40.00 Ry     beta= 0.40
     PPCG style diagonalization

---- Real-time Memory Report at c_bands before calling an iterative solver
            69 MiB given to the printing process from OS
            26 MiB allocation reported by mallinfo(arena+hblkhd)
        486927 MiB available memory on the node where the printing process lives
------------------
     ethr =  6.36E-07,  avg # of iterations = 10.7

     negative rho (up, down):  4.095E-05 7.072E-02

     total cpu time spent up to now is       48.9 secs

     total energy              =    -423.92807162 Ry
     estimated scf accuracy    <       0.08827606 Ry

     total magnetization       =     5.90 Bohr mag/cell
     absolute magnetization    =     6.21 Bohr mag/cell

     iteration # 35     ecut=    40.00 Ry     beta= 0.40
     PPCG style diagonalization

---- Real-time Memory Report at c_bands before calling an iterative solver
            69 MiB given to the printing process from OS
            26 MiB allocation reported by mallinfo(arena+hblkhd)
        486927 MiB available memory on the node where the printing process lives
------------------
     ethr =  6.36E-07,  avg # of iterations = 10.7

     negative rho (up, down):  8.855E-06 6.809E-03

     total cpu time spent up to now is       50.7 secs

     total energy              =    -424.19831484 Ry
     estimated scf accuracy    <       0.21950637 Ry

     total magnetization       =     6.12 Bohr mag/cell
     absolute magnetization    =     6.50 Bohr mag/cell

     iteration # 36     ecut=    40.00 Ry     beta= 0.40
     PPCG style diagonalization

---- Real-time Memory Report at c_bands before calling an iterative solver
            69 MiB given to the printing process from OS
            26 MiB allocation reported by mallinfo(arena+hblkhd)
        486927 MiB available memory on the node where the printing process lives
------------------
     ethr =  6.36E-07,  avg # of iterations = 11.6

     negative rho (up, down):  0.000E+00 2.446E-03

     total cpu time spent up to now is       52.7 secs

     total energy              =    -424.26688046 Ry
     estimated scf accuracy    <       0.03985064 Ry

     total magnetization       =     5.53 Bohr mag/cell
     absolute magnetization    =     5.80 Bohr mag/cell

     iteration # 37     ecut=    40.00 Ry     beta= 0.40
     PPCG style diagonalization

---- Real-time Memory Report at c_bands before calling an iterative solver
            69 MiB given to the printing process from OS
            26 MiB allocation reported by mallinfo(arena+hblkhd)
        486927 MiB available memory on the node where the printing process lives
------------------
     ethr =  6.36E-07,  avg # of iterations = 10.9

     negative rho (up, down):  0.000E+00 1.888E-03

     total cpu time spent up to now is       54.5 secs

     total energy              =    -424.29312909 Ry
     estimated scf accuracy    <       0.00401269 Ry

     total magnetization       =     4.46 Bohr mag/cell
     absolute magnetization    =     4.66 Bohr mag/cell

     iteration # 38     ecut=    40.00 Ry     beta= 0.40
     PPCG style diagonalization

---- Real-time Memory Report at c_bands before calling an iterative solver
            69 MiB given to the printing process from OS
            26 MiB allocation reported by mallinfo(arena+hblkhd)
        486929 MiB available memory on the node where the printing process lives
------------------
     ethr =  6.36E-07,  avg # of iterations =  8.7

     negative rho (up, down):  1.672E-04 1.652E-03

     total cpu time spent up to now is       55.9 secs

     total energy              =    -424.28815972 Ry
     estimated scf accuracy    <       0.00250987 Ry

     total magnetization       =     4.29 Bohr mag/cell
     absolute magnetization    =     4.48 Bohr mag/cell

     iteration # 39     ecut=    40.00 Ry     beta= 0.40
     PPCG style diagonalization

---- Real-time Memory Report at c_bands before calling an iterative solver
            69 MiB given to the printing process from OS
            26 MiB allocation reported by mallinfo(arena+hblkhd)
        486927 MiB available memory on the node where the printing process lives
------------------
     ethr =  6.36E-07,  avg # of iterations = 10.0

     negative rho (up, down):  4.012E-04 1.457E-03

     total cpu time spent up to now is       57.6 secs

     total energy              =    -424.27820611 Ry
     estimated scf accuracy    <       0.00030759 Ry

     total magnetization       =     3.31 Bohr mag/cell
     absolute magnetization    =     3.47 Bohr mag/cell

     iteration # 40     ecut=    40.00 Ry     beta= 0.40
     PPCG style diagonalization

---- Real-time Memory Report at c_bands before calling an iterative solver
            69 MiB given to the printing process from OS
            26 MiB allocation reported by mallinfo(arena+hblkhd)
        486927 MiB available memory on the node where the printing process lives
------------------
     ethr =  6.36E-07,  avg # of iterations = 10.2

     negative rho (up, down):  3.881E-04 1.470E-03

     total cpu time spent up to now is       59.2 secs

     total energy              =    -424.31107010 Ry
     estimated scf accuracy    <       0.00629573 Ry

     total magnetization       =     1.34 Bohr mag/cell
     absolute magnetization    =     2.99 Bohr mag/cell

     iteration # 41     ecut=    40.00 Ry     beta= 0.40
     PPCG style diagonalization

---- Real-time Memory Report at c_bands before calling an iterative solver
            69 MiB given to the printing process from OS
            26 MiB allocation reported by mallinfo(arena+hblkhd)
        486927 MiB available memory on the node where the printing process lives
------------------
     ethr =  6.36E-07,  avg # of iterations =  6.4

     negative rho (up, down):  2.225E-04 1.607E-03

     total cpu time spent up to now is       60.3 secs

     total energy              =    -424.28158449 Ry
     estimated scf accuracy    <       0.00527893 Ry

     total magnetization       =     1.47 Bohr mag/cell
     absolute magnetization    =     2.86 Bohr mag/cell

     iteration # 42     ecut=    40.00 Ry     beta= 0.40
     PPCG style diagonalization

---- Real-time Memory Report at c_bands before calling an iterative solver
            69 MiB given to the printing process from OS
            26 MiB allocation reported by mallinfo(arena+hblkhd)
        486927 MiB available memory on the node where the printing process lives
------------------
     ethr =  6.36E-07,  avg # of iterations =  9.8

     negative rho (up, down):  2.388E-04 1.594E-03

     total cpu time spent up to now is       61.9 secs

     total energy              =    -424.30303023 Ry
     estimated scf accuracy    <       0.00037786 Ry

     total magnetization       =     2.93 Bohr mag/cell
     absolute magnetization    =     3.09 Bohr mag/cell

     iteration # 43     ecut=    40.00 Ry     beta= 0.40
     PPCG style diagonalization

---- Real-time Memory Report at c_bands before calling an iterative solver
            69 MiB given to the printing process from OS
            26 MiB allocation reported by mallinfo(arena+hblkhd)
        486926 MiB available memory on the node where the printing process lives
------------------
     ethr =  6.36E-07,  avg # of iterations =  7.2

     negative rho (up, down):  1.345E-04 1.681E-03

     total cpu time spent up to now is       63.2 secs

     total energy              =    -424.29450984 Ry
     estimated scf accuracy    <       0.00047328 Ry

     total magnetization       =     2.81 Bohr mag/cell
     absolute magnetization    =     2.97 Bohr mag/cell

     iteration # 44     ecut=    40.00 Ry     beta= 0.40
     PPCG style diagonalization

---- Real-time Memory Report at c_bands before calling an iterative solver
            69 MiB given to the printing process from OS
            26 MiB allocation reported by mallinfo(arena+hblkhd)
        486926 MiB available memory on the node where the printing process lives
------------------
     ethr =  6.36E-07,  avg # of iterations =  9.4

     negative rho (up, down):  1.233E-04 1.690E-03

     total cpu time spent up to now is       64.7 secs

     total energy              =    -424.30031751 Ry
     estimated scf accuracy    <       0.00043177 Ry

     total magnetization       =     3.52 Bohr mag/cell
     absolute magnetization    =     3.68 Bohr mag/cell

     iteration # 45     ecut=    40.00 Ry     beta= 0.40
     PPCG style diagonalization

---- Real-time Memory Report at c_bands before calling an iterative solver
            69 MiB given to the printing process from OS
            26 MiB allocation reported by mallinfo(arena+hblkhd)
        486926 MiB available memory on the node where the printing process lives
------------------
     ethr =  6.36E-07,  avg # of iterations =  5.2

     negative rho (up, down):  1.286E-04 1.686E-03

     total cpu time spent up to now is       65.8 secs

     total energy              =    -424.30050446 Ry
     estimated scf accuracy    <       0.00047007 Ry

     total magnetization       =     3.58 Bohr mag/cell
     absolute magnetization    =     3.75 Bohr mag/cell

     iteration # 46     ecut=    40.00 Ry     beta= 0.40
     PPCG style diagonalization

---- Real-time Memory Report at c_bands before calling an iterative solver
            69 MiB given to the printing process from OS
            26 MiB allocation reported by mallinfo(arena+hblkhd)
        486926 MiB available memory on the node where the printing process lives
------------------
     ethr =  6.36E-07,  avg # of iterations =  2.8

     negative rho (up, down):  2.323E-04 1.600E-03

     total cpu time spent up to now is       66.3 secs

     total energy              =    -424.29754389 Ry
     estimated scf accuracy    <       0.00045220 Ry

     total magnetization       =     3.55 Bohr mag/cell
     absolute magnetization    =     3.72 Bohr mag/cell

     iteration # 47     ecut=    40.00 Ry     beta= 0.40
     PPCG style diagonalization

---- Real-time Memory Report at c_bands before calling an iterative solver
            69 MiB given to the printing process from OS
            26 MiB allocation reported by mallinfo(arena+hblkhd)
        486926 MiB available memory on the node where the printing process lives
------------------
     ethr =  6.36E-07,  avg # of iterations =  9.4

     negative rho (up, down):  1.593E-04 1.661E-03

     total cpu time spent up to now is       67.9 secs

     total energy              =    -424.29823194 Ry
     estimated scf accuracy    <       0.00045262 Ry

     total magnetization       =     2.85 Bohr mag/cell
     absolute magnetization    =     3.02 Bohr mag/cell

     iteration # 48     ecut=    40.00 Ry     beta= 0.40
     PPCG style diagonalization

---- Real-time Memory Report at c_bands before calling an iterative solver
            69 MiB given to the printing process from OS
            26 MiB allocation reported by mallinfo(arena+hblkhd)
        486926 MiB available memory on the node where the printing process lives
------------------
     ethr =  6.36E-07,  avg # of iterations =  9.1

     negative rho (up, down):  1.682E-04 1.654E-03

     total cpu time spent up to now is       69.3 secs

     total energy              =    -424.30144143 Ry
     estimated scf accuracy    <       0.00036103 Ry

     total magnetization       =     3.36 Bohr mag/cell
     absolute magnetization    =     3.53 Bohr mag/cell

     iteration # 49     ecut=    40.00 Ry     beta= 0.40
     PPCG style diagonalization

---- Real-time Memory Report at c_bands before calling an iterative solver
            69 MiB given to the printing process from OS
            26 MiB allocation reported by mallinfo(arena+hblkhd)
        486926 MiB available memory on the node where the printing process lives
------------------
     ethr =  6.36E-07,  avg # of iterations =  4.4

     negative rho (up, down):  1.288E-04 1.687E-03

     total cpu time spent up to now is       70.2 secs

     total energy              =    -424.29975847 Ry
     estimated scf accuracy    <       0.00035234 Ry

     total magnetization       =     3.31 Bohr mag/cell
     absolute magnetization    =     3.47 Bohr mag/cell

     iteration # 50     ecut=    40.00 Ry     beta= 0.40
     PPCG style diagonalization

---- Real-time Memory Report at c_bands before calling an iterative solver
            69 MiB given to the printing process from OS
            26 MiB allocation reported by mallinfo(arena+hblkhd)
        486926 MiB available memory on the node where the printing process lives
------------------
     ethr =  6.36E-07,  avg # of iterations =  8.5

     negative rho (up, down):  0.000E+00 1.969E-03

     total cpu time spent up to now is       71.6 secs

     total energy              =    -424.28341540 Ry
     estimated scf accuracy    <       0.00043512 Ry

     total magnetization       =     3.55 Bohr mag/cell
     absolute magnetization    =     3.72 Bohr mag/cell

     iteration # 51     ecut=    40.00 Ry     beta= 0.40
     PPCG style diagonalization

---- Real-time Memory Report at c_bands before calling an iterative solver
            70 MiB given to the printing process from OS
            26 MiB allocation reported by mallinfo(arena+hblkhd)
        486926 MiB available memory on the node where the printing process lives
------------------
     ethr =  6.36E-07,  avg # of iterations =  9.8

     negative rho (up, down):  7.776E-04 1.146E-03

     total cpu time spent up to now is       73.2 secs

     total energy              =    -424.00359388 Ry
     estimated scf accuracy    <       0.00266714 Ry

     total magnetization       =     4.31 Bohr mag/cell
     absolute magnetization    =     4.50 Bohr mag/cell

     iteration # 52     ecut=    40.00 Ry     beta= 0.40
     PPCG style diagonalization

---- Real-time Memory Report at c_bands before calling an iterative solver
            70 MiB given to the printing process from OS
            26 MiB allocation reported by mallinfo(arena+hblkhd)
        486926 MiB available memory on the node where the printing process lives
------------------
     ethr =  6.36E-07,  avg # of iterations = 12.3
     Minimization algorithm failed to find Fermi energy: reverting to bisection
     Possible cause: smearing is larger than the electronic band-gap.

     negative rho (up, down):  4.275E-04 1.436E-03

     total cpu time spent up to now is       75.2 secs

     total energy              =    -424.26460166 Ry
     estimated scf accuracy    <       0.18078870 Ry

     total magnetization       =    -0.06 Bohr mag/cell
     absolute magnetization    =     5.73 Bohr mag/cell

     iteration # 53     ecut=    40.00 Ry     beta= 0.40
     PPCG style diagonalization

---- Real-time Memory Report at c_bands before calling an iterative solver
            70 MiB given to the printing process from OS
            26 MiB allocation reported by mallinfo(arena+hblkhd)
        486966 MiB available memory on the node where the printing process lives
------------------
     ethr =  6.36E-07,  avg # of iterations = 10.6

     negative rho (up, down):  2.207E-04 1.609E-03

     total cpu time spent up to now is       76.9 secs

     total energy              =    -424.26862858 Ry
     estimated scf accuracy    <       0.01018121 Ry

     total magnetization       =     1.09 Bohr mag/cell
     absolute magnetization    =     3.27 Bohr mag/cell

     iteration # 54     ecut=    40.00 Ry     beta= 0.40
     PPCG style diagonalization

---- Real-time Memory Report at c_bands before calling an iterative solver
            70 MiB given to the printing process from OS
            26 MiB allocation reported by mallinfo(arena+hblkhd)
        486966 MiB available memory on the node where the printing process lives
------------------
     ethr =  6.36E-07,  avg # of iterations = 10.0

     negative rho (up, down):  8.992E-05 1.719E-03

     total cpu time spent up to now is       78.6 secs

     total energy              =    -424.29036543 Ry
     estimated scf accuracy    <       0.00041716 Ry

     total magnetization       =     2.95 Bohr mag/cell
     absolute magnetization    =     3.11 Bohr mag/cell

     iteration # 55     ecut=    40.00 Ry     beta= 0.40
     PPCG style diagonalization

---- Real-time Memory Report at c_bands before calling an iterative solver
            70 MiB given to the printing process from OS
            26 MiB allocation reported by mallinfo(arena+hblkhd)
        486966 MiB available memory on the node where the printing process lives
------------------
     ethr =  6.36E-07,  avg # of iterations =  9.6

     negative rho (up, down):  6.252E-05 1.742E-03

     total cpu time spent up to now is       80.1 secs

     total energy              =    -424.29806749 Ry
     estimated scf accuracy    <       0.00068543 Ry

     total magnetization       =     3.77 Bohr mag/cell
     absolute magnetization    =     3.94 Bohr mag/cell

     iteration # 56     ecut=    40.00 Ry     beta= 0.40
     PPCG style diagonalization

---- Real-time Memory Report at c_bands before calling an iterative solver
            70 MiB given to the printing process from OS
            26 MiB allocation reported by mallinfo(arena+hblkhd)
        486965 MiB available memory on the node where the printing process lives
------------------
     ethr =  6.36E-07,  avg # of iterations =  8.2

     negative rho (up, down):  8.465E-05 1.724E-03

     total cpu time spent up to now is       81.5 secs

     total energy              =    -424.29900541 Ry
     estimated scf accuracy    <       0.00095893 Ry

     total magnetization       =     3.91 Bohr mag/cell
     absolute magnetization    =     4.09 Bohr mag/cell

     iteration # 57     ecut=    40.00 Ry     beta= 0.40
     PPCG style diagonalization

---- Real-time Memory Report at c_bands before calling an iterative solver
            70 MiB given to the printing process from OS
            26 MiB allocation reported by mallinfo(arena+hblkhd)
        486965 MiB available memory on the node where the printing process lives
------------------
     ethr =  6.36E-07,  avg # of iterations =  7.5

     negative rho (up, down):  1.369E-04 1.680E-03

     total cpu time spent up to now is       82.9 secs

     total energy              =    -424.29955518 Ry
     estimated scf accuracy    <       0.00071946 Ry

     total magnetization       =     3.80 Bohr mag/cell
     absolute magnetization    =     3.97 Bohr mag/cell

     iteration # 58     ecut=    40.00 Ry     beta= 0.40
     PPCG style diagonalization

---- Real-time Memory Report at c_bands before calling an iterative solver
            70 MiB given to the printing process from OS
            26 MiB allocation reported by mallinfo(arena+hblkhd)
        486965 MiB available memory on the node where the printing process lives
------------------
     ethr =  6.36E-07,  avg # of iterations =  8.9

     negative rho (up, down):  1.593E-04 1.661E-03

     total cpu time spent up to now is       84.3 secs

     total energy              =    -424.30103595 Ry
     estimated scf accuracy    <       0.00040293 Ry

     total magnetization       =     3.50 Bohr mag/cell
     absolute magnetization    =     3.67 Bohr mag/cell

     iteration # 59     ecut=    40.00 Ry     beta= 0.40
     PPCG style diagonalization

---- Real-time Memory Report at c_bands before calling an iterative solver
            70 MiB given to the printing process from OS
            26 MiB allocation reported by mallinfo(arena+hblkhd)
        486965 MiB available memory on the node where the printing process lives
------------------
     ethr =  6.36E-07,  avg # of iterations =  7.9

     negative rho (up, down):  1.366E-04 1.681E-03

     total cpu time spent up to now is       85.6 secs

     total energy              =    -424.30047170 Ry
     estimated scf accuracy    <       0.00034293 Ry

     total magnetization       =     3.36 Bohr mag/cell
     absolute magnetization    =     3.53 Bohr mag/cell

     iteration # 60     ecut=    40.00 Ry     beta= 0.40
     PPCG style diagonalization

---- Real-time Memory Report at c_bands before calling an iterative solver
            70 MiB given to the printing process from OS
            26 MiB allocation reported by mallinfo(arena+hblkhd)
        486965 MiB available memory on the node where the printing process lives
------------------
     ethr =  6.36E-07,  avg # of iterations =  7.6

     negative rho (up, down):  1.256E-04 1.690E-03

     total cpu time spent up to now is       87.0 secs

     total energy              =    -424.30038661 Ry
     estimated scf accuracy    <       0.00039593 Ry

     total magnetization       =     3.50 Bohr mag/cell
     absolute magnetization    =     3.67 Bohr mag/cell

     iteration # 61     ecut=    40.00 Ry     beta= 0.40
     PPCG style diagonalization

---- Real-time Memory Report at c_bands before calling an iterative solver
            70 MiB given to the printing process from OS
            26 MiB allocation reported by mallinfo(arena+hblkhd)
        486956 MiB available memory on the node where the printing process lives
------------------
     ethr =  6.36E-07,  avg # of iterations =  5.4

     negative rho (up, down):  2.173E-04 1.612E-03

     total cpu time spent up to now is       88.1 secs

     total energy              =    -424.29845449 Ry
     estimated scf accuracy    <       0.00043792 Ry

     total magnetization       =     3.57 Bohr mag/cell
     absolute magnetization    =     3.74 Bohr mag/cell

     iteration # 62     ecut=    40.00 Ry     beta= 0.40
     PPCG style diagonalization

---- Real-time Memory Report at c_bands before calling an iterative solver
            70 MiB given to the printing process from OS
            26 MiB allocation reported by mallinfo(arena+hblkhd)
        486954 MiB available memory on the node where the printing process lives
------------------
     ethr =  6.36E-07,  avg # of iterations =  9.3

     negative rho (up, down):  3.778E-04 1.479E-03

     total cpu time spent up to now is       89.5 secs

     total energy              =    -424.29315011 Ry
     estimated scf accuracy    <       0.00040904 Ry

     total magnetization       =     2.97 Bohr mag/cell
     absolute magnetization    =     3.13 Bohr mag/cell

     iteration # 63     ecut=    40.00 Ry     beta= 0.40
     PPCG style diagonalization

---- Real-time Memory Report at c_bands before calling an iterative solver
            70 MiB given to the printing process from OS
            26 MiB allocation reported by mallinfo(arena+hblkhd)
        486954 MiB available memory on the node where the printing process lives
------------------
     ethr =  6.36E-07,  avg # of iterations =  9.8

     negative rho (up, down):  3.107E-04 1.535E-03

     total cpu time spent up to now is       91.1 secs

     total energy              =    -424.30224908 Ry
     estimated scf accuracy    <       0.00428735 Ry

     total magnetization       =     1.57 Bohr mag/cell
     absolute magnetization    =     2.76 Bohr mag/cell

     iteration # 64     ecut=    40.00 Ry     beta= 0.40
     PPCG style diagonalization

---- Real-time Memory Report at c_bands before calling an iterative solver
            70 MiB given to the printing process from OS
            26 MiB allocation reported by mallinfo(arena+hblkhd)
        486954 MiB available memory on the node where the printing process lives
------------------
     ethr =  6.36E-07,  avg # of iterations =  9.1

     negative rho (up, down):  2.125E-04 1.617E-03

     total cpu time spent up to now is       92.5 secs

     total energy              =    -424.29598033 Ry
     estimated scf accuracy    <       0.00133230 Ry

     total magnetization       =     2.21 Bohr mag/cell
     absolute magnetization    =     2.52 Bohr mag/cell

     iteration # 65     ecut=    40.00 Ry     beta= 0.40
     PPCG style diagonalization

---- Real-time Memory Report at c_bands before calling an iterative solver
            70 MiB given to the printing process from OS
            26 MiB allocation reported by mallinfo(arena+hblkhd)
        486954 MiB available memory on the node where the printing process lives
------------------
     ethr =  6.36E-07,  avg # of iterations =  9.3

     negative rho (up, down):  1.123E-04 1.701E-03

     total cpu time spent up to now is       94.0 secs

[...]

     total magnetization       =     4.03 Bohr mag/cell
     absolute magnetization    =     4.22 Bohr mag/cell

     iteration # 80     ecut=    40.00 Ry     beta= 0.40
     PPCG style diagonalization

---- Real-time Memory Report at c_bands before calling an iterative solver
            70 MiB given to the printing process from OS
            26 MiB allocation reported by mallinfo(arena+hblkhd)
        486948 MiB available memory on the node where the printing process lives
------------------
     ethr =  6.36E-07,  avg # of iterations =  9.3

     negative rho (up, down):  2.224E-04 1.605E-03

     total cpu time spent up to now is      109.7 secs

     total energy              =    -424.29801011 Ry
     estimated scf accuracy    <       0.00050796 Ry

     total magnetization       =     3.56 Bohr mag/cell
     absolute magnetization    =     3.72 Bohr mag/cell

     iteration # 81     ecut=    40.00 Ry     beta= 0.40
     PPCG style diagonalization

---- Real-time Memory Report at c_bands before calling an iterative solver
            70 MiB given to the printing process from OS
            26 MiB allocation reported by mallinfo(arena+hblkhd)
        486948 MiB available memory on the node where the printing process lives
------------------
     ethr =  6.36E-07,  avg # of iterations =  9.3

     negative rho (up, down):  3.310E-04 1.515E-03

     total cpu time spent up to now is      111.2 secs

     total energy              =    -424.29939265 Ry
     estimated scf accuracy    <       0.00041302 Ry

     total magnetization       =     2.92 Bohr mag/cell
     absolute magnetization    =     3.08 Bohr mag/cell

     iteration # 82     ecut=    40.00 Ry     beta= 0.40
     PPCG style diagonalization

---- Real-time Memory Report at c_bands before calling an iterative solver
            70 MiB given to the printing process from OS
            26 MiB allocation reported by mallinfo(arena+hblkhd)
        486948 MiB available memory on the node where the printing process lives
------------------
     ethr =  6.36E-07,  avg # of iterations =  9.4

     negative rho (up, down):  2.637E-04 1.573E-03

     total cpu time spent up to now is      112.8 secs

     total energy              =    -424.30065476 Ry
     estimated scf accuracy    <       0.00189295 Ry

     total magnetization       =     2.01 Bohr mag/cell
     absolute magnetization    =     2.46 Bohr mag/cell

     iteration # 83     ecut=    40.00 Ry     beta= 0.40
     PPCG style diagonalization

---- Real-time Memory Report at c_bands before calling an iterative solver
            70 MiB given to the printing process from OS
            26 MiB allocation reported by mallinfo(arena+hblkhd)
        486946 MiB available memory on the node where the printing process lives
------------------
     ethr =  6.36E-07,  avg # of iterations =  9.1

     negative rho (up, down):  3.001E-05 1.772E-03

     total cpu time spent up to now is      114.2 secs

     total energy              =    -424.26718904 Ry
     estimated scf accuracy    <       0.00061201 Ry

     total magnetization       =     2.60 Bohr mag/cell
     absolute magnetization    =     2.78 Bohr mag/cell

     iteration # 84     ecut=    40.00 Ry     beta= 0.40
     PPCG style diagonalization

---- Real-time Memory Report at c_bands before calling an iterative solver
            70 MiB given to the printing process from OS
            26 MiB allocation reported by mallinfo(arena+hblkhd)
        486946 MiB available memory on the node where the printing process lives
------------------
     ethr =  6.36E-07,  avg # of iterations = 10.3

     negative rho (up, down):  1.386E-05 1.785E-03

     total cpu time spent up to now is      115.9 secs

     total energy              =    -424.29593855 Ry
     estimated scf accuracy    <       0.00145853 Ry

     total magnetization       =     4.07 Bohr mag/cell
     absolute magnetization    =     4.26 Bohr mag/cell

     iteration # 85     ecut=    40.00 Ry     beta= 0.40
     PPCG style diagonalization

---- Real-time Memory Report at c_bands before calling an iterative solver
            70 MiB given to the printing process from OS
            26 MiB allocation reported by mallinfo(arena+hblkhd)
        486946 MiB available memory on the node where the printing process lives
------------------
     ethr =  6.36E-07,  avg # of iterations =  6.7

     negative rho (up, down):  0.000E+00 2.123E-03

     total cpu time spent up to now is      117.2 secs

     total energy              =    -424.29165455 Ry
     estimated scf accuracy    <       0.00177524 Ry

     total magnetization       =     4.15 Bohr mag/cell
     absolute magnetization    =     4.33 Bohr mag/cell

     iteration # 86     ecut=    40.00 Ry     beta= 0.40
     PPCG style diagonalization

---- Real-time Memory Report at c_bands before calling an iterative solver
            70 MiB given to the printing process from OS
            26 MiB allocation reported by mallinfo(arena+hblkhd)
        486946 MiB available memory on the node where the printing process lives
------------------
     ethr =  6.36E-07,  avg # of iterations =  9.0

     negative rho (up, down):  0.000E+00 2.143E-03

     total cpu time spent up to now is      118.6 secs

     total energy              =    -424.29240941 Ry
     estimated scf accuracy    <       0.00322019 Ry

     total magnetization       =     4.37 Bohr mag/cell
     absolute magnetization    =     4.56 Bohr mag/cell

     iteration # 87     ecut=    40.00 Ry     beta= 0.40
     PPCG style diagonalization

---- Real-time Memory Report at c_bands before calling an iterative solver
            70 MiB given to the printing process from OS
            26 MiB allocation reported by mallinfo(arena+hblkhd)
        486946 MiB available memory on the node where the printing process lives
------------------
     ethr =  6.36E-07,  avg # of iterations =  2.0

     negative rho (up, down):  0.000E+00 1.818E-03

     total cpu time spent up to now is      119.0 secs

     total energy              =    -424.29408390 Ry
     estimated scf accuracy    <       0.00326702 Ry

     total magnetization       =     4.38 Bohr mag/cell
     absolute magnetization    =     4.57 Bohr mag/cell

     iteration # 88     ecut=    40.00 Ry     beta= 0.40
     PPCG style diagonalization

---- Real-time Memory Report at c_bands before calling an iterative solver
            70 MiB given to the printing process from OS
            26 MiB allocation reported by mallinfo(arena+hblkhd)
        486946 MiB available memory on the node where the printing process lives
------------------
     ethr =  6.36E-07,  avg # of iterations =  7.8

     negative rho (up, down):  0.000E+00 1.809E-03

     total cpu time spent up to now is      120.3 secs

     total energy              =    -424.29444037 Ry
     estimated scf accuracy    <       0.00245946 Ry

     total magnetization       =     4.27 Bohr mag/cell
     absolute magnetization    =     4.46 Bohr mag/cell

     iteration # 89     ecut=    40.00 Ry     beta= 0.40
     PPCG style diagonalization

---- Real-time Memory Report at c_bands before calling an iterative solver
            70 MiB given to the printing process from OS
            26 MiB allocation reported by mallinfo(arena+hblkhd)
        486946 MiB available memory on the node where the printing process lives
------------------
     ethr =  6.36E-07,  avg # of iterations =  2.1

     negative rho (up, down):  2.389E-05 1.778E-03

     total cpu time spent up to now is      120.7 secs

     total energy              =    -424.29615781 Ry
     estimated scf accuracy    <       0.00238818 Ry

     total magnetization       =     4.26 Bohr mag/cell
     absolute magnetization    =     4.45 Bohr mag/cell

     iteration # 90     ecut=    40.00 Ry     beta= 0.40
     PPCG style diagonalization

---- Real-time Memory Report at c_bands before calling an iterative solver
            70 MiB given to the printing process from OS
            26 MiB allocation reported by mallinfo(arena+hblkhd)
        486946 MiB available memory on the node where the printing process lives
------------------
     ethr =  6.36E-07,  avg # of iterations =  8.6

     negative rho (up, down):  8.651E-06 1.791E-03

     total cpu time spent up to now is      122.1 secs

     total energy              =    -424.29565961 Ry
     estimated scf accuracy    <       0.00154062 Ry

     total magnetization       =     4.10 Bohr mag/cell
     absolute magnetization    =     4.29 Bohr mag/cell

     iteration # 91     ecut=    40.00 Ry     beta= 0.40
     PPCG style diagonalization

---- Real-time Memory Report at c_bands before calling an iterative solver
            70 MiB given to the printing process from OS
            26 MiB allocation reported by mallinfo(arena+hblkhd)
        486946 MiB available memory on the node where the printing process lives
------------------
     ethr =  6.36E-07,  avg # of iterations =  6.3

     negative rho (up, down):  4.054E-04 1.451E-03

     total cpu time spent up to now is      123.4 secs

     total energy              =    -424.23602840 Ry
     estimated scf accuracy    <       0.00184911 Ry

     total magnetization       =     4.17 Bohr mag/cell
     absolute magnetization    =     4.36 Bohr mag/cell

     iteration # 92     ecut=    40.00 Ry     beta= 0.40
     PPCG style diagonalization

---- Real-time Memory Report at c_bands before calling an iterative solver
            70 MiB given to the printing process from OS
            26 MiB allocation reported by mallinfo(arena+hblkhd)
        486946 MiB available memory on the node where the printing process lives
------------------
     ethr =  6.36E-07,  avg # of iterations = 11.1

     negative rho (up, down):  0.000E+00 4.176E-03

     total cpu time spent up to now is      125.2 secs

     total energy              =    -424.05469648 Ry
     estimated scf accuracy    <       0.00672696 Ry

     total magnetization       =     1.28 Bohr mag/cell
     absolute magnetization    =     3.03 Bohr mag/cell

     iteration # 93     ecut=    40.00 Ry     beta= 0.40
     PPCG style diagonalization

---- Real-time Memory Report at c_bands before calling an iterative solver
            70 MiB given to the printing process from OS
            26 MiB allocation reported by mallinfo(arena+hblkhd)
        486946 MiB available memory on the node where the printing process lives
------------------
     ethr =  6.36E-07,  avg # of iterations = 11.8

     negative rho (up, down):  4.329E-07 5.304E-03

     total cpu time spent up to now is      127.2 secs

     total energy              =    -424.25336379 Ry
     estimated scf accuracy    <       0.01317843 Ry

     total magnetization       =     4.93 Bohr mag/cell
     absolute magnetization    =     5.16 Bohr mag/cell

     iteration # 94     ecut=    40.00 Ry     beta= 0.40
     PPCG style diagonalization

---- Real-time Memory Report at c_bands before calling an iterative solver
            70 MiB given to the printing process from OS
            26 MiB allocation reported by mallinfo(arena+hblkhd)
        486946 MiB available memory on the node where the printing process lives
------------------
     ethr =  6.36E-07,  avg # of iterations =  9.4

     negative rho (up, down):  0.000E+00 4.013E-03

     total cpu time spent up to now is      128.7 secs

     total energy              =    -424.27293928 Ry
     estimated scf accuracy    <       0.02265165 Ry

     total magnetization       =     5.21 Bohr mag/cell
     absolute magnetization    =     5.45 Bohr mag/cell

     iteration # 95     ecut=    40.00 Ry     beta= 0.40
     PPCG style diagonalization

---- Real-time Memory Report at c_bands before calling an iterative solver
            70 MiB given to the printing process from OS
            26 MiB allocation reported by mallinfo(arena+hblkhd)
        486945 MiB available memory on the node where the printing process lives
------------------
     ethr =  6.36E-07,  avg # of iterations =  9.5

     negative rho (up, down):  0.000E+00 3.932E-03

     total cpu time spent up to now is      130.2 secs

     total energy              =    -424.27624136 Ry
     estimated scf accuracy    <       0.01202357 Ry

     total magnetization       =     4.89 Bohr mag/cell
     absolute magnetization    =     5.11 Bohr mag/cell

     iteration # 96     ecut=    40.00 Ry     beta= 0.40
     PPCG style diagonalization

---- Real-time Memory Report at c_bands before calling an iterative solver
            70 MiB given to the printing process from OS
            26 MiB allocation reported by mallinfo(arena+hblkhd)
        486944 MiB available memory on the node where the printing process lives
------------------
     ethr =  6.36E-07,  avg # of iterations =  4.1

     negative rho (up, down):  0.000E+00 4.554E-03

     total cpu time spent up to now is      131.1 secs

     total energy              =    -424.26734263 Ry
     estimated scf accuracy    <       0.01145650 Ry

     total magnetization       =     4.86 Bohr mag/cell
     absolute magnetization    =     5.08 Bohr mag/cell

     iteration # 97     ecut=    40.00 Ry     beta= 0.40
     PPCG style diagonalization

---- Real-time Memory Report at c_bands before calling an iterative solver
            70 MiB given to the printing process from OS
            26 MiB allocation reported by mallinfo(arena+hblkhd)
        486944 MiB available memory on the node where the printing process lives
------------------
     ethr =  6.36E-07,  avg # of iterations =  8.6

     negative rho (up, down):  0.000E+00 3.408E-03

     total cpu time spent up to now is      132.5 secs

     total energy              =    -424.28031750 Ry
     estimated scf accuracy    <       0.01585260 Ry

     total magnetization       =     5.02 Bohr mag/cell
     absolute magnetization    =     5.25 Bohr mag/cell

     iteration # 98     ecut=    40.00 Ry     beta= 0.40
     PPCG style diagonalization

---- Real-time Memory Report at c_bands before calling an iterative solver
            70 MiB given to the printing process from OS
            26 MiB allocation reported by mallinfo(arena+hblkhd)
        486944 MiB available memory on the node where the printing process lives
------------------
     ethr =  6.36E-07,  avg # of iterations =  9.4

     negative rho (up, down):  0.000E+00 3.510E-03

     total cpu time spent up to now is      134.0 secs

     total energy              =    -424.28095242 Ry
     estimated scf accuracy    <       0.00841517 Ry

     total magnetization       =     4.72 Bohr mag/cell
     absolute magnetization    =     4.94 Bohr mag/cell

     iteration # 99     ecut=    40.00 Ry     beta= 0.40
     PPCG style diagonalization

---- Real-time Memory Report at c_bands before calling an iterative solver
            70 MiB given to the printing process from OS
            26 MiB allocation reported by mallinfo(arena+hblkhd)
        486944 MiB available memory on the node where the printing process lives
------------------
     ethr =  6.36E-07,  avg # of iterations =  5.3

     negative rho (up, down):  2.762E-04 1.558E-03

     total cpu time spent up to now is      135.2 secs

     total energy              =    -424.24436473 Ry
     estimated scf accuracy    <       0.00900496 Ry

     total magnetization       =     4.75 Bohr mag/cell
     absolute magnetization    =     4.96 Bohr mag/cell

     iteration #100     ecut=    40.00 Ry     beta= 0.40
     PPCG style diagonalization

---- Real-time Memory Report at c_bands before calling an iterative solver
            70 MiB given to the printing process from OS
            26 MiB allocation reported by mallinfo(arena+hblkhd)
        486944 MiB available memory on the node where the printing process lives
------------------
     ethr =  6.36E-07,  avg # of iterations = 11.1

     negative rho (up, down):  3.466E-03 1.088E-03

     total cpu time spent up to now is      137.0 secs

     total energy              =    -424.04998633 Ry
     estimated scf accuracy    <       0.00086483 Ry

     total magnetization       =     2.52 Bohr mag/cell
     absolute magnetization    =     2.71 Bohr mag/cell

     End of self-consistent calculation

     convergence NOT achieved after 100 iterations: stopping

     Writing config to output data dir ./out/aiida.save/ :
     XML data file, charge density

     init_run     :      0.98s CPU      1.05s WALL (       1 calls)
     electrons    :    127.54s CPU    135.51s WALL (       1 calls)

     Called by init_run:
     wfcinit      :      0.15s CPU      0.17s WALL (       1 calls)
     wfcinit:atom :      0.00s CPU      0.00s WALL (      21 calls)
     wfcinit:wfcr :      0.14s CPU      0.16s WALL (      21 calls)
     potinit      :      0.28s CPU      0.32s WALL (       1 calls)
     hinit0       :      0.50s CPU      0.52s WALL (       1 calls)

     Called by electrons:
     c_bands      :    118.75s CPU    126.06s WALL (     101 calls)
     sum_band     :      6.08s CPU      6.47s WALL (     101 calls)
     v_of_rho     :      1.37s CPU      1.43s WALL (     101 calls)
     v_h          :      0.03s CPU      0.04s WALL (     101 calls)
     v_xc         :      1.34s CPU      1.39s WALL (     101 calls)
     newd         :      0.88s CPU      0.89s WALL (     101 calls)
     mix_rho      :      0.21s CPU      0.23s WALL (     101 calls)

     Called by c_bands:
     init_us_2    :      0.44s CPU      0.46s WALL (    4263 calls)
     init_us_2:cp :      0.43s CPU      0.44s WALL (    4263 calls)
     ppcg_k       :     81.36s CPU     87.13s WALL (    2121 calls)
     wfcrot       :      9.51s CPU     10.40s WALL (    2100 calls)

     Called by sum_band:
     sum_band:wei :      0.13s CPU      0.14s WALL (     101 calls)
     sum_band:loo :      4.42s CPU      4.75s WALL (     101 calls)
     sum_band:buf :      0.04s CPU      0.04s WALL (    2121 calls)
     sum_band:ini :      0.21s CPU      0.22s WALL (    2121 calls)
     sum_band:cal :      0.42s CPU      0.46s WALL (    2121 calls)
     sum_band:bec :      0.03s CPU      0.04s WALL (    2121 calls)
     addusdens    :      1.13s CPU      1.14s WALL (     101 calls)
                                        0.00s GPU  (     101 calls)
     addusd:skk   :      0.00s CPU      0.00s WALL (     404 calls)
                                        0.00s GPU  (     404 calls)

     Called by ppcg_*:
     ppcg:zgemm   :     14.26s CPU     15.22s WALL (  724839 calls)
     ppcg:hpsi    :     55.95s CPU     59.75s WALL (   17047 calls)
     ppcg:cholQR  :      1.52s CPU      1.59s WALL (   13616 calls)
     ppcg:RR      :      2.12s CPU      2.36s WALL (    2850 calls)
     ppcg:ZTRSM   :      1.14s CPU      1.20s WALL (   27232 calls)
     ppcg:lock    :      0.07s CPU      0.07s WALL (    4971 calls)
     h_psi        :     61.15s CPU     65.67s WALL (   19147 calls)
     s_psi        :      2.64s CPU      2.73s WALL (   19147 calls)

     Called by h_psi:
     h_psi:calbec :      3.32s CPU      3.57s WALL (   19147 calls)
     vloc_psi     :     54.94s CPU     59.08s WALL (   19147 calls)
     add_vuspsi   :      2.64s CPU      2.73s WALL (   19147 calls)

     General routines
     calbec       :      3.70s CPU      3.97s WALL (   21268 calls)
     fft          :      0.88s CPU      0.97s WALL (    2525 calls)
     ffts         :      0.31s CPU      0.32s WALL (     404 calls)
     fftw         :     50.76s CPU     54.29s WALL (  964815 calls)
     interpolate  :      0.33s CPU      0.34s WALL (     202 calls)
     davcio       :      0.00s CPU      0.20s WALL (      39 calls)

     Parallel routines

     PWSCF        :   2m 8.96s CPU   2m17.38s WALL


   This run was terminated on:   4:13:52  30Nov2023            

=------------------------------------------------------------------------------=
   JOB DONE.
=------------------------------------------------------------------------------=
