
     Program PWSCF v.7.2 starts on 23Oct2023 at 18: 8:12 

     This program is part of the open-source Quantum ESPRESSO suite
     for quantum simulation of materials; please cite
         "P. Giannozzi et al., J. Phys.:Condens. Matter 21 395502 (2009);
         "P. Giannozzi et al., J. Phys.:Condens. Matter 29 465901 (2017);
         "P. Giannozzi et al., J. Chem. Phys. 152 154105 (2020);
          URL http://www.quantum-espresso.org", 
     in publications or presentations arising from this work. More details at
     http://www.quantum-espresso.org/quote

     Parallel version (MPI & OpenMP), running on      12 processor cores
     Number of MPI processes:                 1
     Threads/MPI process:                    12

     MPI processes distributed on     1 nodes
     60246 MiB available memory on the printing compute node when the environment starts
 
     Reading input from aiida.in

     Current dimensions of program PWSCF are:
     Max number of different atomic species (ntypx) = 10
     Max number of k-points (npk) =  40000
     Max angular momentum in pseudopotentials (lmaxx) =  4
     file Al.pbesol-n-kjpaw_psl.1.0.0.UPF: wavefunction(s)  3S 3P renormalized
     Message from routine setup:
     using ibrav=0 with symmetry is DISCOURAGED, use correct ibrav instead
 
     Subspace diagonalization in iterative solution of the eigenvalue problem:
     a serial algorithm will be used

 
     G-vector sticks info
     --------------------
     sticks:   dense  smooth     PW     G-vecs:    dense   smooth      PW
     Sum        1519     757    241                38949    13803    2397
 
     Using Slab Decomposition
 


     bravais-lattice index     =            0
     lattice parameter (alat)  =       8.2847  a.u.
     unit-cell volume          =     402.0793 (a.u.)^3
     number of atoms/cell      =            4
     number of atomic types    =            4
     number of electrons       =        42.00
     number of Kohn-Sham states=           25
     kinetic-energy cutoff     =      40.0000  Ry
     charge density cutoff     =     320.0000  Ry
     scf convergence threshold =      8.0E-10
     mixing beta               =       0.1000
     number of iterations used =            8  plain     mixing
     Exchange-correlation= SLA  PW   PSX  PSC
                           (   1   4  10   8   0   0   0)

     GPU acceleration is ACTIVE.


     GPU used by master process:

        Device Number: 0
        Device name: Tesla P100-PCIE-16GB
        Compute capability : 60
        Ratio of single to double precision performance  : 2
        Memory Clock Rate (KHz): 715000
        Memory Bus Width (bits): 4096
        Peak Memory Bandwidth (GB/s): 732.16

     celldm(1)=   8.284677  celldm(2)=   0.000000  celldm(3)=   0.000000
     celldm(4)=   0.000000  celldm(5)=   0.000000  celldm(6)=   0.000000

     crystal axes: (cart. coord. in units of alat)
               a(1) = (   0.000000   0.707107   0.707107 )  
               a(2) = (   0.707107   0.000000   0.707107 )  
               a(3) = (   0.707107   0.707107   0.000000 )  

     reciprocal axes: (cart. coord. in units 2 pi/alat)
               b(1) = ( -0.707107  0.707107  0.707107 )  
               b(2) = (  0.707107 -0.707107  0.707107 )  
               b(3) = (  0.707107  0.707107 -0.707107 )  


     PseudoPot. # 1 for Al read from file:
     ./pseudo/Al.pbesol-n-kjpaw_psl.1.0.0.UPF
     MD5 check sum: 3401bcfaaf5f9b08e46a00870a1ef39d
     Pseudo is Projector augmented-wave + core cor, Zval =  3.0
     Generated using "atomic" code by A. Dal Corso  v.6.0 svn rev. 13079
     Shape of augmentation charge: PSQ
     Using radial grid of 1135 points,  6 beta functions with: 
                l(1) =   0
                l(2) =   0
                l(3) =   1
                l(4) =   1
                l(5) =   2
                l(6) =   2
     Q(r) pseudized with 0 coefficients 


     PseudoPot. # 2 for Cr read from file:
     ./pseudo/cr_pbesol_v1.5.uspp.F.UPF
     MD5 check sum: a621641e0be27168676a837af8893d0f
     Pseudo is Ultrasoft + core correction, Zval = 14.0
     Generated by new atomic code, or converted to UPF format
     Using radial grid of  857 points,  6 beta functions with: 
                l(1) =   0
                l(2) =   0
                l(3) =   1
                l(4) =   1
                l(5) =   2
                l(6) =   2
     Q(r) pseudized with  8 coefficients,  rinner =    0.950   0.950   0.950
                                                       0.950   0.950

     PseudoPot. # 3 for Ti read from file:
     ./pseudo/ti_pbesol_v1.4.uspp.F.UPF
     MD5 check sum: 193cf2c0c3c6a4da613d69453fa7e3e9
     Pseudo is Ultrasoft + core correction, Zval = 12.0
     Generated by new atomic code, or converted to UPF format
     Using radial grid of  851 points,  6 beta functions with: 
                l(1) =   0
                l(2) =   0
                l(3) =   1
                l(4) =   1
                l(5) =   2
                l(6) =   2
     Q(r) pseudized with  6 coefficients,  rinner =    1.000   1.000   1.000
                                                       1.000   1.000

     PseudoPot. # 4 for V  read from file:
     ./pseudo/v_pbesol_v1.4.uspp.F.UPF
     MD5 check sum: 72fa7d0034c41d8adc50bbc8c632b9f9
     Pseudo is Ultrasoft + core correction, Zval = 13.0
     Generated by new atomic code, or converted to UPF format
     Using radial grid of  853 points,  6 beta functions with: 
                l(1) =   0
                l(2) =   0
                l(3) =   1
                l(4) =   1
                l(5) =   2
                l(6) =   2
     Q(r) pseudized with  8 coefficients,  rinner =    1.100   1.100   1.100
                                                       1.100   1.100

     atomic species   valence    mass     pseudopotential
        Al             3.00    26.98154     Al( 1.00)
        Cr            14.00    51.99610     Cr( 1.00)
        Ti            12.00    47.86700     Ti( 1.00)
        V             13.00    50.94150     V ( 1.00)

     Starting magnetic structure 
     atomic species   magnetization
        Al           0.100
        Cr           0.357
        Ti           0.417
        V            0.385

     24 Sym. Ops. (no inversion) found


                                    s                        frac. trans.

      isym =  1     identity                                     

 cryst.   s( 1) = (     1          0          0      )
                  (     0          1          0      )
                  (     0          0          1      )

 cart.    s( 1) = (  1.0000000 -0.0000000  0.0000000 )
                  ( -0.0000000  1.0000000  0.0000000 )
                  ( -0.0000000  0.0000000  1.0000000 )


      isym =  2     180 deg rotation - cart. axis [0,0,1]        

 cryst.   s( 2) = (     0          1         -1      )
                  (     1          0         -1      )
                  (     0          0         -1      )

 cart.    s( 2) = ( -1.0000000  0.0000000  0.0000000 )
                  (  0.0000000 -1.0000000  0.0000000 )
                  (  0.0000000 -0.0000000  1.0000000 )


      isym =  3     180 deg rotation - cart. axis [0,1,0]        

 cryst.   s( 3) = (     0         -1          1      )
                  (     0         -1          0      )
                  (     1         -1          0      )

 cart.    s( 3) = ( -1.0000000 -0.0000000 -0.0000000 )
                  (  0.0000000  1.0000000 -0.0000000 )
                  (  0.0000000  0.0000000 -1.0000000 )


      isym =  4     180 deg rotation - cart. axis [1,0,0]        

 cryst.   s( 4) = (    -1          0          0      )
                  (    -1          0          1      )
                  (    -1          1          0      )

 cart.    s( 4) = (  1.0000000  0.0000000 -0.0000000 )
                  ( -0.0000000 -1.0000000 -0.0000000 )
                  ( -0.0000000 -0.0000000 -1.0000000 )


      isym =  5     120 deg rotation - cart. axis [-1,-1,-1]     

 cryst.   s( 5) = (     0          0          1      )
                  (     1          0          0      )
                  (     0          1          0      )

 cart.    s( 5) = (  0.0000000  1.0000000 -0.0000000 )
                  (  0.0000000 -0.0000000  1.0000000 )
                  (  1.0000000 -0.0000000  0.0000000 )


      isym =  6     120 deg rotation - cart. axis [-1,1,1]       

 cryst.   s( 6) = (     1         -1          0      )
                  (     0         -1          1      )
                  (     0         -1          0      )

 cart.    s( 6) = ( -0.0000000 -1.0000000 -0.0000000 )
                  ( -0.0000000  0.0000000  1.0000000 )
                  ( -1.0000000  0.0000000  0.0000000 )


      isym =  7     120 deg rotation - cart. axis [1,1,-1]       

 cryst.   s( 7) = (    -1          1          0      )
                  (    -1          0          0      )
                  (    -1          0          1      )

 cart.    s( 7) = ( -0.0000000  1.0000000  0.0000000 )
                  ( -0.0000000 -0.0000000 -1.0000000 )
                  ( -1.0000000 -0.0000000 -0.0000000 )


      isym =  8     120 deg rotation - cart. axis [1,-1,1]       

 cryst.   s( 8) = (     0          0         -1      )
                  (     0          1         -1      )
                  (     1          0         -1      )

 cart.    s( 8) = (  0.0000000 -1.0000000  0.0000000 )
                  (  0.0000000  0.0000000 -1.0000000 )
                  (  1.0000000  0.0000000 -0.0000000 )


      isym =  9     120 deg rotation - cart. axis [1,1,1]        

 cryst.   s( 9) = (     0          1          0      )
                  (     0          0          1      )
                  (     1          0          0      )

 cart.    s( 9) = ( -0.0000000  0.0000000  1.0000000 )
                  (  1.0000000  0.0000000 -0.0000000 )
                  (  0.0000000  1.0000000 -0.0000000 )


      isym = 10     120 deg rotation - cart. axis [-1,1,-1]      

 cryst.   s(10) = (    -1          0          1      )
                  (    -1          1          0      )
                  (    -1          0          0      )

 cart.    s(10) = (  0.0000000 -0.0000000  1.0000000 )
                  ( -1.0000000 -0.0000000 -0.0000000 )
                  ( -0.0000000 -1.0000000 -0.0000000 )


      isym = 11     120 deg rotation - cart. axis [1,-1,-1]      

 cryst.   s(11) = (     1          0         -1      )
                  (     0          0         -1      )
                  (     0          1         -1      )

 cart.    s(11) = (  0.0000000  0.0000000 -1.0000000 )
                  ( -1.0000000  0.0000000  0.0000000 )
                  ( -0.0000000  1.0000000  0.0000000 )


      isym = 12     120 deg rotation - cart. axis [-1,-1,1]      

 cryst.   s(12) = (     0         -1          0      )
                  (     1         -1          0      )
                  (     0         -1          1      )

 cart.    s(12) = ( -0.0000000 -0.0000000 -1.0000000 )
                  (  1.0000000 -0.0000000  0.0000000 )
                  (  0.0000000 -1.0000000  0.0000000 )


      isym = 13     inv. 180 deg rotation - cart. axis [1,1,0]   

 cryst.   s(13) = (     1          0         -1      )
                  (     0          1         -1      )
                  (     0          0         -1      )

 cart.    s(13) = (  0.0000000 -1.0000000  0.0000000 )
                  ( -1.0000000  0.0000000  0.0000000 )
                  ( -0.0000000  0.0000000  1.0000000 )


      isym = 14     inv. 180 deg rotation - cart. axis [1,-1,0]  

 cryst.   s(14) = (     0          1          0      )
                  (     1          0          0      )
                  (     0          0          1      )

 cart.    s(14) = ( -0.0000000  1.0000000  0.0000000 )
                  (  1.0000000 -0.0000000  0.0000000 )
                  (  0.0000000 -0.0000000  1.0000000 )


      isym = 15     inv.  90 deg rotation - cart. axis [0,0,-1]  

 cryst.   s(15) = (     0         -1          0      )
                  (     0         -1          1      )
                  (     1         -1          0      )

 cart.    s(15) = ( -0.0000000 -1.0000000 -0.0000000 )
                  (  1.0000000  0.0000000 -0.0000000 )
                  (  0.0000000  0.0000000 -1.0000000 )


      isym = 16     inv.  90 deg rotation - cart. axis [0,0,1]   

 cryst.   s(16) = (    -1          0          1      )
                  (    -1          0          0      )
                  (    -1          1          0      )

 cart.    s(16) = (  0.0000000  1.0000000 -0.0000000 )
                  ( -1.0000000 -0.0000000 -0.0000000 )
                  ( -0.0000000 -0.0000000 -1.0000000 )


      isym = 17     inv. 180 deg rotation - cart. axis [1,0,1]   

 cryst.   s(17) = (     1         -1          0      )
                  (     0         -1          0      )
                  (     0         -1          1      )

 cart.    s(17) = ( -0.0000000 -0.0000000 -1.0000000 )
                  ( -0.0000000  1.0000000  0.0000000 )
                  ( -1.0000000  0.0000000  0.0000000 )


      isym = 18     inv. 180 deg rotation - cart. axis [-1,0,1]  

 cryst.   s(18) = (     0          0          1      )
                  (     0          1          0      )
                  (     1          0          0      )

 cart.    s(18) = (  0.0000000 -0.0000000  1.0000000 )
                  (  0.0000000  1.0000000 -0.0000000 )
                  (  1.0000000  0.0000000 -0.0000000 )


      isym = 19     inv.  90 deg rotation - cart. axis [0,1,0]   

 cryst.   s(19) = (     0          0         -1      )
                  (     1          0         -1      )
                  (     0          1         -1      )

 cart.    s(19) = (  0.0000000  0.0000000 -1.0000000 )
                  (  0.0000000 -1.0000000  0.0000000 )
                  (  1.0000000 -0.0000000  0.0000000 )


      isym = 20     inv.  90 deg rotation - cart. axis [0,-1,0]  

 cryst.   s(20) = (    -1          1          0      )
                  (    -1          0          1      )
                  (    -1          0          0      )

 cart.    s(20) = ( -0.0000000  0.0000000  1.0000000 )
                  ( -0.0000000 -1.0000000 -0.0000000 )
                  ( -1.0000000 -0.0000000 -0.0000000 )


      isym = 21     inv. 180 deg rotation - cart. axis [0,1,1]   

 cryst.   s(21) = (    -1          0          0      )
                  (    -1          1          0      )
                  (    -1          0          1      )

 cart.    s(21) = (  1.0000000 -0.0000000  0.0000000 )
                  ( -0.0000000 -0.0000000 -1.0000000 )
                  ( -0.0000000 -1.0000000 -0.0000000 )


      isym = 22     inv. 180 deg rotation - cart. axis [0,1,-1]  

 cryst.   s(22) = (     1          0          0      )
                  (     0          0          1      )
                  (     0          1          0      )

 cart.    s(22) = (  1.0000000  0.0000000 -0.0000000 )
                  ( -0.0000000  0.0000000  1.0000000 )
                  ( -0.0000000  1.0000000  0.0000000 )


      isym = 23     inv.  90 deg rotation - cart. axis [-1,0,0]  

 cryst.   s(23) = (     0          1         -1      )
                  (     0          0         -1      )
                  (     1          0         -1      )

 cart.    s(23) = ( -1.0000000  0.0000000  0.0000000 )
                  (  0.0000000  0.0000000 -1.0000000 )
                  (  0.0000000  1.0000000 -0.0000000 )


      isym = 24     inv.  90 deg rotation - cart. axis [1,0,0]   

 cryst.   s(24) = (     0         -1          1      )
                  (     1         -1          0      )
                  (     0         -1          0      )

 cart.    s(24) = ( -1.0000000 -0.0000000 -0.0000000 )
                  (  0.0000000 -0.0000000  1.0000000 )
                  (  0.0000000 -1.0000000  0.0000000 )


   Cartesian axes

     site n.     atom                  positions (alat units)
         1           Ti  tau(   1) = (   0.3535534   0.3535534   0.3535534  )
         2           Al  tau(   2) = (   0.3535534   0.3535534   1.0606602  )
         3           V   tau(   3) = (   0.7071068   0.0000000   0.0000000  )
         4           Cr  tau(   4) = (   0.0000000   0.0000000   0.0000000  )

   Crystallographic axes

     site n.     atom                  positions (cryst. coord.)
         1           Ti  tau(   1) = (  0.2500000  0.2500000  0.2500000  )
         2           Al  tau(   2) = (  0.7500000  0.7500000 -0.2500000  )
         3           V   tau(   3) = ( -0.5000000  0.5000000  0.5000000  )
         4           Cr  tau(   4) = (  0.0000000  0.0000000  0.0000000  )

     number of k points=    72  Marzari-Vanderbilt smearing, width (Ry)=  0.0100
                       cart. coord. in units 2pi/alat
        k(    1) = (   0.0000000   0.0000000   0.0000000), wk =   0.0005787
        k(    2) = (   0.0589256   0.0589256  -0.0589256), wk =   0.0046296
        k(    3) = (   0.1178511   0.1178511  -0.1178511), wk =   0.0046296
        k(    4) = (   0.1767767   0.1767767  -0.1767767), wk =   0.0046296
        k(    5) = (   0.2357023   0.2357023  -0.2357023), wk =   0.0046296
        k(    6) = (   0.2946278   0.2946278  -0.2946278), wk =   0.0046296
        k(    7) = (  -0.3535534  -0.3535534   0.3535534), wk =   0.0023148
        k(    8) = (   0.1178511   0.0000000  -0.0000000), wk =   0.0034722
        k(    9) = (   0.1767767   0.0589256  -0.0589256), wk =   0.0138889
        k(   10) = (   0.2357023   0.1178511  -0.1178511), wk =   0.0138889
        k(   11) = (   0.2946278   0.1767767  -0.1767767), wk =   0.0138889
        k(   12) = (   0.3535534   0.2357023  -0.2357023), wk =   0.0138889
        k(   13) = (  -0.2946278  -0.4124790   0.4124790), wk =   0.0138889
        k(   14) = (  -0.2357023  -0.3535534   0.3535534), wk =   0.0138889
        k(   15) = (  -0.1767767  -0.2946278   0.2946278), wk =   0.0138889
        k(   16) = (  -0.1178511  -0.2357023   0.2357023), wk =   0.0138889
        k(   17) = (  -0.0589256  -0.1767767   0.1767767), wk =   0.0138889
        k(   18) = (  -0.0000000  -0.1178511   0.1178511), wk =   0.0069444
        k(   19) = (   0.2357023   0.0000000  -0.0000000), wk =   0.0034722
        k(   20) = (   0.2946278   0.0589256  -0.0589256), wk =   0.0138889
        k(   21) = (   0.3535534   0.1178511  -0.1178511), wk =   0.0138889
        k(   22) = (   0.4124790   0.1767767  -0.1767767), wk =   0.0138889
        k(   23) = (  -0.2357023  -0.4714045   0.4714045), wk =   0.0138889
        k(   24) = (  -0.1767767  -0.4124790   0.4124790), wk =   0.0138889
        k(   25) = (  -0.1178511  -0.3535534   0.3535534), wk =   0.0138889
        k(   26) = (  -0.0589256  -0.2946278   0.2946278), wk =   0.0138889
        k(   27) = (   0.0000000  -0.2357023   0.2357023), wk =   0.0069444
        k(   28) = (   0.3535534   0.0000000   0.0000000), wk =   0.0034722
        k(   29) = (   0.4124790   0.0589256  -0.0589256), wk =   0.0138889
        k(   30) = (   0.4714045   0.1178511  -0.1178511), wk =   0.0138889
        k(   31) = (  -0.1767767  -0.5303301   0.5303301), wk =   0.0138889
        k(   32) = (  -0.1178511  -0.4714045   0.4714045), wk =   0.0138889
        k(   33) = (  -0.0589256  -0.4124790   0.4124790), wk =   0.0138889
        k(   34) = (   0.0000000  -0.3535534   0.3535534), wk =   0.0069444
        k(   35) = (   0.4714045   0.0000000  -0.0000000), wk =   0.0034722
        k(   36) = (   0.5303301   0.0589256  -0.0589256), wk =   0.0138889
        k(   37) = (  -0.1178511  -0.5892557   0.5892557), wk =   0.0138889
        k(   38) = (  -0.0589256  -0.5303301   0.5303301), wk =   0.0138889
        k(   39) = (  -0.0000000  -0.4714045   0.4714045), wk =   0.0069444
        k(   40) = (   0.5892557   0.0000000  -0.0000000), wk =   0.0034722
        k(   41) = (  -0.0589256  -0.6481812   0.6481812), wk =   0.0138889
        k(   42) = (   0.0000000  -0.5892557   0.5892557), wk =   0.0069444
        k(   43) = (  -0.7071068   0.0000000   0.0000000), wk =   0.0017361
        k(   44) = (   0.2357023   0.1178511   0.0000000), wk =   0.0138889
        k(   45) = (   0.2946278   0.1767767  -0.0589256), wk =   0.0277778
        k(   46) = (   0.3535534   0.2357023  -0.1178511), wk =   0.0277778
        k(   47) = (  -0.2946278  -0.4124790   0.5303301), wk =   0.0277778
        k(   48) = (  -0.2357023  -0.3535534   0.4714045), wk =   0.0138889
        k(   49) = (   0.3535534   0.1178511  -0.0000000), wk =   0.0138889
        k(   50) = (   0.4124790   0.1767767  -0.0589256), wk =   0.0277778
        k(   51) = (  -0.2357023  -0.4714045   0.5892557), wk =   0.0277778
        k(   52) = (  -0.1767767  -0.4124790   0.5303301), wk =   0.0277778
        k(   53) = (  -0.1178511  -0.3535534   0.4714045), wk =   0.0277778
        k(   54) = (  -0.0589256  -0.2946278   0.4124790), wk =   0.0277778
        k(   55) = (   0.0000000  -0.2357023   0.3535534), wk =   0.0138889
        k(   56) = (   0.4714045   0.1178511  -0.0000000), wk =   0.0138889
        k(   57) = (  -0.1767767  -0.5303301   0.6481812), wk =   0.0277778
        k(   58) = (  -0.1178511  -0.4714045   0.5892557), wk =   0.0277778
        k(   59) = (  -0.0589256  -0.4124790   0.5303301), wk =   0.0277778
        k(   60) = (   0.0000000  -0.3535534   0.4714045), wk =   0.0138889
        k(   61) = (  -0.1178511  -0.5892557   0.7071068), wk =   0.0138889
        k(   62) = (  -0.0589256  -0.5303301   0.6481812), wk =   0.0277778
        k(   63) = (  -0.0000000  -0.4714045   0.5892557), wk =   0.0138889
        k(   64) = (  -0.7071068   0.1178511  -0.0000000), wk =   0.0069444
        k(   65) = (  -0.2357023  -0.4714045   0.7071068), wk =   0.0138889
        k(   66) = (  -0.1767767  -0.4124790   0.6481812), wk =   0.0277778
        k(   67) = (  -0.1178511  -0.3535534   0.5892557), wk =   0.0138889
        k(   68) = (  -0.1178511  -0.4714045   0.7071068), wk =   0.0138889
        k(   69) = (  -0.0589256  -0.4124790   0.6481812), wk =   0.0277778
        k(   70) = (   0.0000000  -0.3535534   0.5892557), wk =   0.0138889
        k(   71) = (  -0.7071068   0.2357023   0.0000000), wk =   0.0069444
        k(   72) = (  -0.7071068   0.3535534   0.0000000), wk =   0.0034722

                       cryst. coord.
        k(    1) = (   0.0000000   0.0000000   0.0000000), wk =   0.0005787
        k(    2) = (   0.0000000   0.0000000   0.0833333), wk =   0.0046296
        k(    3) = (   0.0000000   0.0000000   0.1666667), wk =   0.0046296
        k(    4) = (   0.0000000   0.0000000   0.2500000), wk =   0.0046296
        k(    5) = (   0.0000000   0.0000000   0.3333333), wk =   0.0046296
        k(    6) = (  -0.0000000  -0.0000000   0.4166667), wk =   0.0046296
        k(    7) = (  -0.0000000  -0.0000000  -0.5000000), wk =   0.0023148
        k(    8) = (  -0.0000000   0.0833333   0.0833333), wk =   0.0034722
        k(    9) = (   0.0000000   0.0833333   0.1666667), wk =   0.0138889
        k(   10) = (  -0.0000000   0.0833333   0.2500000), wk =   0.0138889
        k(   11) = (   0.0000000   0.0833333   0.3333333), wk =   0.0138889
        k(   12) = (  -0.0000000   0.0833333   0.4166667), wk =   0.0138889
        k(   13) = (  -0.0000000   0.0833333  -0.5000000), wk =   0.0138889
        k(   14) = (   0.0000000   0.0833333  -0.4166667), wk =   0.0138889
        k(   15) = (  -0.0000000   0.0833333  -0.3333333), wk =   0.0138889
        k(   16) = (  -0.0000000   0.0833333  -0.2500000), wk =   0.0138889
        k(   17) = (   0.0000000   0.0833333  -0.1666667), wk =   0.0138889
        k(   18) = (   0.0000000   0.0833333  -0.0833333), wk =   0.0069444
        k(   19) = (  -0.0000000   0.1666667   0.1666667), wk =   0.0034722
        k(   20) = (  -0.0000000   0.1666667   0.2500000), wk =   0.0138889
        k(   21) = (   0.0000000   0.1666667   0.3333333), wk =   0.0138889
        k(   22) = (   0.0000000   0.1666667   0.4166667), wk =   0.0138889
        k(   23) = (  -0.0000000   0.1666667  -0.5000000), wk =   0.0138889
        k(   24) = (  -0.0000000   0.1666667  -0.4166667), wk =   0.0138889
        k(   25) = (  -0.0000000   0.1666667  -0.3333333), wk =   0.0138889
        k(   26) = (   0.0000000   0.1666667  -0.2500000), wk =   0.0138889
        k(   27) = (   0.0000000   0.1666667  -0.1666667), wk =   0.0069444
        k(   28) = (   0.0000000   0.2500000   0.2500000), wk =   0.0034722
        k(   29) = (  -0.0000000   0.2500000   0.3333333), wk =   0.0138889
        k(   30) = (  -0.0000000   0.2500000   0.4166667), wk =   0.0138889
        k(   31) = (   0.0000000   0.2500000  -0.5000000), wk =   0.0138889
        k(   32) = (  -0.0000000   0.2500000  -0.4166667), wk =   0.0138889
        k(   33) = (  -0.0000000   0.2500000  -0.3333333), wk =   0.0138889
        k(   34) = (  -0.0000000   0.2500000  -0.2500000), wk =   0.0069444
        k(   35) = (  -0.0000000   0.3333333   0.3333333), wk =   0.0034722
        k(   36) = (  -0.0000000   0.3333333   0.4166667), wk =   0.0138889
        k(   37) = (   0.0000000   0.3333333  -0.5000000), wk =   0.0138889
        k(   38) = (  -0.0000000   0.3333333  -0.4166667), wk =   0.0138889
        k(   39) = (   0.0000000   0.3333333  -0.3333333), wk =   0.0069444
        k(   40) = (   0.0000000   0.4166667   0.4166667), wk =   0.0034722
        k(   41) = (   0.0000000   0.4166667  -0.5000000), wk =   0.0138889
        k(   42) = (   0.0000000   0.4166667  -0.4166667), wk =   0.0069444
        k(   43) = (   0.0000000  -0.5000000  -0.5000000), wk =   0.0017361
        k(   44) = (   0.0833333   0.1666667   0.2500000), wk =   0.0138889
        k(   45) = (   0.0833333   0.1666667   0.3333333), wk =   0.0277778
        k(   46) = (   0.0833333   0.1666667   0.4166667), wk =   0.0277778
        k(   47) = (   0.0833333   0.1666667  -0.5000000), wk =   0.0277778
        k(   48) = (   0.0833333   0.1666667  -0.4166667), wk =   0.0138889
        k(   49) = (   0.0833333   0.2500000   0.3333333), wk =   0.0138889
        k(   50) = (   0.0833333   0.2500000   0.4166667), wk =   0.0277778
        k(   51) = (   0.0833333   0.2500000  -0.5000000), wk =   0.0277778
        k(   52) = (   0.0833333   0.2500000  -0.4166667), wk =   0.0277778
        k(   53) = (   0.0833333   0.2500000  -0.3333333), wk =   0.0277778
        k(   54) = (   0.0833333   0.2500000  -0.2500000), wk =   0.0277778
        k(   55) = (   0.0833333   0.2500000  -0.1666667), wk =   0.0138889
        k(   56) = (   0.0833333   0.3333333   0.4166667), wk =   0.0138889
        k(   57) = (   0.0833333   0.3333333  -0.5000000), wk =   0.0277778
        k(   58) = (   0.0833333   0.3333333  -0.4166667), wk =   0.0277778
        k(   59) = (   0.0833333   0.3333333  -0.3333333), wk =   0.0277778
        k(   60) = (   0.0833333   0.3333333  -0.2500000), wk =   0.0138889
        k(   61) = (   0.0833333   0.4166667  -0.5000000), wk =   0.0138889
        k(   62) = (   0.0833333   0.4166667  -0.4166667), wk =   0.0277778
        k(   63) = (   0.0833333   0.4166667  -0.3333333), wk =   0.0138889
        k(   64) = (   0.0833333  -0.5000000  -0.4166667), wk =   0.0069444
        k(   65) = (   0.1666667   0.3333333  -0.5000000), wk =   0.0138889
        k(   66) = (   0.1666667   0.3333333  -0.4166667), wk =   0.0277778
        k(   67) = (   0.1666667   0.3333333  -0.3333333), wk =   0.0138889
        k(   68) = (   0.1666667   0.4166667  -0.4166667), wk =   0.0138889
        k(   69) = (   0.1666667   0.4166667  -0.3333333), wk =   0.0277778
        k(   70) = (   0.1666667   0.4166667  -0.2500000), wk =   0.0138889
        k(   71) = (   0.1666667  -0.5000000  -0.3333333), wk =   0.0069444
        k(   72) = (   0.2500000  -0.5000000  -0.2500000), wk =   0.0034722

     Dense  grid:    38949 G-vectors     FFT dimensions: (  48,  48,  48)

     Smooth grid:    13803 G-vectors     FFT dimensions: (  36,  36,  36)

     Dynamical RAM for                 wfc:       0.66 MB

     Dynamical RAM for     wfc (w. buffer):      95.03 MB

     Dynamical RAM for           str. fact:       2.38 MB

     Dynamical RAM for           local pot:       0.00 MB

     Dynamical RAM for          nlocal pot:       1.89 MB

     Dynamical RAM for                qrad:       5.74 MB

     Dynamical RAM for          rho,v,vnew:       8.63 MB

     Dynamical RAM for               rhoin:       2.88 MB

     Dynamical RAM for            rho*nmix:      19.02 MB

     Dynamical RAM for           G-vectors:       2.33 MB

     Dynamical RAM for          h,s,v(r/c):       0.11 MB

     Dynamical RAM for          <psi|beta>:       0.03 MB

     Dynamical RAM for                 psi:       1.31 MB

     Dynamical RAM for                hpsi:       1.31 MB

     Dynamical RAM for                spsi:       1.31 MB

     Dynamical RAM for      wfcinit/wfcrot:       1.33 MB

     Dynamical RAM for           addusdens:     111.73 MB

     Dynamical RAM for          addusforce:     111.74 MB

     Dynamical RAM for         addusstress:     120.35 MB

     Estimated static dynamical RAM per process >     126.91 MB

     Estimated max dynamical RAM per process >     266.27 MB

     Atomic positions and unit cell read from directory:
     ./out/aiida.save/
 

     Check: negative core charge=   -0.000009
     Generating pointlists ...
     new r_m :   0.2526 (alat units)  2.0927 (a.u.) for type    1
     new r_m :   0.2526 (alat units)  2.0927 (a.u.) for type    2
     new r_m :   0.2526 (alat units)  2.0927 (a.u.) for type    3
     new r_m :   0.2526 (alat units)  2.0927 (a.u.) for type    4

     The initial density is read from file :
     ./out/aiida.save/charge-density


     negative rho (up, down):  4.243E-04 2.000E-03
     Starting wfcs from file
     Checking if some PAW data can be deallocated... 

     total cpu time spent up to now is        3.9 secs

     per-process dynamical memory:   394.1 Mb

     Self-consistent Calculation
[tb_dev] Currently allocated     3.05E-05 Mbytes, locked:    0 /   2
[tb_pin] Currently allocated     0.00E+00 Mbytes, locked:    0 /   0

     iteration #  1     ecut=    40.00 Ry     beta= 0.10
     Davidson diagonalization with overlap

---- Real-time Memory Report at c_bands before calling an iterative solver
           564 MiB given to the printing process from OS
           386 MiB allocation reported by mallinfo(arena+hblkhd)
         58897 MiB available memory on the node where the printing process lives
     GPU memory used/free/total (MiB): 592 / 15688 / 16280
------------------
     ethr =  1.00E-05,  avg # of iterations =  1.0

     negative rho (up, down):  4.310E-04 1.993E-03

     total cpu time spent up to now is        6.9 secs

     total energy              =    -478.00361337 Ry
     estimated scf accuracy    <       0.00209188 Ry

     total magnetization       =     3.76 Bohr mag/cell
     absolute magnetization    =     3.86 Bohr mag/cell
[tb_dev] Currently allocated     4.56E-01 Mbytes, locked:    0 /   6
[tb_pin] Currently allocated     0.00E+00 Mbytes, locked:    0 /   0

     iteration #  2     ecut=    40.00 Ry     beta= 0.10
     Davidson diagonalization with overlap

---- Real-time Memory Report at c_bands before calling an iterative solver
          1117 MiB given to the printing process from OS
           796 MiB allocation reported by mallinfo(arena+hblkhd)
         57959 MiB available memory on the node where the printing process lives
     GPU memory used/free/total (MiB): 878 / 15402 / 16280
------------------
     ethr =  4.98E-06,  avg # of iterations =  1.1

     negative rho (up, down):  4.365E-04 1.988E-03

     total cpu time spent up to now is        9.2 secs

     total energy              =    -478.00395502 Ry
     estimated scf accuracy    <       0.00136796 Ry

     total magnetization       =     3.77 Bohr mag/cell
     absolute magnetization    =     3.87 Bohr mag/cell
[tb_dev] Currently allocated     4.56E-01 Mbytes, locked:    0 /   6
[tb_pin] Currently allocated     0.00E+00 Mbytes, locked:    0 /   0

     iteration #  3     ecut=    40.00 Ry     beta= 0.10
     Davidson diagonalization with overlap

---- Real-time Memory Report at c_bands before calling an iterative solver
          1183 MiB given to the printing process from OS
           799 MiB allocation reported by mallinfo(arena+hblkhd)
         57954 MiB available memory on the node where the printing process lives
     GPU memory used/free/total (MiB): 878 / 15402 / 16280
------------------
     ethr =  3.26E-06,  avg # of iterations =  1.0

     negative rho (up, down):  4.604E-04 1.964E-03

     total cpu time spent up to now is       11.4 secs

     total energy              =    -478.00501458 Ry
     estimated scf accuracy    <       0.00118353 Ry

     total magnetization       =     3.75 Bohr mag/cell
     absolute magnetization    =     3.84 Bohr mag/cell
[tb_dev] Currently allocated     4.56E-01 Mbytes, locked:    0 /   6
[tb_pin] Currently allocated     0.00E+00 Mbytes, locked:    0 /   0

     iteration #  4     ecut=    40.00 Ry     beta= 0.10
     Davidson diagonalization with overlap

---- Real-time Memory Report at c_bands before calling an iterative solver
          1250 MiB given to the printing process from OS
           801 MiB allocation reported by mallinfo(arena+hblkhd)
         57951 MiB available memory on the node where the printing process lives
     GPU memory used/free/total (MiB): 878 / 15402 / 16280
------------------
     ethr =  2.82E-06,  avg # of iterations =  3.3

     negative rho (up, down):  5.668E-04 1.857E-03

     total cpu time spent up to now is       14.4 secs

     total energy              =    -478.00442994 Ry
     estimated scf accuracy    <       0.00077642 Ry

     total magnetization       =     3.66 Bohr mag/cell
     absolute magnetization    =     3.75 Bohr mag/cell
[tb_dev] Currently allocated     4.56E-01 Mbytes, locked:    0 /   6
[tb_pin] Currently allocated     0.00E+00 Mbytes, locked:    0 /   0

     iteration #  5     ecut=    40.00 Ry     beta= 0.10
     Davidson diagonalization with overlap

---- Real-time Memory Report at c_bands before calling an iterative solver
          1315 MiB given to the printing process from OS
           805 MiB allocation reported by mallinfo(arena+hblkhd)
         57947 MiB available memory on the node where the printing process lives
     GPU memory used/free/total (MiB): 908 / 15372 / 16280
------------------
     ethr =  1.85E-06,  avg # of iterations =  7.8

     negative rho (up, down):  5.673E-04 1.858E-03

     total cpu time spent up to now is       19.8 secs

     total energy              =    -478.00839925 Ry
     estimated scf accuracy    <       0.00183818 Ry

     total magnetization       =     3.05 Bohr mag/cell
     absolute magnetization    =     3.15 Bohr mag/cell
[tb_dev] Currently allocated     4.56E-01 Mbytes, locked:    0 /   6
[tb_pin] Currently allocated     0.00E+00 Mbytes, locked:    0 /   0

     iteration #  6     ecut=    40.00 Ry     beta= 0.10
     Davidson diagonalization with overlap

---- Real-time Memory Report at c_bands before calling an iterative solver
          1380 MiB given to the printing process from OS
           809 MiB allocation reported by mallinfo(arena+hblkhd)
         57946 MiB available memory on the node where the printing process lives
     GPU memory used/free/total (MiB): 944 / 15336 / 16280
------------------
     ethr =  1.85E-06,  avg # of iterations =  4.8

     negative rho (up, down):  5.636E-04 1.862E-03

     total cpu time spent up to now is       23.5 secs

     total energy              =    -478.00847675 Ry
     estimated scf accuracy    <       0.00029006 Ry

     total magnetization       =     3.13 Bohr mag/cell
     absolute magnetization    =     3.22 Bohr mag/cell
[tb_dev] Currently allocated     4.56E-01 Mbytes, locked:    0 /   6
[tb_pin] Currently allocated     0.00E+00 Mbytes, locked:    0 /   0

     iteration #  7     ecut=    40.00 Ry     beta= 0.10
     Davidson diagonalization with overlap

---- Real-time Memory Report at c_bands before calling an iterative solver
          1443 MiB given to the printing process from OS
           812 MiB allocation reported by mallinfo(arena+hblkhd)
         57945 MiB available memory on the node where the printing process lives
     GPU memory used/free/total (MiB): 944 / 15336 / 16280
------------------
     ethr =  6.91E-07,  avg # of iterations =  1.7

     negative rho (up, down):  5.908E-04 1.843E-03

     total cpu time spent up to now is       25.9 secs

     total energy              =    -478.00879569 Ry
     estimated scf accuracy    <       0.00037110 Ry

     total magnetization       =     3.15 Bohr mag/cell
     absolute magnetization    =     3.24 Bohr mag/cell
[tb_dev] Currently allocated     4.56E-01 Mbytes, locked:    0 /   6
[tb_pin] Currently allocated     0.00E+00 Mbytes, locked:    0 /   0

     iteration #  8     ecut=    40.00 Ry     beta= 0.10
     Davidson diagonalization with overlap

---- Real-time Memory Report at c_bands before calling an iterative solver
          1508 MiB given to the printing process from OS
           814 MiB allocation reported by mallinfo(arena+hblkhd)
         57943 MiB available memory on the node where the printing process lives
     GPU memory used/free/total (MiB): 944 / 15336 / 16280
------------------
     c_bands:  1 eigenvalues not converged
     ethr =  6.91E-07,  avg # of iterations =  8.4

     negative rho (up, down):  5.805E-04 1.852E-03

     total cpu time spent up to now is       31.6 secs

     total energy              =    -478.00912352 Ry
     estimated scf accuracy    <       0.00945230 Ry

     total magnetization       =     3.10 Bohr mag/cell
     absolute magnetization    =     3.20 Bohr mag/cell
[tb_dev] Currently allocated     4.56E-01 Mbytes, locked:    0 /   6
[tb_pin] Currently allocated     0.00E+00 Mbytes, locked:    0 /   0

     iteration #  9     ecut=    40.00 Ry     beta= 0.10
     Davidson diagonalization with overlap

---- Real-time Memory Report at c_bands before calling an iterative solver
          1546 MiB given to the printing process from OS
           817 MiB allocation reported by mallinfo(arena+hblkhd)
         57937 MiB available memory on the node where the printing process lives
     GPU memory used/free/total (MiB): 966 / 15314 / 16280
------------------
     ethr =  6.91E-07,  avg # of iterations =  4.0

     negative rho (up, down):  5.839E-04 1.851E-03

     total cpu time spent up to now is       34.9 secs

     total energy              =    -478.00907038 Ry
     estimated scf accuracy    <       0.00631747 Ry

     total magnetization       =     3.12 Bohr mag/cell
     absolute magnetization    =     3.21 Bohr mag/cell
[tb_dev] Currently allocated     4.56E-01 Mbytes, locked:    0 /   6
[tb_pin] Currently allocated     0.00E+00 Mbytes, locked:    0 /   0

     iteration # 10     ecut=    40.00 Ry     beta= 0.10
     Davidson diagonalization with overlap

---- Real-time Memory Report at c_bands before calling an iterative solver
          1568 MiB given to the printing process from OS
           820 MiB allocation reported by mallinfo(arena+hblkhd)
         57939 MiB available memory on the node where the printing process lives
     GPU memory used/free/total (MiB): 966 / 15314 / 16280
------------------
     ethr =  6.91E-07,  avg # of iterations =  4.4

     negative rho (up, down):  5.951E-04 1.841E-03

     total cpu time spent up to now is       38.4 secs

     total energy              =    -478.00924887 Ry
     estimated scf accuracy    <       0.00303788 Ry

     total magnetization       =     3.06 Bohr mag/cell
     absolute magnetization    =     3.15 Bohr mag/cell
[tb_dev] Currently allocated     4.56E-01 Mbytes, locked:    0 /   6
[tb_pin] Currently allocated     0.00E+00 Mbytes, locked:    0 /   0

     iteration # 11     ecut=    40.00 Ry     beta= 0.10
     Davidson diagonalization with overlap

---- Real-time Memory Report at c_bands before calling an iterative solver
          1590 MiB given to the printing process from OS
           821 MiB allocation reported by mallinfo(arena+hblkhd)
         57934 MiB available memory on the node where the printing process lives
     GPU memory used/free/total (MiB): 966 / 15314 / 16280
------------------
     ethr =  6.91E-07,  avg # of iterations =  3.2

     negative rho (up, down):  6.083E-04 1.828E-03

     total cpu time spent up to now is       41.5 secs

     total energy              =    -478.00952120 Ry
     estimated scf accuracy    <       0.00182928 Ry

     total magnetization       =     2.94 Bohr mag/cell
     absolute magnetization    =     3.04 Bohr mag/cell
[tb_dev] Currently allocated     4.56E-01 Mbytes, locked:    0 /   6
[tb_pin] Currently allocated     0.00E+00 Mbytes, locked:    0 /   0

     iteration # 12     ecut=    40.00 Ry     beta= 0.10
     Davidson diagonalization with overlap

---- Real-time Memory Report at c_bands before calling an iterative solver
          1610 MiB given to the printing process from OS
           823 MiB allocation reported by mallinfo(arena+hblkhd)
         57933 MiB available memory on the node where the printing process lives
     GPU memory used/free/total (MiB): 966 / 15314 / 16280
------------------
     ethr =  6.91E-07,  avg # of iterations =  3.2

     negative rho (up, down):  5.536E-04 1.881E-03

     total cpu time spent up to now is       44.6 secs

     total energy              =    -478.00656491 Ry
     estimated scf accuracy    <       0.00179592 Ry

     total magnetization       =     2.87 Bohr mag/cell
     absolute magnetization    =     2.97 Bohr mag/cell
[tb_dev] Currently allocated     4.56E-01 Mbytes, locked:    0 /   6
[tb_pin] Currently allocated     0.00E+00 Mbytes, locked:    0 /   0

     iteration # 13     ecut=    40.00 Ry     beta= 0.10
     Davidson diagonalization with overlap

---- Real-time Memory Report at c_bands before calling an iterative solver
          1631 MiB given to the printing process from OS
           825 MiB allocation reported by mallinfo(arena+hblkhd)
         57931 MiB available memory on the node where the printing process lives
     GPU memory used/free/total (MiB): 966 / 15314 / 16280
------------------
     ethr =  6.91E-07,  avg # of iterations =  6.6

     negative rho (up, down):  5.950E-04 1.840E-03

     total cpu time spent up to now is       49.4 secs

     total energy              =    -478.00824862 Ry
     estimated scf accuracy    <       0.00063466 Ry

     total magnetization       =     3.22 Bohr mag/cell
     absolute magnetization    =     3.31 Bohr mag/cell
[tb_dev] Currently allocated     4.56E-01 Mbytes, locked:    0 /   6
[tb_pin] Currently allocated     0.00E+00 Mbytes, locked:    0 /   0

     iteration # 14     ecut=    40.00 Ry     beta= 0.10
     Davidson diagonalization with overlap

---- Real-time Memory Report at c_bands before calling an iterative solver
          1652 MiB given to the printing process from OS
           827 MiB allocation reported by mallinfo(arena+hblkhd)
         57931 MiB available memory on the node where the printing process lives
     GPU memory used/free/total (MiB): 966 / 15314 / 16280
------------------
     ethr =  6.91E-07,  avg # of iterations =  6.1

     negative rho (up, down):  5.967E-04 1.838E-03

     total cpu time spent up to now is       53.8 secs

     total energy              =    -478.00944533 Ry
     estimated scf accuracy    <       0.00032032 Ry

     total magnetization       =     2.91 Bohr mag/cell
     absolute magnetization    =     3.01 Bohr mag/cell
[tb_dev] Currently allocated     4.56E-01 Mbytes, locked:    0 /   6
[tb_pin] Currently allocated     0.00E+00 Mbytes, locked:    0 /   0

     iteration # 15     ecut=    40.00 Ry     beta= 0.10
     Davidson diagonalization with overlap

---- Real-time Memory Report at c_bands before calling an iterative solver
          1673 MiB given to the printing process from OS
           829 MiB allocation reported by mallinfo(arena+hblkhd)
         57932 MiB available memory on the node where the printing process lives
     GPU memory used/free/total (MiB): 966 / 15314 / 16280
------------------
     ethr =  6.91E-07,  avg # of iterations =  1.9

     negative rho (up, down):  6.461E-04 1.790E-03

     total cpu time spent up to now is       56.3 secs

     total energy              =    -478.00838000 Ry
     estimated scf accuracy    <       0.00036001 Ry

     total magnetization       =     2.88 Bohr mag/cell
     absolute magnetization    =     2.98 Bohr mag/cell
[tb_dev] Currently allocated     4.56E-01 Mbytes, locked:    0 /   6
[tb_pin] Currently allocated     0.00E+00 Mbytes, locked:    0 /   0

     iteration # 16     ecut=    40.00 Ry     beta= 0.10
     Davidson diagonalization with overlap

---- Real-time Memory Report at c_bands before calling an iterative solver
          1694 MiB given to the printing process from OS
           831 MiB allocation reported by mallinfo(arena+hblkhd)
         57925 MiB available memory on the node where the printing process lives
     GPU memory used/free/total (MiB): 966 / 15314 / 16280
------------------
     ethr =  6.91E-07,  avg # of iterations =  9.1

     negative rho (up, down):  5.745E-04 1.857E-03

     total cpu time spent up to now is       62.3 secs

     total energy              =    -478.00500790 Ry
     estimated scf accuracy    <       0.00071455 Ry

     total magnetization       =     2.36 Bohr mag/cell
     absolute magnetization    =     2.50 Bohr mag/cell
[tb_dev] Currently allocated     4.56E-01 Mbytes, locked:    0 /   6
[tb_pin] Currently allocated     0.00E+00 Mbytes, locked:    0 /   0

     iteration # 17     ecut=    40.00 Ry     beta= 0.10
     Davidson diagonalization with overlap

---- Real-time Memory Report at c_bands before calling an iterative solver
          1714 MiB given to the printing process from OS
           832 MiB allocation reported by mallinfo(arena+hblkhd)
         57924 MiB available memory on the node where the printing process lives
     GPU memory used/free/total (MiB): 966 / 15314 / 16280
------------------
     c_bands:  1 eigenvalues not converged
     ethr =  6.91E-07,  avg # of iterations =  7.9

     negative rho (up, down):  5.432E-04 1.887E-03

     total cpu time spent up to now is       67.8 secs

     total energy              =    -478.00797268 Ry
     estimated scf accuracy    <       0.00028699 Ry

     total magnetization       =     2.97 Bohr mag/cell
     absolute magnetization    =     3.07 Bohr mag/cell
[tb_dev] Currently allocated     4.56E-01 Mbytes, locked:    0 /   6
[tb_pin] Currently allocated     0.00E+00 Mbytes, locked:    0 /   0

     iteration # 18     ecut=    40.00 Ry     beta= 0.10
     Davidson diagonalization with overlap

---- Real-time Memory Report at c_bands before calling an iterative solver
          1737 MiB given to the printing process from OS
           835 MiB allocation reported by mallinfo(arena+hblkhd)
         57923 MiB available memory on the node where the printing process lives
     GPU memory used/free/total (MiB): 966 / 15314 / 16280
------------------
     ethr =  6.83E-07,  avg # of iterations =  5.8

     negative rho (up, down):  5.320E-04 1.898E-03

     total cpu time spent up to now is       72.2 secs

     total energy              =    -478.00806674 Ry
     estimated scf accuracy    <       0.00026597 Ry

     total magnetization       =     3.18 Bohr mag/cell
     absolute magnetization    =     3.27 Bohr mag/cell
[tb_dev] Currently allocated     4.56E-01 Mbytes, locked:    0 /   6
[tb_pin] Currently allocated     0.00E+00 Mbytes, locked:    0 /   0

     iteration # 19     ecut=    40.00 Ry     beta= 0.10
     Davidson diagonalization with overlap

---- Real-time Memory Report at c_bands before calling an iterative solver
          1747 MiB given to the printing process from OS
           837 MiB allocation reported by mallinfo(arena+hblkhd)
         57923 MiB available memory on the node where the printing process lives
     GPU memory used/free/total (MiB): 966 / 15314 / 16280
------------------
     ethr =  6.33E-07,  avg # of iterations =  3.9

     negative rho (up, down):  5.248E-04 1.905E-03

     total cpu time spent up to now is       75.6 secs

     total energy              =    -478.00790414 Ry
     estimated scf accuracy    <       0.00063535 Ry

     total magnetization       =     3.25 Bohr mag/cell
     absolute magnetization    =     3.35 Bohr mag/cell
[tb_dev] Currently allocated     4.56E-01 Mbytes, locked:    0 /   6
[tb_pin] Currently allocated     0.00E+00 Mbytes, locked:    0 /   0

     iteration # 20     ecut=    40.00 Ry     beta= 0.10
     Davidson diagonalization with overlap

---- Real-time Memory Report at c_bands before calling an iterative solver
          1749 MiB given to the printing process from OS
           839 MiB allocation reported by mallinfo(arena+hblkhd)
         57923 MiB available memory on the node where the printing process lives
     GPU memory used/free/total (MiB): 966 / 15314 / 16280
------------------
     ethr =  6.33E-07,  avg # of iterations =  2.1

     negative rho (up, down):  5.546E-04 1.877E-03

     total cpu time spent up to now is       78.1 secs

     total energy              =    -478.00827023 Ry
     estimated scf accuracy    <       0.00067551 Ry

     total magnetization       =     3.31 Bohr mag/cell
     absolute magnetization    =     3.40 Bohr mag/cell
[tb_dev] Currently allocated     4.56E-01 Mbytes, locked:    0 /   6
[tb_pin] Currently allocated     0.00E+00 Mbytes, locked:    0 /   0

     iteration # 21     ecut=    40.00 Ry     beta= 0.10
     Davidson diagonalization with overlap

---- Real-time Memory Report at c_bands before calling an iterative solver
          1751 MiB given to the printing process from OS
           841 MiB allocation reported by mallinfo(arena+hblkhd)
         57921 MiB available memory on the node where the printing process lives
     GPU memory used/free/total (MiB): 966 / 15314 / 16280
------------------
     ethr =  6.33E-07,  avg # of iterations =  4.9

     negative rho (up, down):  5.866E-04 1.846E-03

     total cpu time spent up to now is       82.0 secs

     total energy              =    -478.00874440 Ry
     estimated scf accuracy    <       0.00034879 Ry

     total magnetization       =     3.12 Bohr mag/cell
     absolute magnetization    =     3.22 Bohr mag/cell
[tb_dev] Currently allocated     4.56E-01 Mbytes, locked:    0 /   6
[tb_pin] Currently allocated     0.00E+00 Mbytes, locked:    0 /   0

     iteration # 22     ecut=    40.00 Ry     beta= 0.10
     Davidson diagonalization with overlap

---- Real-time Memory Report at c_bands before calling an iterative solver
          1753 MiB given to the printing process from OS
           843 MiB allocation reported by mallinfo(arena+hblkhd)
         57915 MiB available memory on the node where the printing process lives
     GPU memory used/free/total (MiB): 966 / 15314 / 16280
------------------
     ethr =  6.33E-07,  avg # of iterations =  5.9

     negative rho (up, down):  5.797E-04 1.852E-03

     total cpu time spent up to now is       86.7 secs

     total energy              =    -478.00930010 Ry
     estimated scf accuracy    <       0.00031511 Ry

     total magnetization       =     2.88 Bohr mag/cell
     absolute magnetization    =     2.99 Bohr mag/cell
[tb_dev] Currently allocated     4.56E-01 Mbytes, locked:    0 /   6
[tb_pin] Currently allocated     0.00E+00 Mbytes, locked:    0 /   0

     iteration # 23     ecut=    40.00 Ry     beta= 0.10
     Davidson diagonalization with overlap

---- Real-time Memory Report at c_bands before calling an iterative solver
          1755 MiB given to the printing process from OS
           845 MiB allocation reported by mallinfo(arena+hblkhd)
         57917 MiB available memory on the node where the printing process lives
     GPU memory used/free/total (MiB): 966 / 15314 / 16280
------------------
     ethr =  6.33E-07,  avg # of iterations =  1.1

     negative rho (up, down):  6.311E-04 1.804E-03

     total cpu time spent up to now is       88.9 secs

     total energy              =    -478.00867006 Ry
     estimated scf accuracy    <       0.00029323 Ry

     total magnetization       =     2.93 Bohr mag/cell
     absolute magnetization    =     3.03 Bohr mag/cell
[tb_dev] Currently allocated     4.56E-01 Mbytes, locked:    0 /   6
[tb_pin] Currently allocated     0.00E+00 Mbytes, locked:    0 /   0

     iteration # 24     ecut=    40.00 Ry     beta= 0.10
     Davidson diagonalization with overlap

---- Real-time Memory Report at c_bands before calling an iterative solver
          1758 MiB given to the printing process from OS
           847 MiB allocation reported by mallinfo(arena+hblkhd)
         57913 MiB available memory on the node where the printing process lives
     GPU memory used/free/total (MiB): 966 / 15314 / 16280
------------------
     c_bands:  1 eigenvalues not converged
     ethr =  6.33E-07,  avg # of iterations =  7.9

     negative rho (up, down):  5.628E-04 1.869E-03

     total cpu time spent up to now is       94.3 secs

     total energy              =    -478.00525789 Ry
     estimated scf accuracy    <       0.00066206 Ry

     total magnetization       =     2.47 Bohr mag/cell
     absolute magnetization    =     2.60 Bohr mag/cell
[tb_dev] Currently allocated     4.56E-01 Mbytes, locked:    0 /   6
[tb_pin] Currently allocated     0.00E+00 Mbytes, locked:    0 /   0

     iteration # 25     ecut=    40.00 Ry     beta= 0.10
     Davidson diagonalization with overlap

---- Real-time Memory Report at c_bands before calling an iterative solver
          1759 MiB given to the printing process from OS
           849 MiB allocation reported by mallinfo(arena+hblkhd)
         57911 MiB available memory on the node where the printing process lives
     GPU memory used/free/total (MiB): 966 / 15314 / 16280
------------------
     ethr =  6.33E-07,  avg # of iterations =  7.8

     negative rho (up, down):  6.410E-04 1.793E-03

     total cpu time spent up to now is       99.7 secs

     total energy              =    -478.00643008 Ry
     estimated scf accuracy    <       0.00045241 Ry

     total magnetization       =     3.06 Bohr mag/cell
     absolute magnetization    =     3.16 Bohr mag/cell
[tb_dev] Currently allocated     4.56E-01 Mbytes, locked:    0 /   6
[tb_pin] Currently allocated     0.00E+00 Mbytes, locked:    0 /   0

     iteration # 26     ecut=    40.00 Ry     beta= 0.10
     Davidson diagonalization with overlap

---- Real-time Memory Report at c_bands before calling an iterative solver
          1761 MiB given to the printing process from OS
           851 MiB allocation reported by mallinfo(arena+hblkhd)
         57912 MiB available memory on the node where the printing process lives
     GPU memory used/free/total (MiB): 966 / 15314 / 16280
------------------
     ethr =  6.33E-07,  avg # of iterations =  7.7

     negative rho (up, down):  6.348E-04 1.799E-03

     total cpu time spent up to now is      105.2 secs

     total energy              =    -478.01059599 Ry
     estimated scf accuracy    <       0.00067330 Ry

     total magnetization       =     2.35 Bohr mag/cell
     absolute magnetization    =     2.51 Bohr mag/cell
[tb_dev] Currently allocated     4.56E-01 Mbytes, locked:    0 /   6
[tb_pin] Currently allocated     0.00E+00 Mbytes, locked:    0 /   0

     iteration # 27     ecut=    40.00 Ry     beta= 0.10
     Davidson diagonalization with overlap

---- Real-time Memory Report at c_bands before calling an iterative solver
          1765 MiB given to the printing process from OS
           854 MiB allocation reported by mallinfo(arena+hblkhd)
         57907 MiB available memory on the node where the printing process lives
     GPU memory used/free/total (MiB): 966 / 15314 / 16280
------------------
     ethr =  6.33E-07,  avg # of iterations =  1.2

     negative rho (up, down):  5.109E-04 1.919E-03

     total cpu time spent up to now is      107.4 secs

     total energy              =    -477.99627427 Ry
     estimated scf accuracy    <       0.00062583 Ry

     total magnetization       =     2.44 Bohr mag/cell
     absolute magnetization    =     2.57 Bohr mag/cell
[tb_dev] Currently allocated     4.56E-01 Mbytes, locked:    0 /   6
[tb_pin] Currently allocated     0.00E+00 Mbytes, locked:    0 /   0

     iteration # 28     ecut=    40.00 Ry     beta= 0.10
     Davidson diagonalization with overlap

---- Real-time Memory Report at c_bands before calling an iterative solver
          1766 MiB given to the printing process from OS
           855 MiB allocation reported by mallinfo(arena+hblkhd)
         57904 MiB available memory on the node where the printing process lives
     GPU memory used/free/total (MiB): 966 / 15314 / 16280
------------------
     c_bands:  1 eigenvalues not converged
     c_bands:  1 eigenvalues not converged
     ethr =  6.33E-07,  avg # of iterations = 10.1

     negative rho (up, down):  5.281E-04 1.902E-03

     total cpu time spent up to now is      114.3 secs

     total energy              =    -478.00792807 Ry
     estimated scf accuracy    <       0.00063921 Ry

     total magnetization       =     3.38 Bohr mag/cell
     absolute magnetization    =     3.47 Bohr mag/cell
[tb_dev] Currently allocated     4.56E-01 Mbytes, locked:    0 /   6
[tb_pin] Currently allocated     0.00E+00 Mbytes, locked:    0 /   0

     iteration # 29     ecut=    40.00 Ry     beta= 0.10
     Davidson diagonalization with overlap

---- Real-time Memory Report at c_bands before calling an iterative solver
          1768 MiB given to the printing process from OS
           858 MiB allocation reported by mallinfo(arena+hblkhd)
         57903 MiB available memory on the node where the printing process lives
     GPU memory used/free/total (MiB): 966 / 15314 / 16280
------------------
     ethr =  6.33E-07,  avg # of iterations =  3.6

     negative rho (up, down):  5.909E-04 1.842E-03

     total cpu time spent up to now is      117.5 secs

     total energy              =    -478.00705014 Ry
     estimated scf accuracy    <       0.00040326 Ry

     total magnetization       =     3.28 Bohr mag/cell
     absolute magnetization    =     3.38 Bohr mag/cell
[tb_dev] Currently allocated     4.56E-01 Mbytes, locked:    0 /   6
[tb_pin] Currently allocated     0.00E+00 Mbytes, locked:    0 /   0

     iteration # 30     ecut=    40.00 Ry     beta= 0.10
     Davidson diagonalization with overlap

---- Real-time Memory Report at c_bands before calling an iterative solver
          1771 MiB given to the printing process from OS
           859 MiB allocation reported by mallinfo(arena+hblkhd)
         57902 MiB available memory on the node where the printing process lives
     GPU memory used/free/total (MiB): 966 / 15314 / 16280
------------------
     ethr =  6.33E-07,  avg # of iterations =  8.4

     negative rho (up, down):  6.408E-04 1.794E-03

     total cpu time spent up to now is      123.2 secs

     total energy              =    -478.00901794 Ry
     estimated scf accuracy    <       0.00032429 Ry

     total magnetization       =     2.83 Bohr mag/cell
     absolute magnetization    =     2.94 Bohr mag/cell
[tb_dev] Currently allocated     4.56E-01 Mbytes, locked:    0 /   6
[tb_pin] Currently allocated     0.00E+00 Mbytes, locked:    0 /   0

     iteration # 31     ecut=    40.00 Ry     beta= 0.10
     Davidson diagonalization with overlap

---- Real-time Memory Report at c_bands before calling an iterative solver
          1772 MiB given to the printing process from OS
           861 MiB allocation reported by mallinfo(arena+hblkhd)
         57899 MiB available memory on the node where the printing process lives
     GPU memory used/free/total (MiB): 966 / 15314 / 16280
------------------
     ethr =  6.33E-07,  avg # of iterations =  8.1

     negative rho (up, down):  6.126E-04 1.821E-03

     total cpu time spent up to now is      129.1 secs

     total energy              =    -478.00914964 Ry
     estimated scf accuracy    <       0.00071711 Ry

     total magnetization       =     2.39 Bohr mag/cell
     absolute magnetization    =     2.53 Bohr mag/cell
[tb_dev] Currently allocated     4.56E-01 Mbytes, locked:    0 /   6
[tb_pin] Currently allocated     0.00E+00 Mbytes, locked:    0 /   0

     iteration # 32     ecut=    40.00 Ry     beta= 0.10
     Davidson diagonalization with overlap

---- Real-time Memory Report at c_bands before calling an iterative solver
          1774 MiB given to the printing process from OS
           864 MiB allocation reported by mallinfo(arena+hblkhd)
         57899 MiB available memory on the node where the printing process lives
     GPU memory used/free/total (MiB): 966 / 15314 / 16280
------------------
     ethr =  6.33E-07,  avg # of iterations =  5.4

     negative rho (up, down):  5.746E-04 1.857E-03

     total cpu time spent up to now is      133.2 secs

     total energy              =    -478.00817822 Ry
     estimated scf accuracy    <       0.00091386 Ry

     total magnetization       =     2.71 Bohr mag/cell
     absolute magnetization    =     2.82 Bohr mag/cell
[tb_dev] Currently allocated     4.56E-01 Mbytes, locked:    0 /   6
[tb_pin] Currently allocated     0.00E+00 Mbytes, locked:    0 /   0

     iteration # 33     ecut=    40.00 Ry     beta= 0.10
     Davidson diagonalization with overlap

---- Real-time Memory Report at c_bands before calling an iterative solver
          1777 MiB given to the printing process from OS
           866 MiB allocation reported by mallinfo(arena+hblkhd)
         57894 MiB available memory on the node where the printing process lives
     GPU memory used/free/total (MiB): 966 / 15314 / 16280
------------------
     ethr =  6.33E-07,  avg # of iterations =  6.6

     negative rho (up, down):  5.017E-04 1.927E-03

     total cpu time spent up to now is      138.0 secs

     total energy              =    -478.00387442 Ry
     estimated scf accuracy    <       0.00046320 Ry

     total magnetization       =     3.00 Bohr mag/cell
     absolute magnetization    =     3.10 Bohr mag/cell
[tb_dev] Currently allocated     4.56E-01 Mbytes, locked:    0 /   6
[tb_pin] Currently allocated     0.00E+00 Mbytes, locked:    0 /   0

     iteration # 34     ecut=    40.00 Ry     beta= 0.10
     Davidson diagonalization with overlap

---- Real-time Memory Report at c_bands before calling an iterative solver
          1778 MiB given to the printing process from OS
           868 MiB allocation reported by mallinfo(arena+hblkhd)
         57896 MiB available memory on the node where the printing process lives
     GPU memory used/free/total (MiB): 966 / 15314 / 16280
------------------
     c_bands:  1 eigenvalues not converged
     c_bands:  1 eigenvalues not converged
     c_bands:  1 eigenvalues not converged
     c_bands:  1 eigenvalues not converged
     c_bands:  1 eigenvalues not converged
     ethr =  6.33E-07,  avg # of iterations =  8.8

     negative rho (up, down):  5.135E-04 1.916E-03

     total cpu time spent up to now is      144.2 secs

     total energy              =    -478.00749565 Ry
     estimated scf accuracy    <       0.00064740 Ry

     total magnetization       =     3.44 Bohr mag/cell
     absolute magnetization    =     3.53 Bohr mag/cell
[tb_dev] Currently allocated     4.56E-01 Mbytes, locked:    0 /   6
[tb_pin] Currently allocated     0.00E+00 Mbytes, locked:    0 /   0

     iteration # 35     ecut=    40.00 Ry     beta= 0.10
     Davidson diagonalization with overlap

---- Real-time Memory Report at c_bands before calling an iterative solver
          1780 MiB given to the printing process from OS
           870 MiB allocation reported by mallinfo(arena+hblkhd)
         57892 MiB available memory on the node where the printing process lives
     GPU memory used/free/total (MiB): 966 / 15314 / 16280
------------------
     ethr =  6.33E-07,  avg # of iterations =  1.9

     negative rho (up, down):  5.870E-04 1.845E-03

     total cpu time spent up to now is      146.8 secs

     total energy              =    -478.00615131 Ry
     estimated scf accuracy    <       0.00049898 Ry

     total magnetization       =     3.38 Bohr mag/cell
     absolute magnetization    =     3.47 Bohr mag/cell
[tb_dev] Currently allocated     4.56E-01 Mbytes, locked:    0 /   6
[tb_pin] Currently allocated     0.00E+00 Mbytes, locked:    0 /   0

     iteration # 36     ecut=    40.00 Ry     beta= 0.10
     Davidson diagonalization with overlap

---- Real-time Memory Report at c_bands before calling an iterative solver
          1783 MiB given to the printing process from OS
           872 MiB allocation reported by mallinfo(arena+hblkhd)
         57891 MiB available memory on the node where the printing process lives
     GPU memory used/free/total (MiB): 966 / 15314 / 16280
------------------
     c_bands:  1 eigenvalues not converged
     ethr =  6.33E-07,  avg # of iterations =  8.0

     negative rho (up, down):  6.362E-04 1.798E-03

     total cpu time spent up to now is      152.4 secs

     total energy              =    -478.00906691 Ry
     estimated scf accuracy    <       0.00029613 Ry

     total magnetization       =     2.89 Bohr mag/cell
     absolute magnetization    =     3.00 Bohr mag/cell
[tb_dev] Currently allocated     4.56E-01 Mbytes, locked:    0 /   6
[tb_pin] Currently allocated     0.00E+00 Mbytes, locked:    0 /   0

     iteration # 37     ecut=    40.00 Ry     beta= 0.10
     Davidson diagonalization with overlap

---- Real-time Memory Report at c_bands before calling an iterative solver
          1785 MiB given to the printing process from OS
           874 MiB allocation reported by mallinfo(arena+hblkhd)
         57888 MiB available memory on the node where the printing process lives
     GPU memory used/free/total (MiB): 966 / 15314 / 16280
------------------
     c_bands:  1 eigenvalues not converged
     ethr =  6.33E-07,  avg # of iterations =  7.7

     negative rho (up, down):  5.301E-04 1.900E-03

     total cpu time spent up to now is      157.7 secs

     total energy              =    -477.99967372 Ry
     estimated scf accuracy    <       0.00094951 Ry

     total magnetization       =     2.51 Bohr mag/cell
     absolute magnetization    =     2.63 Bohr mag/cell
[tb_dev] Currently allocated     4.56E-01 Mbytes, locked:    0 /   6
[tb_pin] Currently allocated     0.00E+00 Mbytes, locked:    0 /   0

     iteration # 38     ecut=    40.00 Ry     beta= 0.10
     Davidson diagonalization with overlap

---- Real-time Memory Report at c_bands before calling an iterative solver
          1786 MiB given to the printing process from OS
           876 MiB allocation reported by mallinfo(arena+hblkhd)
         57888 MiB available memory on the node where the printing process lives
     GPU memory used/free/total (MiB): 966 / 15314 / 16280
------------------
     c_bands:  1 eigenvalues not converged
     c_bands:  1 eigenvalues not converged
     c_bands:  1 eigenvalues not converged
     c_bands:  1 eigenvalues not converged
     c_bands:  1 eigenvalues not converged
     ethr =  6.33E-07,  avg # of iterations =  9.1

     negative rho (up, down):  6.496E-04 1.784E-03

     total cpu time spent up to now is      163.8 secs

     total energy              =    -478.00116959 Ry
     estimated scf accuracy    <       0.00084337 Ry

     total magnetization       =     3.31 Bohr mag/cell
     absolute magnetization    =     3.40 Bohr mag/cell
[tb_dev] Currently allocated     4.56E-01 Mbytes, locked:    0 /   6
[tb_pin] Currently allocated     0.00E+00 Mbytes, locked:    0 /   0

     iteration # 39     ecut=    40.00 Ry     beta= 0.10
     Davidson diagonalization with overlap

---- Real-time Memory Report at c_bands before calling an iterative solver
          1789 MiB given to the printing process from OS
           888 MiB allocation reported by mallinfo(arena+hblkhd)
         57886 MiB available memory on the node where the printing process lives
     GPU memory used/free/total (MiB): 966 / 15314 / 16280
------------------
     c_bands:  1 eigenvalues not converged
     c_bands:  1 eigenvalues not converged
     c_bands:  1 eigenvalues not converged
     c_bands:  1 eigenvalues not converged
     ethr =  6.33E-07,  avg # of iterations =  9.9

     negative rho (up, down):  3.577E-04 2.531E-03

     total cpu time spent up to now is      170.6 secs

     total energy              =    -477.93551799 Ry
     estimated scf accuracy    <       0.00077580 Ry

     total magnetization       =     2.30 Bohr mag/cell
     absolute magnetization    =     2.47 Bohr mag/cell
[tb_dev] Currently allocated     4.56E-01 Mbytes, locked:    0 /   6
[tb_pin] Currently allocated     0.00E+00 Mbytes, locked:    0 /   0

     iteration # 40     ecut=    40.00 Ry     beta= 0.10
     Davidson diagonalization with overlap

---- Real-time Memory Report at c_bands before calling an iterative solver
          1791 MiB given to the printing process from OS
           890 MiB allocation reported by mallinfo(arena+hblkhd)
         57883 MiB available memory on the node where the printing process lives
     GPU memory used/free/total (MiB): 966 / 15314 / 16280
------------------
     c_bands:  1 eigenvalues not converged
     c_bands:  1 eigenvalues not converged
     c_bands:  1 eigenvalues not converged
     c_bands:  1 eigenvalues not converged
     c_bands:  1 eigenvalues not converged
     c_bands:  1 eigenvalues not converged
     c_bands:  1 eigenvalues not converged
     c_bands:  1 eigenvalues not converged
     ethr =  6.33E-07,  avg # of iterations = 12.7

     negative rho (up, down):  3.573E-04 2.910E-03

     total cpu time spent up to now is      178.6 secs

     total energy              =    -477.99100109 Ry
     estimated scf accuracy    <       0.00616827 Ry

     total magnetization       =     4.06 Bohr mag/cell
     absolute magnetization    =     4.16 Bohr mag/cell
[tb_dev] Currently allocated     4.56E-01 Mbytes, locked:    0 /   6
[tb_pin] Currently allocated     0.00E+00 Mbytes, locked:    0 /   0

     iteration # 41     ecut=    40.00 Ry     beta= 0.10
     Davidson diagonalization with overlap

---- Real-time Memory Report at c_bands before calling an iterative solver
          1793 MiB given to the printing process from OS
           892 MiB allocation reported by mallinfo(arena+hblkhd)
         57881 MiB available memory on the node where the printing process lives
     GPU memory used/free/total (MiB): 966 / 15314 / 16280
------------------
     ethr =  6.33E-07,  avg # of iterations =  5.9

     negative rho (up, down):  3.610E-04 2.391E-03

     total cpu time spent up to now is      183.0 secs

     total energy              =    -477.99602647 Ry
     estimated scf accuracy    <       0.00831686 Ry

     total magnetization       =     4.16 Bohr mag/cell
     absolute magnetization    =     4.26 Bohr mag/cell
[tb_dev] Currently allocated     4.56E-01 Mbytes, locked:    0 /   6
[tb_pin] Currently allocated     0.00E+00 Mbytes, locked:    0 /   0

     iteration # 42     ecut=    40.00 Ry     beta= 0.10
     Davidson diagonalization with overlap

---- Real-time Memory Report at c_bands before calling an iterative solver
          1796 MiB given to the printing process from OS
           894 MiB allocation reported by mallinfo(arena+hblkhd)
         57879 MiB available memory on the node where the printing process lives
     GPU memory used/free/total (MiB): 966 / 15314 / 16280
------------------
     ethr =  6.33E-07,  avg # of iterations =  6.2

     negative rho (up, down):  3.577E-04 2.517E-03

     total cpu time spent up to now is      187.5 secs

     total energy              =    -477.99540269 Ry
     estimated scf accuracy    <       0.00546484 Ry

     total magnetization       =     4.02 Bohr mag/cell
     absolute magnetization    =     4.12 Bohr mag/cell
[tb_dev] Currently allocated     4.56E-01 Mbytes, locked:    0 /   6
[tb_pin] Currently allocated     0.00E+00 Mbytes, locked:    0 /   0

     iteration # 43     ecut=    40.00 Ry     beta= 0.10
     Davidson diagonalization with overlap

---- Real-time Memory Report at c_bands before calling an iterative solver
          1798 MiB given to the printing process from OS
           896 MiB allocation reported by mallinfo(arena+hblkhd)
         57875 MiB available memory on the node where the printing process lives
     GPU memory used/free/total (MiB): 966 / 15314 / 16280
------------------
     ethr =  6.33E-07,  avg # of iterations =  1.7

     negative rho (up, down):  3.548E-04 3.485E-03

     total cpu time spent up to now is      189.9 secs

     total energy              =    -477.98213540 Ry
     estimated scf accuracy    <       0.00602436 Ry

     total magnetization       =     4.06 Bohr mag/cell
     absolute magnetization    =     4.15 Bohr mag/cell
[tb_dev] Currently allocated     4.56E-01 Mbytes, locked:    0 /   6
[tb_pin] Currently allocated     0.00E+00 Mbytes, locked:    0 /   0

     iteration # 44     ecut=    40.00 Ry     beta= 0.10
     Davidson diagonalization with overlap

---- Real-time Memory Report at c_bands before calling an iterative solver
          1799 MiB given to the printing process from OS
           898 MiB allocation reported by mallinfo(arena+hblkhd)
         57874 MiB available memory on the node where the printing process lives
     GPU memory used/free/total (MiB): 966 / 15314 / 16280
------------------
     c_bands:  1 eigenvalues not converged
     c_bands:  1 eigenvalues not converged
     c_bands:  1 eigenvalues not converged
     ethr =  6.33E-07,  avg # of iterations =  8.4

     negative rho (up, down):  3.777E-04 2.146E-03

     total cpu time spent up to now is      195.6 secs

     total energy              =    -477.99500406 Ry
     estimated scf accuracy    <       0.01299540 Ry

     total magnetization       =     4.29 Bohr mag/cell
     absolute magnetization    =     4.40 Bohr mag/cell
[tb_dev] Currently allocated     4.56E-01 Mbytes, locked:    0 /   6
[tb_pin] Currently allocated     0.00E+00 Mbytes, locked:    0 /   0

     iteration # 45     ecut=    40.00 Ry     beta= 0.10
     Davidson diagonalization with overlap

---- Real-time Memory Report at c_bands before calling an iterative solver
          1802 MiB given to the printing process from OS
           899 MiB allocation reported by mallinfo(arena+hblkhd)
         57869 MiB available memory on the node where the printing process lives
     GPU memory used/free/total (MiB): 966 / 15314 / 16280
------------------
     ethr =  6.33E-07,  avg # of iterations =  7.7

     negative rho (up, down):  6.168E-04 1.817E-03

     total cpu time spent up to now is      201.2 secs

     total energy              =    -477.98296198 Ry
     estimated scf accuracy    <       0.00470677 Ry

     total magnetization       =     3.95 Bohr mag/cell
     absolute magnetization    =     4.05 Bohr mag/cell
[tb_dev] Currently allocated     4.56E-01 Mbytes, locked:    0 /   6
[tb_pin] Currently allocated     0.00E+00 Mbytes, locked:    0 /   0

     iteration # 46     ecut=    40.00 Ry     beta= 0.10
     Davidson diagonalization with overlap

---- Real-time Memory Report at c_bands before calling an iterative solver
          1804 MiB given to the printing process from OS
           901 MiB allocation reported by mallinfo(arena+hblkhd)
         57869 MiB available memory on the node where the printing process lives
     GPU memory used/free/total (MiB): 966 / 15314 / 16280
------------------
     c_bands:  1 eigenvalues not converged
     c_bands:  1 eigenvalues not converged
     c_bands:  1 eigenvalues not converged
     c_bands:  1 eigenvalues not converged
     c_bands:  1 eigenvalues not converged
     c_bands:  1 eigenvalues not converged
     c_bands:  1 eigenvalues not converged
     c_bands:  1 eigenvalues not converged
     c_bands:  1 eigenvalues not converged
     c_bands:  1 eigenvalues not converged
     c_bands:  1 eigenvalues not converged
     c_bands:  1 eigenvalues not converged
     c_bands:  1 eigenvalues not converged
     c_bands:  1 eigenvalues not converged
     c_bands:  1 eigenvalues not converged
     c_bands:  1 eigenvalues not converged
     c_bands:  1 eigenvalues not converged
     c_bands:  1 eigenvalues not converged
     c_bands:  1 eigenvalues not converged
     c_bands:  1 eigenvalues not converged
     c_bands:  1 eigenvalues not converged
     c_bands:  1 eigenvalues not converged
     ethr =  6.33E-07,  avg # of iterations = 12.9

     negative rho (up, down):  6.019E-04 1.832E-03

     total cpu time spent up to now is      209.4 secs

     total energy              =    -478.00976798 Ry
     estimated scf accuracy    <       0.00068484 Ry

     total magnetization       =     2.64 Bohr mag/cell
     absolute magnetization    =     2.76 Bohr mag/cell
[tb_dev] Currently allocated     4.56E-01 Mbytes, locked:    0 /   6
[tb_pin] Currently allocated     0.00E+00 Mbytes, locked:    0 /   0

     iteration # 47     ecut=    40.00 Ry     beta= 0.10
     Davidson diagonalization with overlap

---- Real-time Memory Report at c_bands before calling an iterative solver
          1805 MiB given to the printing process from OS
           903 MiB allocation reported by mallinfo(arena+hblkhd)
         57866 MiB available memory on the node where the printing process lives
     GPU memory used/free/total (MiB): 966 / 15314 / 16280
------------------
     ethr =  6.33E-07,  avg # of iterations =  2.4

     negative rho (up, down):  6.257E-04 1.809E-03

     total cpu time spent up to now is      212.0 secs

     total energy              =    -478.01011720 Ry
     estimated scf accuracy    <       0.00075953 Ry

     total magnetization       =     2.76 Bohr mag/cell
     absolute magnetization    =     2.87 Bohr mag/cell
[tb_dev] Currently allocated     4.56E-01 Mbytes, locked:    0 /   6
[tb_pin] Currently allocated     0.00E+00 Mbytes, locked:    0 /   0

     iteration # 48     ecut=    40.00 Ry     beta= 0.10
     Davidson diagonalization with overlap

---- Real-time Memory Report at c_bands before calling an iterative solver
          1807 MiB given to the printing process from OS
           905 MiB allocation reported by mallinfo(arena+hblkhd)
         57867 MiB available memory on the node where the printing process lives
     GPU memory used/free/total (MiB): 966 / 15314 / 16280
------------------
     ethr =  6.33E-07,  avg # of iterations =  3.9

     negative rho (up, down):  6.298E-04 1.805E-03

     total cpu time spent up to now is      215.5 secs

     total energy              =    -478.01053860 Ry
     estimated scf accuracy    <       0.00069952 Ry

     total magnetization       =     2.57 Bohr mag/cell
     absolute magnetization    =     2.69 Bohr mag/cell
[tb_dev] Currently allocated     4.56E-01 Mbytes, locked:    0 /   6
[tb_pin] Currently allocated     0.00E+00 Mbytes, locked:    0 /   0

     iteration # 49     ecut=    40.00 Ry     beta= 0.10
     Davidson diagonalization with overlap

---- Real-time Memory Report at c_bands before calling an iterative solver
          1811 MiB given to the printing process from OS
           907 MiB allocation reported by mallinfo(arena+hblkhd)
         57864 MiB available memory on the node where the printing process lives
     GPU memory used/free/total (MiB): 966 / 15314 / 16280
------------------
     ethr =  6.33E-07,  avg # of iterations =  1.9

     negative rho (up, down):  5.860E-04 1.847E-03

     total cpu time spent up to now is      218.0 secs

     total energy              =    -478.00769798 Ry
[...]
          1849 MiB given to the printing process from OS
           941 MiB allocation reported by mallinfo(arena+hblkhd)
         57815 MiB available memory on the node where the printing process lives
     GPU memory used/free/total (MiB): 966 / 15314 / 16280
------------------
     ethr =  3.29E-07,  avg # of iterations =  1.7

     negative rho (up, down):  6.453E-04 1.788E-03

     total cpu time spent up to now is      295.2 secs

     total energy              =    -478.01107520 Ry
     estimated scf accuracy    <       0.00066851 Ry

     total magnetization       =     2.32 Bohr mag/cell
     absolute magnetization    =     2.50 Bohr mag/cell
[tb_dev] Currently allocated     4.56E-01 Mbytes, locked:    0 /   6
[tb_pin] Currently allocated     0.00E+00 Mbytes, locked:    0 /   0

     iteration # 68     ecut=    40.00 Ry     beta= 0.10
     Davidson diagonalization with overlap

---- Real-time Memory Report at c_bands before calling an iterative solver
          1850 MiB given to the printing process from OS
           943 MiB allocation reported by mallinfo(arena+hblkhd)
         57809 MiB available memory on the node where the printing process lives
     GPU memory used/free/total (MiB): 966 / 15314 / 16280
------------------
     ethr =  3.29E-07,  avg # of iterations =  1.4

     negative rho (up, down):  6.491E-04 1.785E-03

     total cpu time spent up to now is      297.5 secs

     total energy              =    -478.01122194 Ry
     estimated scf accuracy    <       0.00074654 Ry

     total magnetization       =     2.31 Bohr mag/cell
     absolute magnetization    =     2.49 Bohr mag/cell
[tb_dev] Currently allocated     4.56E-01 Mbytes, locked:    0 /   6
[tb_pin] Currently allocated     0.00E+00 Mbytes, locked:    0 /   0

     iteration # 69     ecut=    40.00 Ry     beta= 0.10
     Davidson diagonalization with overlap

---- Real-time Memory Report at c_bands before calling an iterative solver
          1852 MiB given to the printing process from OS
           945 MiB allocation reported by mallinfo(arena+hblkhd)
         57810 MiB available memory on the node where the printing process lives
     GPU memory used/free/total (MiB): 966 / 15314 / 16280
------------------
     ethr =  3.29E-07,  avg # of iterations =  1.7

     negative rho (up, down):  6.453E-04 1.787E-03

     total cpu time spent up to now is      300.0 secs

     total energy              =    -478.01108197 Ry
     estimated scf accuracy    <       0.00076073 Ry

     total magnetization       =     2.26 Bohr mag/cell
     absolute magnetization    =     2.46 Bohr mag/cell
[tb_dev] Currently allocated     4.56E-01 Mbytes, locked:    0 /   6
[tb_pin] Currently allocated     0.00E+00 Mbytes, locked:    0 /   0

     iteration # 70     ecut=    40.00 Ry     beta= 0.10
     Davidson diagonalization with overlap

---- Real-time Memory Report at c_bands before calling an iterative solver
          1855 MiB given to the printing process from OS
           947 MiB allocation reported by mallinfo(arena+hblkhd)
         57808 MiB available memory on the node where the printing process lives
     GPU memory used/free/total (MiB): 966 / 15314 / 16280
------------------
     ethr =  3.29E-07,  avg # of iterations =  2.0

     negative rho (up, down):  6.746E-04 1.759E-03

     total cpu time spent up to now is      302.5 secs

     total energy              =    -478.01159864 Ry
     estimated scf accuracy    <       0.00101975 Ry

     total magnetization       =     2.32 Bohr mag/cell
     absolute magnetization    =     2.49 Bohr mag/cell
[tb_dev] Currently allocated     4.56E-01 Mbytes, locked:    0 /   6
[tb_pin] Currently allocated     0.00E+00 Mbytes, locked:    0 /   0

     iteration # 71     ecut=    40.00 Ry     beta= 0.10
     Davidson diagonalization with overlap

---- Real-time Memory Report at c_bands before calling an iterative solver
          1856 MiB given to the printing process from OS
           949 MiB allocation reported by mallinfo(arena+hblkhd)
         57806 MiB available memory on the node where the printing process lives
     GPU memory used/free/total (MiB): 966 / 15314 / 16280
------------------
     ethr =  3.29E-07,  avg # of iterations =  7.6

     negative rho (up, down):  6.495E-04 1.784E-03

     total cpu time spent up to now is      307.6 secs

     total energy              =    -478.01073625 Ry
     estimated scf accuracy    <       0.00202422 Ry

     total magnetization       =     1.96 Bohr mag/cell
     absolute magnetization    =     2.31 Bohr mag/cell
[tb_dev] Currently allocated     4.56E-01 Mbytes, locked:    0 /   6
[tb_pin] Currently allocated     0.00E+00 Mbytes, locked:    0 /   0

     iteration # 72     ecut=    40.00 Ry     beta= 0.10
     Davidson diagonalization with overlap

---- Real-time Memory Report at c_bands before calling an iterative solver
          1858 MiB given to the printing process from OS
           951 MiB allocation reported by mallinfo(arena+hblkhd)
         57807 MiB available memory on the node where the printing process lives
     GPU memory used/free/total (MiB): 966 / 15314 / 16280
------------------
     ethr =  3.29E-07,  avg # of iterations =  5.4

     negative rho (up, down):  4.928E-04 1.934E-03

     total cpu time spent up to now is      312.1 secs

     total energy              =    -477.98943996 Ry
     estimated scf accuracy    <       0.00112966 Ry

     total magnetization       =     2.26 Bohr mag/cell
     absolute magnetization    =     2.47 Bohr mag/cell
[tb_dev] Currently allocated     4.56E-01 Mbytes, locked:    0 /   6
[tb_pin] Currently allocated     0.00E+00 Mbytes, locked:    0 /   0

     iteration # 73     ecut=    40.00 Ry     beta= 0.10
     Davidson diagonalization with overlap

---- Real-time Memory Report at c_bands before calling an iterative solver
          1861 MiB given to the printing process from OS
           953 MiB allocation reported by mallinfo(arena+hblkhd)
         57806 MiB available memory on the node where the printing process lives
     GPU memory used/free/total (MiB): 966 / 15314 / 16280
------------------
     c_bands:  1 eigenvalues not converged
     c_bands:  1 eigenvalues not converged
     c_bands:  1 eigenvalues not converged
     c_bands:  1 eigenvalues not converged
     c_bands:  1 eigenvalues not converged
     c_bands:  1 eigenvalues not converged
     c_bands:  1 eigenvalues not converged
     ethr =  3.29E-07,  avg # of iterations = 12.4

     negative rho (up, down):  5.107E-04 1.917E-03

     total cpu time spent up to now is      319.8 secs

     total energy              =    -478.00766224 Ry
     estimated scf accuracy    <       0.00095423 Ry

     total magnetization       =     3.43 Bohr mag/cell
     absolute magnetization    =     3.53 Bohr mag/cell
[tb_dev] Currently allocated     4.56E-01 Mbytes, locked:    0 /   6
[tb_pin] Currently allocated     0.00E+00 Mbytes, locked:    0 /   0

     iteration # 74     ecut=    40.00 Ry     beta= 0.10
     Davidson diagonalization with overlap

---- Real-time Memory Report at c_bands before calling an iterative solver
          1863 MiB given to the printing process from OS
           955 MiB allocation reported by mallinfo(arena+hblkhd)
         57804 MiB available memory on the node where the printing process lives
     GPU memory used/free/total (MiB): 966 / 15314 / 16280
------------------
     c_bands:  1 eigenvalues not converged
     ethr =  3.29E-07,  avg # of iterations =  5.4

     negative rho (up, down):  3.765E-04 2.245E-03

     total cpu time spent up to now is      323.9 secs

     total energy              =    -477.98771015 Ry
     estimated scf accuracy    <       0.00074235 Ry

     total magnetization       =     3.32 Bohr mag/cell
     absolute magnetization    =     3.42 Bohr mag/cell
[tb_dev] Currently allocated     4.56E-01 Mbytes, locked:    0 /   6
[tb_pin] Currently allocated     0.00E+00 Mbytes, locked:    0 /   0

     iteration # 75     ecut=    40.00 Ry     beta= 0.10
     Davidson diagonalization with overlap

---- Real-time Memory Report at c_bands before calling an iterative solver
          1867 MiB given to the printing process from OS
           957 MiB allocation reported by mallinfo(arena+hblkhd)
         57800 MiB available memory on the node where the printing process lives
     GPU memory used/free/total (MiB): 966 / 15314 / 16280
------------------
     c_bands:  1 eigenvalues not converged
     c_bands:  1 eigenvalues not converged
     c_bands:  1 eigenvalues not converged
     c_bands:  1 eigenvalues not converged
     c_bands:  1 eigenvalues not converged
     ethr =  3.29E-07,  avg # of iterations = 11.3

     negative rho (up, down):  4.211E-04 2.004E-03

     total cpu time spent up to now is      331.4 secs

     total energy              =    -478.00192970 Ry
     estimated scf accuracy    <       0.00411108 Ry

     total magnetization       =     3.96 Bohr mag/cell
     absolute magnetization    =     4.06 Bohr mag/cell
[tb_dev] Currently allocated     4.56E-01 Mbytes, locked:    0 /   6
[tb_pin] Currently allocated     0.00E+00 Mbytes, locked:    0 /   0

     iteration # 76     ecut=    40.00 Ry     beta= 0.10
     Davidson diagonalization with overlap

---- Real-time Memory Report at c_bands before calling an iterative solver
          1869 MiB given to the printing process from OS
           959 MiB allocation reported by mallinfo(arena+hblkhd)
         57797 MiB available memory on the node where the printing process lives
     GPU memory used/free/total (MiB): 966 / 15314 / 16280
------------------
     ethr =  3.29E-07,  avg # of iterations =  7.7

     negative rho (up, down):  3.885E-04 2.035E-03

     total cpu time spent up to now is      337.1 secs

     total energy              =    -477.99991291 Ry
     estimated scf accuracy    <       0.00245587 Ry

     total magnetization       =     3.77 Bohr mag/cell
     absolute magnetization    =     3.87 Bohr mag/cell
[tb_dev] Currently allocated     4.56E-01 Mbytes, locked:    0 /   6
[tb_pin] Currently allocated     0.00E+00 Mbytes, locked:    0 /   0

     iteration # 77     ecut=    40.00 Ry     beta= 0.10
     Davidson diagonalization with overlap

---- Real-time Memory Report at c_bands before calling an iterative solver
          1871 MiB given to the printing process from OS
           961 MiB allocation reported by mallinfo(arena+hblkhd)
         57798 MiB available memory on the node where the printing process lives
     GPU memory used/free/total (MiB): 966 / 15314 / 16280
------------------
     ethr =  3.29E-07,  avg # of iterations =  6.9

     negative rho (up, down):  5.621E-04 1.869E-03

     total cpu time spent up to now is      342.0 secs

     total energy              =    -477.99603092 Ry
     estimated scf accuracy    <       0.00387657 Ry

     total magnetization       =     3.90 Bohr mag/cell
     absolute magnetization    =     3.99 Bohr mag/cell
[tb_dev] Currently allocated     4.56E-01 Mbytes, locked:    0 /   6
[tb_pin] Currently allocated     0.00E+00 Mbytes, locked:    0 /   0

     iteration # 78     ecut=    40.00 Ry     beta= 0.10
     Davidson diagonalization with overlap

---- Real-time Memory Report at c_bands before calling an iterative solver
          1872 MiB given to the printing process from OS
           962 MiB allocation reported by mallinfo(arena+hblkhd)
         57797 MiB available memory on the node where the printing process lives
     GPU memory used/free/total (MiB): 966 / 15314 / 16280
------------------
     c_bands:  1 eigenvalues not converged
     c_bands:  1 eigenvalues not converged
     c_bands:  1 eigenvalues not converged
     c_bands:  1 eigenvalues not converged
     c_bands:  1 eigenvalues not converged
     c_bands:  1 eigenvalues not converged
     c_bands:  1 eigenvalues not converged
     ethr =  3.29E-07,  avg # of iterations = 11.7

     negative rho (up, down):  5.496E-04 1.881E-03

     total cpu time spent up to now is      349.5 secs

     total energy              =    -478.00858078 Ry
     estimated scf accuracy    <       0.00041519 Ry

     total magnetization       =     3.08 Bohr mag/cell
     absolute magnetization    =     3.18 Bohr mag/cell
[tb_dev] Currently allocated     4.56E-01 Mbytes, locked:    0 /   6
[tb_pin] Currently allocated     0.00E+00 Mbytes, locked:    0 /   0

     iteration # 79     ecut=    40.00 Ry     beta= 0.10
     Davidson diagonalization with overlap

---- Real-time Memory Report at c_bands before calling an iterative solver
          1875 MiB given to the printing process from OS
           964 MiB allocation reported by mallinfo(arena+hblkhd)
         57793 MiB available memory on the node where the printing process lives
     GPU memory used/free/total (MiB): 966 / 15314 / 16280
------------------
     ethr =  3.29E-07,  avg # of iterations =  3.8

     negative rho (up, down):  7.423E-04 1.696E-03

     total cpu time spent up to now is      353.1 secs

     total energy              =    -477.98650577 Ry
     estimated scf accuracy    <       0.00048180 Ry

     total magnetization       =     3.16 Bohr mag/cell
     absolute magnetization    =     3.26 Bohr mag/cell
[tb_dev] Currently allocated     4.56E-01 Mbytes, locked:    0 /   6
[tb_pin] Currently allocated     0.00E+00 Mbytes, locked:    0 /   0

     iteration # 80     ecut=    40.00 Ry     beta= 0.10
     Davidson diagonalization with overlap

---- Real-time Memory Report at c_bands before calling an iterative solver
          1876 MiB given to the printing process from OS
           966 MiB allocation reported by mallinfo(arena+hblkhd)
         57794 MiB available memory on the node where the printing process lives
     GPU memory used/free/total (MiB): 966 / 15314 / 16280
------------------
     c_bands:  1 eigenvalues not converged
     c_bands:  1 eigenvalues not converged
     c_bands:  1 eigenvalues not converged
     c_bands:  1 eigenvalues not converged
     c_bands:  1 eigenvalues not converged
     c_bands:  1 eigenvalues not converged
     c_bands:  1 eigenvalues not converged
     c_bands:  1 eigenvalues not converged
     c_bands:  1 eigenvalues not converged
     c_bands:  1 eigenvalues not converged
     c_bands:  1 eigenvalues not converged
     c_bands:  1 eigenvalues not converged
     c_bands:  1 eigenvalues not converged
     c_bands:  1 eigenvalues not converged
     c_bands:  1 eigenvalues not converged
     c_bands:  1 eigenvalues not converged
     c_bands:  1 eigenvalues not converged
     c_bands:  1 eigenvalues not converged
     c_bands:  1 eigenvalues not converged
     c_bands:  1 eigenvalues not converged
     ethr =  3.29E-07,  avg # of iterations = 13.0

     negative rho (up, down):  6.338E-04 1.800E-03

     total cpu time spent up to now is      361.2 secs

     total energy              =    -477.99777082 Ry
     estimated scf accuracy    <       0.00466672 Ry

     total magnetization       =     1.12 Bohr mag/cell
     absolute magnetization    =     2.90 Bohr mag/cell

     End of self-consistent calculation

     convergence NOT achieved after  80 iterations: stopping

     Writing config to output data dir ./out/aiida.save/
 
     init_run     :     17.96s CPU      2.73s WALL (       1 calls)
     electrons    :    738.39s CPU    357.42s WALL (       1 calls)

     Called by init_run:
     wfcinit      :      0.17s CPU      0.17s WALL (       1 calls)
                                        0.17s GPU  (       1 calls)
     potinit      :      7.19s CPU      0.75s WALL (       1 calls)
     hinit0       :      7.17s CPU      1.26s WALL (       1 calls)

     Called by electrons:
     c_bands      :    383.11s CPU    296.94s WALL (      80 calls)
     sum_band     :     24.64s CPU     30.43s WALL (      80 calls)
     v_of_rho     :      7.23s CPU      0.65s WALL (      81 calls)
     v_h          :      1.09s CPU      0.10s WALL (      81 calls)
     v_xc         :      6.14s CPU      0.56s WALL (      81 calls)
     newd         :     25.25s CPU      2.58s WALL (      81 calls)
                                        2.58s GPU  (      81 calls)
     PAW_pot      :    293.97s CPU     26.63s WALL (      81 calls)
     mix_rho      :      7.89s CPU      0.77s WALL (      80 calls)

     Called by c_bands:
     init_us_2    :     29.46s CPU     26.47s WALL (   23040 calls)
     init_us_2:gp :     28.97s CPU     26.08s WALL (   23040 calls)
     cegterg      :    344.20s CPU    265.80s WALL (   11520 calls)

     Called by sum_band:
     sum_band:wei :      0.30s CPU      0.31s WALL (      80 calls)
                                        0.31s GPU  (      80 calls)
     sum_band:loo :     21.27s CPU     26.76s WALL (      80 calls)
                                       26.76s GPU  (      80 calls)
     sum_band:buf :      2.19s CPU      2.73s WALL (   11520 calls)
                                        2.66s GPU  (   11520 calls)
     sum_band:ini :      9.98s CPU     12.96s WALL (   11520 calls)
                                       12.90s GPU  (   11520 calls)
     sum_band:cal :      0.34s CPU      0.78s WALL (   11520 calls)
                                        0.71s GPU  (   11520 calls)
     sum_band:bec :      1.90s CPU      2.39s WALL (   11520 calls)
                                        2.32s GPU  (   11520 calls)
     addusdens    :      2.61s CPU      2.88s WALL (      80 calls)
                                        2.88s GPU  (      80 calls)
     addusd:skk   :      0.01s CPU      0.02s WALL (     320 calls)
                                        0.01s GPU  (     320 calls)

     Called by *egterg:
     cdiaghg      :    173.01s CPU    138.09s WALL (   78314 calls)
                                      137.58s GPU  (   78314 calls)
     cegterg:over :      9.60s CPU      7.62s WALL (   66938 calls)
     cegterg:upda :     19.02s CPU     14.88s WALL (   66938 calls)
     cegterg:last :      3.90s CPU      3.06s WALL (   34238 calls)
     h_psi        :     99.42s CPU     74.29s WALL (   78458 calls)
                                       73.87s GPU  (   78458 calls)
     s_psi        :      8.50s CPU      8.84s WALL (   78458 calls)
                                        8.31s GPU  (   78458 calls)
     g_psi        :      0.63s CPU      1.29s WALL (   66938 calls)
                                        0.88s GPU  (   66938 calls)

     Called by h_psi:
     h_psi:calbec :      3.33s CPU      5.72s WALL (   78458 calls)
                                        5.25s GPU  (   78458 calls)
     vloc_psi     :     72.32s CPU     53.92s WALL (   78458 calls)
                                       53.46s GPU  (   78458 calls)
     add_vuspsi   :     11.00s CPU      9.91s WALL (   78458 calls)
                                        9.45s GPU  (   78458 calls)

     General routines
     calbec       :      2.76s CPU      2.20s WALL (   89978 calls)
     fft          :      2.36s CPU      0.27s WALL (    2023 calls)
                                        0.23s GPU  (    1861 calls)
     ffts         :      0.02s CPU      0.02s WALL (     322 calls)
                                        0.00s GPU  (     160 calls)
     fftw         :      6.32s CPU     27.73s WALL (  234090 calls)
                                       26.45s GPU  (  234090 calls)
     interpolate  :      1.12s CPU      0.10s WALL (     162 calls)
     davcio       :      1.12s CPU      0.19s WALL (     306 calls)
 
     Parallel routines

     PAW routines
     PAW_pot      :    293.97s CPU     26.63s WALL (      81 calls)
     PAW_symme    :      0.37s CPU      0.06s WALL (     160 calls)
 
     PWSCF        :  12m40.72s CPU   6m 1.41s WALL

 
   This run was terminated on:  18:14:13  23Oct2023            

=------------------------------------------------------------------------------=
   JOB DONE.
=------------------------------------------------------------------------------=
