
     Program PWSCF v.7.2 starts on 23Oct2023 at 22:33:46 

     This program is part of the open-source Quantum ESPRESSO suite
     for quantum simulation of materials; please cite
         "P. Giannozzi et al., J. Phys.:Condens. Matter 21 395502 (2009);
         "P. Giannozzi et al., J. Phys.:Condens. Matter 29 465901 (2017);
         "P. Giannozzi et al., J. Chem. Phys. 152 154105 (2020);
          URL http://www.quantum-espresso.org", 
     in publications or presentations arising from this work. More details at
     http://www.quantum-espresso.org/quote

     Parallel version (MPI & OpenMP), running on      12 processor cores
     Number of MPI processes:                 1
     Threads/MPI process:                    12

     MPI processes distributed on     1 nodes
     60261 MiB available memory on the printing compute node when the environment starts
 
     Reading input from aiida.in

     Current dimensions of program PWSCF are:
     Max number of different atomic species (ntypx) = 10
     Max number of k-points (npk) =  40000
     Max angular momentum in pseudopotentials (lmaxx) =  4
     file Ba.pbesol-spn-kjpaw_psl.1.0.0.UPF: wavefunction(s)  5S 6S renormalized
     Message from routine setup:
     using ibrav=0 with symmetry is DISCOURAGED, use correct ibrav instead
 
     Subspace diagonalization in iterative solution of the eigenvalue problem:
     a serial algorithm will be used

 
     G-vector sticks info
     --------------------
     sticks:   dense  smooth     PW     G-vecs:    dense   smooth      PW
     Sum        3065    2573    801                57183    43409    7495
 
     Using Slab Decomposition
 


     bravais-lattice index     =            0
     lattice parameter (alat)  =      15.4029  a.u.
     unit-cell volume          =     911.5428 (a.u.)^3
     number of atoms/cell      =            3
     number of atomic types    =            2
     number of electrons       =        40.00
     number of Kohn-Sham states=           24
     kinetic-energy cutoff     =      50.0000  Ry
     charge density cutoff     =     240.0000  Ry
     scf convergence threshold =      6.0E-10
     mixing beta               =       0.1000
     number of iterations used =            8  plain     mixing
     Exchange-correlation= PBESOL
                           (   1   4  10   8   0   0   0)

     GPU acceleration is ACTIVE.


     GPU used by master process:

        Device Number: 0
        Device name: Tesla P100-PCIE-16GB
        Compute capability : 60
        Ratio of single to double precision performance  : 2
        Memory Clock Rate (KHz): 715000
        Memory Bus Width (bits): 4096
        Peak Memory Bandwidth (GB/s): 732.16

     celldm(1)=  15.402882  celldm(2)=   0.000000  celldm(3)=   0.000000
     celldm(4)=   0.000000  celldm(5)=   0.000000  celldm(6)=   0.000000

     crystal axes: (cart. coord. in units of alat)
               a(1) = (  -0.258869   0.258869   0.930577 )  
               a(2) = (   0.258869  -0.258869   0.930577 )  
               a(3) = (   0.258869   0.258869  -0.930577 )  

     reciprocal axes: (cart. coord. in units 2 pi/alat)
               b(1) = ( -0.000000  1.931482  0.537301 )  
               b(2) = (  1.931482 -0.000000  0.537301 )  
               b(3) = (  1.931482  1.931482  0.000000 )  


     PseudoPot. # 1 for Ba read from file:
     ./pseudo/Ba.pbesol-spn-kjpaw_psl.1.0.0.UPF
     MD5 check sum: f28c4a63d325c1a0d00fd3a4f19b8d73
     Pseudo is Projector augmented-wave + core cor, Zval = 10.0
     Generated using "atomic" code by A. Dal Corso  v.6.0 svn rev. 13079
     Shape of augmentation charge: PSQ
     Using radial grid of 1251 points,  7 beta functions with: 
                l(1) =   0
                l(2) =   0
                l(3) =   0
                l(4) =   1
                l(5) =   1
                l(6) =   2
                l(7) =   2
     Q(r) pseudized with 0 coefficients 


     PseudoPot. # 2 for Hg read from file:
     ./pseudo/Hg_ONCV_PBEsol-1.0.upf
     MD5 check sum: 9b18bbaf32e5d8994dbbbf1f0a8e2d63
     Pseudo is Norm-conserving, Zval = 20.0
     Generated using ONCVPSP code by D. R. Hamann
     Using radial grid of 1246 points,  8 beta functions with: 
                l(1) =   0
                l(2) =   0
                l(3) =   1
                l(4) =   1
                l(5) =   2
                l(6) =   2
                l(7) =   3
                l(8) =   3

     atomic species   valence    mass     pseudopotential
        Ba            10.00   137.32700     Ba( 1.00)
        Hg            20.00   200.59000     Hg( 1.00)

     Starting magnetic structure 
     atomic species   magnetization
        Ba           0.100
        Hg           0.100

     16 Sym. Ops., with inversion, found


                                    s                        frac. trans.

      isym =  1     identity                                     

 cryst.   s( 1) = (     1          0          0      )
                  (     0          1          0      )
                  (     0          0          1      )

 cart.    s( 1) = (  1.0000000  0.0000000  0.0000000 )
                  (  0.0000000  1.0000000 -0.0000000 )
                  ( -0.0000000 -0.0000000  1.0000000 )


      isym =  2     180 deg rotation - cart. axis [0,0,1]        

 cryst.   s( 2) = (     0          1          0      )
                  (     1          0          0      )
                  (    -1         -1         -1      )

 cart.    s( 2) = ( -1.0000000 -0.0000000  0.0000000 )
                  ( -0.0000000 -1.0000000 -0.0000000 )
                  (  0.0000000  0.0000000  1.0000000 )


      isym =  3     180 deg rotation - cart. axis [0,1,0]        

 cryst.   s( 3) = (     0          0          1      )
                  (    -1         -1         -1      )
                  (     1          0          0      )

 cart.    s( 3) = ( -1.0000000  0.0000000 -0.0000000 )
                  ( -0.0000000  1.0000000  0.0000000 )
                  (  0.0000000 -0.0000000 -1.0000000 )


      isym =  4     180 deg rotation - cart. axis [1,0,0]        

 cryst.   s( 4) = (    -1         -1         -1      )
                  (     0          0          1      )
                  (     0          1          0      )

 cart.    s( 4) = (  1.0000000 -0.0000000 -0.0000000 )
                  (  0.0000000 -1.0000000  0.0000000 )
                  ( -0.0000000  0.0000000 -1.0000000 )


      isym =  5     180 deg rotation - cart. axis [1,1,0]        

 cryst.   s( 5) = (    -1          0          0      )
                  (     0         -1          0      )
                  (     1          1          1      )

 cart.    s( 5) = (  0.0000000  1.0000000 -0.0000000 )
                  (  1.0000000  0.0000000  0.0000000 )
                  ( -0.0000000 -0.0000000 -1.0000000 )


      isym =  6     180 deg rotation - cart. axis [1,-1,0]       

 cryst.   s( 6) = (     0         -1          0      )
                  (    -1          0          0      )
                  (     0          0         -1      )

 cart.    s( 6) = ( -0.0000000 -1.0000000 -0.0000000 )
                  ( -1.0000000 -0.0000000  0.0000000 )
                  (  0.0000000  0.0000000 -1.0000000 )


      isym =  7      90 deg rotation - cart. axis [0,0,-1]       

 cryst.   s( 7) = (     1          1          1      )
                  (     0          0         -1      )
                  (    -1          0          0      )

 cart.    s( 7) = ( -0.0000000  1.0000000  0.0000000 )
                  ( -1.0000000  0.0000000 -0.0000000 )
                  (  0.0000000 -0.0000000  1.0000000 )


      isym =  8      90 deg rotation - cart. axis [0,0,1]        

 cryst.   s( 8) = (     0          0         -1      )
                  (     1          1          1      )
                  (     0         -1          0      )

 cart.    s( 8) = (  0.0000000 -1.0000000  0.0000000 )
                  (  1.0000000 -0.0000000 -0.0000000 )
                  ( -0.0000000  0.0000000  1.0000000 )


      isym =  9     inversion                                    

 cryst.   s( 9) = (    -1          0          0      )
                  (     0         -1          0      )
                  (     0          0         -1      )

 cart.    s( 9) = ( -1.0000000 -0.0000000 -0.0000000 )
                  ( -0.0000000 -1.0000000  0.0000000 )
                  (  0.0000000  0.0000000 -1.0000000 )


      isym = 10     inv. 180 deg rotation - cart. axis [0,0,1]   

 cryst.   s(10) = (     0         -1          0      )
                  (    -1          0          0      )
                  (     1          1          1      )

 cart.    s(10) = (  1.0000000  0.0000000 -0.0000000 )
                  (  0.0000000  1.0000000  0.0000000 )
                  ( -0.0000000 -0.0000000 -1.0000000 )


      isym = 11     inv. 180 deg rotation - cart. axis [0,1,0]   

 cryst.   s(11) = (     0          0         -1      )
                  (     1          1          1      )
                  (    -1          0          0      )

 cart.    s(11) = (  1.0000000 -0.0000000  0.0000000 )
                  (  0.0000000 -1.0000000 -0.0000000 )
                  ( -0.0000000  0.0000000  1.0000000 )


      isym = 12     inv. 180 deg rotation - cart. axis [1,0,0]   

 cryst.   s(12) = (     1          1          1      )
                  (     0          0         -1      )
                  (     0         -1          0      )

 cart.    s(12) = ( -1.0000000  0.0000000  0.0000000 )
                  ( -0.0000000  1.0000000 -0.0000000 )
                  (  0.0000000 -0.0000000  1.0000000 )


      isym = 13     inv. 180 deg rotation - cart. axis [1,1,0]   

 cryst.   s(13) = (     1          0          0      )
                  (     0          1          0      )
                  (    -1         -1         -1      )

 cart.    s(13) = ( -0.0000000 -1.0000000  0.0000000 )
                  ( -1.0000000 -0.0000000 -0.0000000 )
                  (  0.0000000  0.0000000  1.0000000 )


      isym = 14     inv. 180 deg rotation - cart. axis [1,-1,0]  

 cryst.   s(14) = (     0          1          0      )
                  (     1          0          0      )
                  (     0          0          1      )

 cart.    s(14) = (  0.0000000  1.0000000  0.0000000 )
                  (  1.0000000  0.0000000 -0.0000000 )
                  ( -0.0000000 -0.0000000  1.0000000 )


      isym = 15     inv.  90 deg rotation - cart. axis [0,0,-1]  

 cryst.   s(15) = (    -1         -1         -1      )
                  (     0          0          1      )
                  (     1          0          0      )

 cart.    s(15) = (  0.0000000 -1.0000000 -0.0000000 )
                  (  1.0000000 -0.0000000  0.0000000 )
                  ( -0.0000000  0.0000000 -1.0000000 )


      isym = 16     inv.  90 deg rotation - cart. axis [0,0,1]   

 cryst.   s(16) = (     0          0          1      )
                  (    -1         -1         -1      )
                  (     0          1          0      )

 cart.    s(16) = ( -0.0000000  1.0000000 -0.0000000 )
                  ( -1.0000000  0.0000000  0.0000000 )
                  (  0.0000000 -0.0000000 -1.0000000 )


   Cartesian axes

     site n.     atom                  positions (alat units)
         1           Ba  tau(   1) = (   0.2588686   0.2588686   0.2851289  )
         2           Ba  tau(   2) = (   0.0000000  -0.0000000   0.6454484  )
         3           Hg  tau(   3) = (   0.0000000   0.0000000   0.0000000  )

   Crystallographic axes

     site n.     atom                  positions (cryst. coord.)
         1           Ba  tau(   1) = (  0.6532000  0.6532000  1.0000000  )
         2           Ba  tau(   2) = (  0.3468000  0.3468000  0.0000000  )
         3           Hg  tau(   3) = (  0.0000000  0.0000000  0.0000000  )

     number of k points=   288  Marzari-Vanderbilt smearing, width (Ry)=  0.0100
                       cart. coord. in units 2pi/alat
        k(    1) = (   0.0000000   0.0000000   0.0000000), wk =   0.0002963
        k(    2) = (   0.1287655   0.1287655   0.0000000), wk =   0.0011852
        k(    3) = (   0.2575309   0.2575309   0.0000000), wk =   0.0011852
        k(    4) = (   0.3862964   0.3862964   0.0000000), wk =   0.0011852
        k(    5) = (   0.5150619   0.5150619   0.0000000), wk =   0.0011852
        k(    6) = (   0.6438273   0.6438273   0.0000000), wk =   0.0011852
        k(    7) = (   0.7725928   0.7725928   0.0000000), wk =   0.0011852
        k(    8) = (   0.9013583   0.9013583   0.0000000), wk =   0.0011852
        k(    9) = (   0.1287655  -0.0000000   0.0358201), wk =   0.0023704
        k(   10) = (   0.2575309   0.1287655   0.0358201), wk =   0.0047407
        k(   11) = (   0.3862964   0.2575309   0.0358201), wk =   0.0047407
        k(   12) = (   0.5150619   0.3862964   0.0358201), wk =   0.0047407
        k(   13) = (   0.6438273   0.5150619   0.0358201), wk =   0.0047407
        k(   14) = (   0.7725928   0.6438273   0.0358201), wk =   0.0047407
        k(   15) = (   0.9013583   0.7725928   0.0358201), wk =   0.0047407
        k(   16) = (   1.0301238   0.9013583   0.0358201), wk =   0.0023704
        k(   17) = (   0.2575309  -0.0000000   0.0716401), wk =   0.0023704
        k(   18) = (   0.3862964   0.1287655   0.0716401), wk =   0.0047407
        k(   19) = (   0.5150619   0.2575309   0.0716401), wk =   0.0047407
        k(   20) = (   0.6438273   0.3862964   0.0716401), wk =   0.0047407
        k(   21) = (   0.7725928   0.5150619   0.0716401), wk =   0.0047407
        k(   22) = (   0.9013583   0.6438273   0.0716401), wk =   0.0047407
        k(   23) = (   1.0301238   0.7725928   0.0716401), wk =   0.0047407
        k(   24) = (   0.1287655  -0.1287655   0.0716401), wk =   0.0023704
        k(   25) = (   0.3862964  -0.0000000   0.1074602), wk =   0.0023704
        k(   26) = (   0.5150619   0.1287655   0.1074602), wk =   0.0047407
        k(   27) = (   0.6438273   0.2575309   0.1074602), wk =   0.0047407
        k(   28) = (   0.7725928   0.3862964   0.1074602), wk =   0.0047407
        k(   29) = (   0.9013583   0.5150619   0.1074602), wk =   0.0047407
        k(   30) = (   1.0301238   0.6438273   0.1074602), wk =   0.0047407
        k(   31) = (   1.1588892   0.7725928   0.1074602), wk =   0.0023704
        k(   32) = (   0.1287655  -0.2575309   0.1074602), wk =   0.0047407
        k(   33) = (   0.5150619  -0.0000000   0.1432802), wk =   0.0023704
        k(   34) = (   0.6438273   0.1287655   0.1432802), wk =   0.0047407
        k(   35) = (   0.7725928   0.2575309   0.1432802), wk =   0.0047407
        k(   36) = (   0.9013583   0.3862964   0.1432802), wk =   0.0047407
        k(   37) = (   1.0301238   0.5150619   0.1432802), wk =   0.0047407
        k(   38) = (   1.1588892   0.6438273   0.1432802), wk =   0.0047407
        k(   39) = (   0.1287655  -0.3862964   0.1432802), wk =   0.0047407
        k(   40) = (   0.2575309  -0.2575309   0.1432802), wk =   0.0023704
        k(   41) = (   0.6438273  -0.0000000   0.1791003), wk =   0.0023704
        k(   42) = (   0.7725928   0.1287655   0.1791003), wk =   0.0047407
        k(   43) = (   0.9013583   0.2575309   0.1791003), wk =   0.0047407
        k(   44) = (   1.0301238   0.3862964   0.1791003), wk =   0.0047407
        k(   45) = (   1.1588892   0.5150619   0.1791003), wk =   0.0047407
        k(   46) = (   1.2876547   0.6438273   0.1791003), wk =   0.0023704
        k(   47) = (   0.1287655  -0.5150619   0.1791003), wk =   0.0047407
        k(   48) = (   0.2575309  -0.3862964   0.1791003), wk =   0.0047407
        k(   49) = (   0.7725928  -0.0000000   0.2149203), wk =   0.0023704
        k(   50) = (   0.9013583   0.1287655   0.2149203), wk =   0.0047407
        k(   51) = (   1.0301238   0.2575309   0.2149203), wk =   0.0047407
        k(   52) = (   1.1588892   0.3862964   0.2149203), wk =   0.0047407
        k(   53) = (   1.2876547   0.5150619   0.2149203), wk =   0.0047407
        k(   54) = (   0.1287655  -0.6438273   0.2149203), wk =   0.0047407
        k(   55) = (   0.2575309  -0.5150619   0.2149203), wk =   0.0047407
        k(   56) = (   0.3862964  -0.3862964   0.2149203), wk =   0.0023704
        k(   57) = (   0.9013583  -0.0000000   0.2507404), wk =   0.0023704
        k(   58) = (   1.0301238   0.1287655   0.2507404), wk =   0.0047407
        k(   59) = (   1.1588892   0.2575309   0.2507404), wk =   0.0047407
        k(   60) = (   1.2876547   0.3862964   0.2507404), wk =   0.0047407
        k(   61) = (   1.4164202   0.5150619   0.2507404), wk =   0.0023704
        k(   62) = (   0.1287655  -0.7725928   0.2507404), wk =   0.0047407
        k(   63) = (   0.2575309  -0.6438273   0.2507404), wk =   0.0047407
        k(   64) = (   0.3862964  -0.5150619   0.2507404), wk =   0.0047407
        k(   65) = (   0.2575309   0.2575309   0.0716401), wk =   0.0023704
        k(   66) = (   0.3862964   0.3862964   0.0716401), wk =   0.0023704
        k(   67) = (   0.5150619   0.5150619   0.0716401), wk =   0.0023704
        k(   68) = (   0.6438273   0.6438273   0.0716401), wk =   0.0023704
        k(   69) = (   0.7725928   0.7725928   0.0716401), wk =   0.0023704
        k(   70) = (   0.9013583   0.9013583   0.0716401), wk =   0.0023704
        k(   71) = (   0.0000000   0.0000000   0.0716401), wk =   0.0005926
        k(   72) = (   0.3862964   0.2575309   0.1074602), wk =   0.0047407
        k(   73) = (   0.5150619   0.3862964   0.1074602), wk =   0.0047407
        k(   74) = (   0.6438273   0.5150619   0.1074602), wk =   0.0047407
        k(   75) = (   0.7725928   0.6438273   0.1074602), wk =   0.0047407
        k(   76) = (   0.9013583   0.7725928   0.1074602), wk =   0.0047407
        k(   77) = (   1.0301238   0.9013583   0.1074602), wk =   0.0023704
        k(   78) = (   0.0000000  -0.1287655   0.1074602), wk =   0.0023704
        k(   79) = (   0.5150619   0.2575309   0.1432802), wk =   0.0047407
        k(   80) = (   0.6438273   0.3862964   0.1432802), wk =   0.0047407
        k(   81) = (   0.7725928   0.5150619   0.1432802), wk =   0.0047407
        k(   82) = (   0.9013583   0.6438273   0.1432802), wk =   0.0047407
        k(   83) = (   1.0301238   0.7725928   0.1432802), wk =   0.0047407
        k(   84) = (   0.0000000  -0.2575309   0.1432802), wk =   0.0023704
        k(   85) = (   0.1287655  -0.1287655   0.1432802), wk =   0.0023704
        k(   86) = (   0.6438273   0.2575309   0.1791003), wk =   0.0047407
        k(   87) = (   0.7725928   0.3862964   0.1791003), wk =   0.0047407
        k(   88) = (   0.9013583   0.5150619   0.1791003), wk =   0.0047407
        k(   89) = (   1.0301238   0.6438273   0.1791003), wk =   0.0047407
        k(   90) = (   1.1588892   0.7725928   0.1791003), wk =   0.0023704
        k(   91) = (  -0.0000000  -0.3862964   0.1791003), wk =   0.0023704
        k(   92) = (   0.1287655  -0.2575309   0.1791003), wk =   0.0047407
        k(   93) = (   0.7725928   0.2575309   0.2149203), wk =   0.0047407
        k(   94) = (   0.9013583   0.3862964   0.2149203), wk =   0.0047407
        k(   95) = (   1.0301238   0.5150619   0.2149203), wk =   0.0047407
        k(   96) = (   1.1588892   0.6438273   0.2149203), wk =   0.0047407
        k(   97) = (  -0.0000000  -0.5150619   0.2149203), wk =   0.0023704
        k(   98) = (   0.1287655  -0.3862964   0.2149203), wk =   0.0047407
        k(   99) = (   0.2575309  -0.2575309   0.2149203), wk =   0.0023704
        k(  100) = (   0.9013583   0.2575309   0.2507404), wk =   0.0047407
        k(  101) = (   1.0301238   0.3862964   0.2507404), wk =   0.0047407
        k(  102) = (   1.1588892   0.5150619   0.2507404), wk =   0.0047407
        k(  103) = (   1.2876547   0.6438273   0.2507404), wk =   0.0023704
        k(  104) = (  -0.0000000  -0.6438273   0.2507404), wk =   0.0023704
        k(  105) = (   0.1287655  -0.5150619   0.2507404), wk =   0.0047407
        k(  106) = (   0.2575309  -0.3862964   0.2507404), wk =   0.0047407
        k(  107) = (   1.1588892   0.3862964   0.2865605), wk =   0.0047407
        k(  108) = (   1.2876547   0.5150619   0.2865605), wk =   0.0047407
        k(  109) = (   0.0000000  -0.7725928   0.2865605), wk =   0.0023704
        k(  110) = (   0.1287655  -0.6438273   0.2865605), wk =   0.0047407
        k(  111) = (   0.2575309  -0.5150619   0.2865605), wk =   0.0047407
        k(  112) = (   0.3862964  -0.3862964   0.2865605), wk =   0.0023704
        k(  113) = (  -0.6438273   0.3862964  -0.2149203), wk =   0.0047407
        k(  114) = (  -0.5150619   0.5150619  -0.2149203), wk =   0.0023704
        k(  115) = (  -0.0000000   1.0301238  -0.2149203), wk =   0.0023704
        k(  116) = (  -1.8027166  -0.7725928  -0.2149203), wk =   0.0047407
        k(  117) = (  -1.6739511  -0.6438273  -0.2149203), wk =   0.0047407
        k(  118) = (  -1.5451856  -0.5150619  -0.2149203), wk =   0.0047407
        k(  119) = (  -0.5150619   0.3862964  -0.1791003), wk =   0.0047407
        k(  120) = (   0.0000000   0.9013583  -0.1791003), wk =   0.0023704
        k(  121) = (   0.1287655   1.0301238  -0.1791003), wk =   0.0047407
        k(  122) = (  -1.6739511  -0.7725928  -0.1791003), wk =   0.0047407
        k(  123) = (  -1.5451856  -0.6438273  -0.1791003), wk =   0.0047407
        k(  124) = (  -1.4164202  -0.5150619  -0.1791003), wk =   0.0023704
        k(  125) = (  -0.3862964   0.3862964  -0.1432802), wk =   0.0023704
        k(  126) = (  -0.0000000   0.7725928  -0.1432802), wk =   0.0023704
        k(  127) = (   0.1287655   0.9013583  -0.1432802), wk =   0.0047407
        k(  128) = (   0.2575309   1.0301238  -0.1432802), wk =   0.0047407
        k(  129) = (  -1.5451856  -0.7725928  -0.1432802), wk =   0.0047407
        k(  130) = (  -1.4164202  -0.6438273  -0.1432802), wk =   0.0047407
        k(  131) = (  -0.0000000   0.6438273  -0.1074602), wk =   0.0023704
        k(  132) = (   0.1287655   0.7725928  -0.1074602), wk =   0.0047407
        k(  133) = (   0.2575309   0.9013583  -0.1074602), wk =   0.0047407
        k(  134) = (   0.3862964   1.0301238  -0.1074602), wk =   0.0047407
        k(  135) = (  -1.4164202  -0.7725928  -0.1074602), wk =   0.0047407
        k(  136) = (  -1.2876547  -0.6438273  -0.1074602), wk =   0.0023704
        k(  137) = (   0.0000000   0.5150619  -0.0716401), wk =   0.0023704
        k(  138) = (   0.1287655   0.6438273  -0.0716401), wk =   0.0047407
        k(  139) = (   0.2575309   0.7725928  -0.0716401), wk =   0.0047407
        k(  140) = (   0.3862964   0.9013583  -0.0716401), wk =   0.0047407
        k(  141) = (   0.5150619   1.0301238  -0.0716401), wk =   0.0047407
        k(  142) = (  -1.2876547  -0.7725928  -0.0716401), wk =   0.0047407
        k(  143) = (   0.0000000   0.3862964  -0.0358201), wk =   0.0023704
        k(  144) = (   0.1287655   0.5150619  -0.0358201), wk =   0.0047407
        k(  145) = (   0.2575309   0.6438273  -0.0358201), wk =   0.0047407
        k(  146) = (   0.3862964   0.7725928  -0.0358201), wk =   0.0047407
        k(  147) = (   0.5150619   0.9013583  -0.0358201), wk =   0.0047407
        k(  148) = (   0.6438273   1.0301238  -0.0358201), wk =   0.0047407
        k(  149) = (  -1.1588892  -0.7725928  -0.0358201), wk =   0.0023704
        k(  150) = (   0.0000000   0.2575309   0.0000000), wk =   0.0011852
        k(  151) = (   0.1287655   0.3862964   0.0000000), wk =   0.0023704
        k(  152) = (   0.2575309   0.5150619   0.0000000), wk =   0.0023704
        k(  153) = (   0.3862964   0.6438273   0.0000000), wk =   0.0023704
        k(  154) = (   0.5150619   0.7725928   0.0000000), wk =   0.0023704
        k(  155) = (   0.6438273   0.9013583   0.0000000), wk =   0.0023704
        k(  156) = (   0.7725928   1.0301238   0.0000000), wk =   0.0023704
        k(  157) = (   0.5150619   0.5150619   0.1432802), wk =   0.0023704
        k(  158) = (   0.6438273   0.6438273   0.1432802), wk =   0.0023704
        k(  159) = (   0.7725928   0.7725928   0.1432802), wk =   0.0023704
        k(  160) = (   0.9013583   0.9013583   0.1432802), wk =   0.0023704
        k(  161) = (   0.0000000   0.0000000   0.1432802), wk =   0.0005926
        k(  162) = (   0.6438273   0.5150619   0.1791003), wk =   0.0047407
        k(  163) = (   0.7725928   0.6438273   0.1791003), wk =   0.0047407
        k(  164) = (   0.9013583   0.7725928   0.1791003), wk =   0.0047407
        k(  165) = (   1.0301238   0.9013583   0.1791003), wk =   0.0023704
        k(  166) = (   0.0000000  -0.1287655   0.1791003), wk =   0.0023704
        k(  167) = (   0.7725928   0.5150619   0.2149203), wk =   0.0047407
        k(  168) = (   0.9013583   0.6438273   0.2149203), wk =   0.0047407
        k(  169) = (   1.0301238   0.7725928   0.2149203), wk =   0.0047407
        k(  170) = (  -0.0000000  -0.2575309   0.2149203), wk =   0.0023704
        k(  171) = (   0.1287655  -0.1287655   0.2149203), wk =   0.0023704
        k(  172) = (   0.9013583   0.5150619   0.2507404), wk =   0.0047407
        k(  173) = (   1.0301238   0.6438273   0.2507404), wk =   0.0047407
        k(  174) = (   1.1588892   0.7725928   0.2507404), wk =   0.0023704
        k(  175) = (  -0.0000000  -0.3862964   0.2507404), wk =   0.0023704
        k(  176) = (   0.1287655  -0.2575309   0.2507404), wk =   0.0047407
        k(  177) = (   1.1588892   0.6438273   0.2865605), wk =   0.0047407
        k(  178) = (  -0.0000000  -0.5150619   0.2865605), wk =   0.0023704
        k(  179) = (   0.1287655  -0.3862964   0.2865605), wk =   0.0047407
        k(  180) = (   0.2575309  -0.2575309   0.2865605), wk =   0.0023704
        k(  181) = (   1.2876547   0.6438273   0.3223805), wk =   0.0023704
        k(  182) = (   0.0000000  -0.6438273   0.3223805), wk =   0.0023704
        k(  183) = (   0.1287655  -0.5150619   0.3223805), wk =   0.0047407
        k(  184) = (   0.2575309  -0.3862964   0.3223805), wk =   0.0047407
        k(  185) = (  -0.0000000   1.1588892  -0.1791003), wk =   0.0023704
        k(  186) = (  -1.8027166  -0.6438273  -0.1791003), wk =   0.0047407
        k(  187) = (  -1.6739511  -0.5150619  -0.1791003), wk =   0.0047407
        k(  188) = (  -1.5451856  -0.3862964  -0.1791003), wk =   0.0023704
        k(  189) = (   0.0000000   1.0301238  -0.1432802), wk =   0.0023704
        k(  190) = (   0.1287655   1.1588892  -0.1432802), wk =   0.0047407
        k(  191) = (  -1.6739511  -0.6438273  -0.1432802), wk =   0.0047407
        k(  192) = (  -1.5451856  -0.5150619  -0.1432802), wk =   0.0047407
        k(  193) = (  -0.0000000   0.9013583  -0.1074602), wk =   0.0023704
        k(  194) = (   0.1287655   1.0301238  -0.1074602), wk =   0.0047407
        k(  195) = (   0.2575309   1.1588892  -0.1074602), wk =   0.0047407
        k(  196) = (  -1.5451856  -0.6438273  -0.1074602), wk =   0.0047407
        k(  197) = (  -1.4164202  -0.5150619  -0.1074602), wk =   0.0023704
        k(  198) = (  -0.0000000   0.7725928  -0.0716401), wk =   0.0023704
        k(  199) = (   0.1287655   0.9013583  -0.0716401), wk =   0.0047407
        k(  200) = (   0.2575309   1.0301238  -0.0716401), wk =   0.0047407
        k(  201) = (   0.3862964   1.1588892  -0.0716401), wk =   0.0047407
        k(  202) = (  -1.4164202  -0.6438273  -0.0716401), wk =   0.0047407
        k(  203) = (   0.0000000   0.6438273  -0.0358201), wk =   0.0023704
        k(  204) = (   0.1287655   0.7725928  -0.0358201), wk =   0.0047407
        k(  205) = (   0.2575309   0.9013583  -0.0358201), wk =   0.0047407
        k(  206) = (   0.3862964   1.0301238  -0.0358201), wk =   0.0047407
        k(  207) = (   0.5150619   1.1588892  -0.0358201), wk =   0.0047407
        k(  208) = (  -1.2876547  -0.6438273  -0.0358201), wk =   0.0023704
        k(  209) = (   0.0000000   0.5150619   0.0000000), wk =   0.0011852
        k(  210) = (   0.1287655   0.6438273   0.0000000), wk =   0.0023704
        k(  211) = (   0.2575309   0.7725928   0.0000000), wk =   0.0023704
        k(  212) = (   0.3862964   0.9013583   0.0000000), wk =   0.0023704
        k(  213) = (   0.5150619   1.0301238   0.0000000), wk =   0.0023704
        k(  214) = (   0.6438273   1.1588892   0.0000000), wk =   0.0023704
        k(  215) = (   0.7725928   0.7725928   0.2149203), wk =   0.0023704
        k(  216) = (   0.9013583   0.9013583   0.2149203), wk =   0.0023704
        k(  217) = (   0.0000000   0.0000000   0.2149203), wk =   0.0005926
        k(  218) = (   0.9013583   0.7725928   0.2507404), wk =   0.0047407
        k(  219) = (   1.0301238   0.9013583   0.2507404), wk =   0.0023704
        k(  220) = (  -0.0000000  -0.1287655   0.2507404), wk =   0.0023704
        k(  221) = (  -0.0000000  -0.2575309   0.2865605), wk =   0.0023704
        k(  222) = (   0.1287655  -0.1287655   0.2865605), wk =   0.0023704
        k(  223) = (  -0.0000000  -0.3862964   0.3223805), wk =   0.0023704
        k(  224) = (   0.1287655  -0.2575309   0.3223805), wk =   0.0047407
        k(  225) = (   0.0000000  -0.5150619   0.3582006), wk =   0.0023704
        k(  226) = (   0.1287655  -0.3862964   0.3582006), wk =   0.0047407
        k(  227) = (   0.2575309  -0.2575309   0.3582006), wk =   0.0023704
        k(  228) = (  -0.0000000   1.2876547  -0.1432802), wk =   0.0023704
        k(  229) = (  -1.8027166  -0.5150619  -0.1432802), wk =   0.0047407
        k(  230) = (  -1.6739511  -0.3862964  -0.1432802), wk =   0.0047407
        k(  231) = (   0.0000000   1.1588892  -0.1074602), wk =   0.0023704
        k(  232) = (   0.1287655   1.2876547  -0.1074602), wk =   0.0047407
        k(  233) = (  -1.6739511  -0.5150619  -0.1074602), wk =   0.0047407
        k(  234) = (  -1.5451856  -0.3862964  -0.1074602), wk =   0.0023704
        k(  235) = (  -0.0000000   1.0301238  -0.0716401), wk =   0.0023704
        k(  236) = (   0.1287655   1.1588892  -0.0716401), wk =   0.0047407
        k(  237) = (   0.2575309   1.2876547  -0.0716401), wk =   0.0047407
        k(  238) = (  -1.5451856  -0.5150619  -0.0716401), wk =   0.0047407
        k(  239) = (  -0.0000000   0.9013583  -0.0358201), wk =   0.0023704
        k(  240) = (   0.1287655   1.0301238  -0.0358201), wk =   0.0047407
        k(  241) = (   0.2575309   1.1588892  -0.0358201), wk =   0.0047407
        k(  242) = (   0.3862964   1.2876547  -0.0358201), wk =   0.0047407
        k(  243) = (  -1.4164202  -0.5150619  -0.0358201), wk =   0.0023704
        k(  244) = (   0.0000000   0.7725928   0.0000000), wk =   0.0011852
        k(  245) = (   0.1287655   0.9013583   0.0000000), wk =   0.0023704
        k(  246) = (   0.2575309   1.0301238   0.0000000), wk =   0.0023704
        k(  247) = (   0.3862964   1.1588892   0.0000000), wk =   0.0023704
        k(  248) = (   0.5150619   1.2876547   0.0000000), wk =   0.0023704
        k(  249) = (  -0.0000000  -0.0000000   0.2865605), wk =   0.0005926
        k(  250) = (  -0.0000000  -0.1287655   0.3223805), wk =   0.0023704
        k(  251) = (  -0.0000000  -0.2575309   0.3582006), wk =   0.0023704
        k(  252) = (   0.1287655  -0.1287655   0.3582006), wk =   0.0023704
        k(  253) = (   0.0000000  -0.3862964   0.3940206), wk =   0.0023704
        k(  254) = (   0.1287655  -0.2575309   0.3940206), wk =   0.0047407
        k(  255) = (  -0.0000000   1.4164202  -0.1074602), wk =   0.0023704
        k(  256) = (  -1.8027166  -0.3862964  -0.1074602), wk =   0.0047407
        k(  257) = (  -1.6739511  -0.2575309  -0.1074602), wk =   0.0023704
        k(  258) = (   0.0000000   1.2876547  -0.0716401), wk =   0.0023704
        k(  259) = (   0.1287655   1.4164202  -0.0716401), wk =   0.0047407
        k(  260) = (  -1.6739511  -0.3862964  -0.0716401), wk =   0.0047407
        k(  261) = (  -0.0000000   1.1588892  -0.0358201), wk =   0.0023704
        k(  262) = (   0.1287655   1.2876547  -0.0358201), wk =   0.0047407
        k(  263) = (   0.2575309   1.4164202  -0.0358201), wk =   0.0047407
        k(  264) = (  -1.5451856  -0.3862964  -0.0358201), wk =   0.0023704
        k(  265) = (  -0.0000000   1.0301238  -0.0000000), wk =   0.0011852
        k(  266) = (   0.1287655   1.1588892  -0.0000000), wk =   0.0023704
        k(  267) = (   0.2575309   1.2876547  -0.0000000), wk =   0.0023704
        k(  268) = (   0.3862964   1.4164202  -0.0000000), wk =   0.0023704
        k(  269) = (  -0.0000000  -0.0000000   0.3582006), wk =   0.0005926
        k(  270) = (  -0.0000000  -0.1287655   0.3940206), wk =   0.0023704
        k(  271) = (   0.0000000  -0.2575309   0.4298407), wk =   0.0023704
        k(  272) = (   0.1287655  -0.1287655   0.4298407), wk =   0.0023704
        k(  273) = (  -0.0000000   1.5451856  -0.0716401), wk =   0.0023704
        k(  274) = (  -1.8027166  -0.2575309  -0.0716401), wk =   0.0047407
        k(  275) = (   0.0000000   1.4164202  -0.0358201), wk =   0.0023704
        k(  276) = (   0.1287655   1.5451856  -0.0358201), wk =   0.0047407
        k(  277) = (  -1.6739511  -0.2575309  -0.0358201), wk =   0.0023704
        k(  278) = (  -0.0000000   1.2876547  -0.0000000), wk =   0.0011852
        k(  279) = (   0.1287655   1.4164202  -0.0000000), wk =   0.0023704
        k(  280) = (   0.2575309   1.5451856  -0.0000000), wk =   0.0023704
        k(  281) = (  -0.0000000  -0.0000000   0.4298407), wk =   0.0005926
        k(  282) = (   0.0000000  -0.1287655   0.4656608), wk =   0.0023704
        k(  283) = (  -0.0000000   1.6739511  -0.0358201), wk =   0.0023704
        k(  284) = (  -1.8027166  -0.1287655  -0.0358201), wk =   0.0023704
        k(  285) = (   0.0000000   1.5451856  -0.0000000), wk =   0.0011852
        k(  286) = (   0.1287655   1.6739511  -0.0000000), wk =   0.0023704
        k(  287) = (   0.0000000   0.0000000   0.5014808), wk =   0.0005926
        k(  288) = (  -0.0000000   1.8027166   0.0000000), wk =   0.0011852

                       cryst. coord.
        k(    1) = (   0.0000000   0.0000000   0.0000000), wk =   0.0002963
        k(    2) = (   0.0000000  -0.0000000   0.0666667), wk =   0.0011852
        k(    3) = (   0.0000000  -0.0000000   0.1333333), wk =   0.0011852
        k(    4) = (   0.0000000  -0.0000000   0.2000000), wk =   0.0011852
        k(    5) = (   0.0000000  -0.0000000   0.2666667), wk =   0.0011852
        k(    6) = (  -0.0000000   0.0000000   0.3333333), wk =   0.0011852
        k(    7) = (   0.0000000  -0.0000000   0.4000000), wk =   0.0011852
        k(    8) = (   0.0000000   0.0000000   0.4666667), wk =   0.0011852
        k(    9) = (   0.0000000   0.0666667  -0.0000000), wk =   0.0023704
        k(   10) = (   0.0000000   0.0666667   0.0666667), wk =   0.0047407
        k(   11) = (  -0.0000000   0.0666667   0.1333333), wk =   0.0047407
        k(   12) = (   0.0000000   0.0666667   0.2000000), wk =   0.0047407
        k(   13) = (  -0.0000000   0.0666667   0.2666667), wk =   0.0047407
        k(   14) = (   0.0000000   0.0666667   0.3333333), wk =   0.0047407
        k(   15) = (  -0.0000000   0.0666667   0.4000000), wk =   0.0047407
        k(   16) = (   0.0000000   0.0666667   0.4666667), wk =   0.0023704
        k(   17) = (   0.0000000   0.1333333  -0.0000000), wk =   0.0023704
        k(   18) = (   0.0000000   0.1333333   0.0666667), wk =   0.0047407
        k(   19) = (   0.0000000   0.1333333   0.1333333), wk =   0.0047407
        k(   20) = (  -0.0000000   0.1333333   0.2000000), wk =   0.0047407
        k(   21) = (  -0.0000000   0.1333333   0.2666667), wk =   0.0047407
        k(   22) = (   0.0000000   0.1333333   0.3333333), wk =   0.0047407
        k(   23) = (   0.0000000   0.1333333   0.4000000), wk =   0.0047407
        k(   24) = (   0.0000000   0.1333333  -0.0666667), wk =   0.0023704
        k(   25) = (   0.0000000   0.2000000  -0.0000000), wk =   0.0023704
        k(   26) = (   0.0000000   0.2000000   0.0666667), wk =   0.0047407
        k(   27) = (  -0.0000000   0.2000000   0.1333333), wk =   0.0047407
        k(   28) = (   0.0000000   0.2000000   0.2000000), wk =   0.0047407
        k(   29) = (  -0.0000000   0.2000000   0.2666667), wk =   0.0047407
        k(   30) = (   0.0000000   0.2000000   0.3333333), wk =   0.0047407
        k(   31) = (  -0.0000000   0.2000000   0.4000000), wk =   0.0023704
        k(   32) = (   0.0000000   0.2000000  -0.1333333), wk =   0.0047407
        k(   33) = (   0.0000000   0.2666667  -0.0000000), wk =   0.0023704
        k(   34) = (  -0.0000000   0.2666667   0.0666667), wk =   0.0047407
        k(   35) = (   0.0000000   0.2666667   0.1333333), wk =   0.0047407
        k(   36) = (  -0.0000000   0.2666667   0.2000000), wk =   0.0047407
        k(   37) = (   0.0000000   0.2666667   0.2666667), wk =   0.0047407
        k(   38) = (   0.0000000   0.2666667   0.3333333), wk =   0.0047407
        k(   39) = (   0.0000000   0.2666667  -0.2000000), wk =   0.0047407
        k(   40) = (   0.0000000   0.2666667  -0.1333333), wk =   0.0023704
        k(   41) = (  -0.0000000   0.3333333   0.0000000), wk =   0.0023704
        k(   42) = (  -0.0000000   0.3333333   0.0666667), wk =   0.0047407
        k(   43) = (  -0.0000000   0.3333333   0.1333333), wk =   0.0047407
        k(   44) = (   0.0000000   0.3333333   0.2000000), wk =   0.0047407
        k(   45) = (  -0.0000000   0.3333333   0.2666667), wk =   0.0047407
        k(   46) = (  -0.0000000   0.3333333   0.3333333), wk =   0.0023704
        k(   47) = (  -0.0000000   0.3333333  -0.2666667), wk =   0.0047407
        k(   48) = (  -0.0000000   0.3333333  -0.2000000), wk =   0.0047407
        k(   49) = (   0.0000000   0.4000000  -0.0000000), wk =   0.0023704
        k(   50) = (  -0.0000000   0.4000000   0.0666667), wk =   0.0047407
        k(   51) = (   0.0000000   0.4000000   0.1333333), wk =   0.0047407
        k(   52) = (  -0.0000000   0.4000000   0.2000000), wk =   0.0047407
        k(   53) = (  -0.0000000   0.4000000   0.2666667), wk =   0.0047407
        k(   54) = (  -0.0000000   0.4000000  -0.3333333), wk =   0.0047407
        k(   55) = (   0.0000000   0.4000000  -0.2666667), wk =   0.0047407
        k(   56) = (   0.0000000   0.4000000  -0.2000000), wk =   0.0023704
        k(   57) = (   0.0000000   0.4666667  -0.0000000), wk =   0.0023704
        k(   58) = (   0.0000000   0.4666667   0.0666667), wk =   0.0047407
        k(   59) = (   0.0000000   0.4666667   0.1333333), wk =   0.0047407
        k(   60) = (   0.0000000   0.4666667   0.2000000), wk =   0.0047407
        k(   61) = (  -0.0000000   0.4666667   0.2666667), wk =   0.0023704
        k(   62) = (   0.0000000   0.4666667  -0.4000000), wk =   0.0047407
        k(   63) = (   0.0000000   0.4666667  -0.3333333), wk =   0.0047407
        k(   64) = (   0.0000000   0.4666667  -0.2666667), wk =   0.0047407
        k(   65) = (   0.0666667   0.0666667   0.0666667), wk =   0.0023704
        k(   66) = (   0.0666667   0.0666667   0.1333333), wk =   0.0023704
        k(   67) = (   0.0666667   0.0666667   0.2000000), wk =   0.0023704
        k(   68) = (   0.0666667   0.0666667   0.2666667), wk =   0.0023704
        k(   69) = (   0.0666667   0.0666667   0.3333333), wk =   0.0023704
        k(   70) = (   0.0666667   0.0666667   0.4000000), wk =   0.0023704
        k(   71) = (   0.0666667   0.0666667  -0.0666667), wk =   0.0005926
        k(   72) = (   0.0666667   0.1333333   0.0666667), wk =   0.0047407
        k(   73) = (   0.0666667   0.1333333   0.1333333), wk =   0.0047407
        k(   74) = (   0.0666667   0.1333333   0.2000000), wk =   0.0047407
        k(   75) = (   0.0666667   0.1333333   0.2666667), wk =   0.0047407
        k(   76) = (   0.0666667   0.1333333   0.3333333), wk =   0.0047407
        k(   77) = (   0.0666667   0.1333333   0.4000000), wk =   0.0023704
        k(   78) = (   0.0666667   0.1333333  -0.1333333), wk =   0.0023704
        k(   79) = (   0.0666667   0.2000000   0.0666667), wk =   0.0047407
        k(   80) = (   0.0666667   0.2000000   0.1333333), wk =   0.0047407
        k(   81) = (   0.0666667   0.2000000   0.2000000), wk =   0.0047407
        k(   82) = (   0.0666667   0.2000000   0.2666667), wk =   0.0047407
        k(   83) = (   0.0666667   0.2000000   0.3333333), wk =   0.0047407
        k(   84) = (   0.0666667   0.2000000  -0.2000000), wk =   0.0023704
        k(   85) = (   0.0666667   0.2000000  -0.1333333), wk =   0.0023704
        k(   86) = (   0.0666667   0.2666667   0.0666667), wk =   0.0047407
        k(   87) = (   0.0666667   0.2666667   0.1333333), wk =   0.0047407
        k(   88) = (   0.0666667   0.2666667   0.2000000), wk =   0.0047407
        k(   89) = (   0.0666667   0.2666667   0.2666667), wk =   0.0047407
        k(   90) = (   0.0666667   0.2666667   0.3333333), wk =   0.0023704
        k(   91) = (   0.0666667   0.2666667  -0.2666667), wk =   0.0023704
        k(   92) = (   0.0666667   0.2666667  -0.2000000), wk =   0.0047407
        k(   93) = (   0.0666667   0.3333333   0.0666667), wk =   0.0047407
        k(   94) = (   0.0666667   0.3333333   0.1333333), wk =   0.0047407
        k(   95) = (   0.0666667   0.3333333   0.2000000), wk =   0.0047407
        k(   96) = (   0.0666667   0.3333333   0.2666667), wk =   0.0047407
        k(   97) = (   0.0666667   0.3333333  -0.3333333), wk =   0.0023704
        k(   98) = (   0.0666667   0.3333333  -0.2666667), wk =   0.0047407
        k(   99) = (   0.0666667   0.3333333  -0.2000000), wk =   0.0023704
        k(  100) = (   0.0666667   0.4000000   0.0666667), wk =   0.0047407
        k(  101) = (   0.0666667   0.4000000   0.1333333), wk =   0.0047407
        k(  102) = (   0.0666667   0.4000000   0.2000000), wk =   0.0047407
        k(  103) = (   0.0666667   0.4000000   0.2666667), wk =   0.0023704
        k(  104) = (   0.0666667   0.4000000  -0.4000000), wk =   0.0023704
        k(  105) = (   0.0666667   0.4000000  -0.3333333), wk =   0.0047407
        k(  106) = (   0.0666667   0.4000000  -0.2666667), wk =   0.0047407
        k(  107) = (   0.0666667   0.4666667   0.1333333), wk =   0.0047407
        k(  108) = (   0.0666667   0.4666667   0.2000000), wk =   0.0047407
        k(  109) = (   0.0666667   0.4666667  -0.4666667), wk =   0.0023704
        k(  110) = (   0.0666667   0.4666667  -0.4000000), wk =   0.0047407
        k(  111) = (   0.0666667   0.4666667  -0.3333333), wk =   0.0047407
        k(  112) = (   0.0666667   0.4666667  -0.2666667), wk =   0.0023704
        k(  113) = (   0.0666667  -0.4666667   0.1333333), wk =   0.0047407
        k(  114) = (   0.0666667  -0.4666667   0.2000000), wk =   0.0023704
        k(  115) = (   0.0666667  -0.4666667   0.4666667), wk =   0.0023704
        k(  116) = (   0.0666667  -0.4666667  -0.4666667), wk =   0.0047407
        k(  117) = (   0.0666667  -0.4666667  -0.4000000), wk =   0.0047407
        k(  118) = (   0.0666667  -0.4666667  -0.3333333), wk =   0.0047407
        k(  119) = (   0.0666667  -0.4000000   0.1333333), wk =   0.0047407
        k(  120) = (   0.0666667  -0.4000000   0.4000000), wk =   0.0023704
        k(  121) = (   0.0666667  -0.4000000   0.4666667), wk =   0.0047407
        k(  122) = (   0.0666667  -0.4000000  -0.4666667), wk =   0.0047407
        k(  123) = (   0.0666667  -0.4000000  -0.4000000), wk =   0.0047407
        k(  124) = (   0.0666667  -0.4000000  -0.3333333), wk =   0.0023704
        k(  125) = (   0.0666667  -0.3333333   0.1333333), wk =   0.0023704
        k(  126) = (   0.0666667  -0.3333333   0.3333333), wk =   0.0023704
        k(  127) = (   0.0666667  -0.3333333   0.4000000), wk =   0.0047407
        k(  128) = (   0.0666667  -0.3333333   0.4666667), wk =   0.0047407
        k(  129) = (   0.0666667  -0.3333333  -0.4666667), wk =   0.0047407
        k(  130) = (   0.0666667  -0.3333333  -0.4000000), wk =   0.0047407
        k(  131) = (   0.0666667  -0.2666667   0.2666667), wk =   0.0023704
        k(  132) = (   0.0666667  -0.2666667   0.3333333), wk =   0.0047407
        k(  133) = (   0.0666667  -0.2666667   0.4000000), wk =   0.0047407
        k(  134) = (   0.0666667  -0.2666667   0.4666667), wk =   0.0047407
        k(  135) = (   0.0666667  -0.2666667  -0.4666667), wk =   0.0047407
        k(  136) = (   0.0666667  -0.2666667  -0.4000000), wk =   0.0023704
        k(  137) = (   0.0666667  -0.2000000   0.2000000), wk =   0.0023704
        k(  138) = (   0.0666667  -0.2000000   0.2666667), wk =   0.0047407
        k(  139) = (   0.0666667  -0.2000000   0.3333333), wk =   0.0047407
        k(  140) = (   0.0666667  -0.2000000   0.4000000), wk =   0.0047407
        k(  141) = (   0.0666667  -0.2000000   0.4666667), wk =   0.0047407
        k(  142) = (   0.0666667  -0.2000000  -0.4666667), wk =   0.0047407
        k(  143) = (   0.0666667  -0.1333333   0.1333333), wk =   0.0023704
        k(  144) = (   0.0666667  -0.1333333   0.2000000), wk =   0.0047407
        k(  145) = (   0.0666667  -0.1333333   0.2666667), wk =   0.0047407
        k(  146) = (   0.0666667  -0.1333333   0.3333333), wk =   0.0047407
        k(  147) = (   0.0666667  -0.1333333   0.4000000), wk =   0.0047407
        k(  148) = (   0.0666667  -0.1333333   0.4666667), wk =   0.0047407
        k(  149) = (   0.0666667  -0.1333333  -0.4666667), wk =   0.0023704
        k(  150) = (   0.0666667  -0.0666667   0.0666667), wk =   0.0011852
        k(  151) = (   0.0666667  -0.0666667   0.1333333), wk =   0.0023704
        k(  152) = (   0.0666667  -0.0666667   0.2000000), wk =   0.0023704
        k(  153) = (   0.0666667  -0.0666667   0.2666667), wk =   0.0023704
        k(  154) = (   0.0666667  -0.0666667   0.3333333), wk =   0.0023704
        k(  155) = (   0.0666667  -0.0666667   0.4000000), wk =   0.0023704
        k(  156) = (   0.0666667  -0.0666667   0.4666667), wk =   0.0023704
        k(  157) = (   0.1333333   0.1333333   0.1333333), wk =   0.0023704
        k(  158) = (   0.1333333   0.1333333   0.2000000), wk =   0.0023704
        k(  159) = (   0.1333333   0.1333333   0.2666667), wk =   0.0023704
        k(  160) = (   0.1333333   0.1333333   0.3333333), wk =   0.0023704
        k(  161) = (   0.1333333   0.1333333  -0.1333333), wk =   0.0005926
        k(  162) = (   0.1333333   0.2000000   0.1333333), wk =   0.0047407
        k(  163) = (   0.1333333   0.2000000   0.2000000), wk =   0.0047407
        k(  164) = (   0.1333333   0.2000000   0.2666667), wk =   0.0047407
        k(  165) = (   0.1333333   0.2000000   0.3333333), wk =   0.0023704
        k(  166) = (   0.1333333   0.2000000  -0.2000000), wk =   0.0023704
        k(  167) = (   0.1333333   0.2666667   0.1333333), wk =   0.0047407
        k(  168) = (   0.1333333   0.2666667   0.2000000), wk =   0.0047407
        k(  169) = (   0.1333333   0.2666667   0.2666667), wk =   0.0047407
        k(  170) = (   0.1333333   0.2666667  -0.2666667), wk =   0.0023704
        k(  171) = (   0.1333333   0.2666667  -0.2000000), wk =   0.0023704
        k(  172) = (   0.1333333   0.3333333   0.1333333), wk =   0.0047407
        k(  173) = (   0.1333333   0.3333333   0.2000000), wk =   0.0047407
        k(  174) = (   0.1333333   0.3333333   0.2666667), wk =   0.0023704
        k(  175) = (   0.1333333   0.3333333  -0.3333333), wk =   0.0023704
        k(  176) = (   0.1333333   0.3333333  -0.2666667), wk =   0.0047407
        k(  177) = (   0.1333333   0.4000000   0.2000000), wk =   0.0047407
        k(  178) = (   0.1333333   0.4000000  -0.4000000), wk =   0.0023704
        k(  179) = (   0.1333333   0.4000000  -0.3333333), wk =   0.0047407
        k(  180) = (   0.1333333   0.4000000  -0.2666667), wk =   0.0023704
        k(  181) = (   0.1333333   0.4666667   0.2000000), wk =   0.0023704
        k(  182) = (   0.1333333   0.4666667  -0.4666667), wk =   0.0023704
        k(  183) = (   0.1333333   0.4666667  -0.4000000), wk =   0.0047407
        k(  184) = (   0.1333333   0.4666667  -0.3333333), wk =   0.0047407
        k(  185) = (   0.1333333  -0.4666667   0.4666667), wk =   0.0023704
        k(  186) = (   0.1333333  -0.4666667  -0.4666667), wk =   0.0047407
        k(  187) = (   0.1333333  -0.4666667  -0.4000000), wk =   0.0047407
        k(  188) = (   0.1333333  -0.4666667  -0.3333333), wk =   0.0023704
        k(  189) = (   0.1333333  -0.4000000   0.4000000), wk =   0.0023704
        k(  190) = (   0.1333333  -0.4000000   0.4666667), wk =   0.0047407
        k(  191) = (   0.1333333  -0.4000000  -0.4666667), wk =   0.0047407
        k(  192) = (   0.1333333  -0.4000000  -0.4000000), wk =   0.0047407
        k(  193) = (   0.1333333  -0.3333333   0.3333333), wk =   0.0023704
        k(  194) = (   0.1333333  -0.3333333   0.4000000), wk =   0.0047407
        k(  195) = (   0.1333333  -0.3333333   0.4666667), wk =   0.0047407
        k(  196) = (   0.1333333  -0.3333333  -0.4666667), wk =   0.0047407
        k(  197) = (   0.1333333  -0.3333333  -0.4000000), wk =   0.0023704
        k(  198) = (   0.1333333  -0.2666667   0.2666667), wk =   0.0023704
        k(  199) = (   0.1333333  -0.2666667   0.3333333), wk =   0.0047407
        k(  200) = (   0.1333333  -0.2666667   0.4000000), wk =   0.0047407
        k(  201) = (   0.1333333  -0.2666667   0.4666667), wk =   0.0047407
        k(  202) = (   0.1333333  -0.2666667  -0.4666667), wk =   0.0047407
        k(  203) = (   0.1333333  -0.2000000   0.2000000), wk =   0.0023704
        k(  204) = (   0.1333333  -0.2000000   0.2666667), wk =   0.0047407
        k(  205) = (   0.1333333  -0.2000000   0.3333333), wk =   0.0047407
        k(  206) = (   0.1333333  -0.2000000   0.4000000), wk =   0.0047407
        k(  207) = (   0.1333333  -0.2000000   0.4666667), wk =   0.0047407
        k(  208) = (   0.1333333  -0.2000000  -0.4666667), wk =   0.0023704
        k(  209) = (   0.1333333  -0.1333333   0.1333333), wk =   0.0011852
        k(  210) = (   0.1333333  -0.1333333   0.2000000), wk =   0.0023704
        k(  211) = (   0.1333333  -0.1333333   0.2666667), wk =   0.0023704
        k(  212) = (   0.1333333  -0.1333333   0.3333333), wk =   0.0023704
        k(  213) = (   0.1333333  -0.1333333   0.4000000), wk =   0.0023704
        k(  214) = (   0.1333333  -0.1333333   0.4666667), wk =   0.0023704
        k(  215) = (   0.2000000   0.2000000   0.2000000), wk =   0.0023704
        k(  216) = (   0.2000000   0.2000000   0.2666667), wk =   0.0023704
        k(  217) = (   0.2000000   0.2000000  -0.2000000), wk =   0.0005926
        k(  218) = (   0.2000000   0.2666667   0.2000000), wk =   0.0047407
        k(  219) = (   0.2000000   0.2666667   0.2666667), wk =   0.0023704
        k(  220) = (   0.2000000   0.2666667  -0.2666667), wk =   0.0023704
        k(  221) = (   0.2000000   0.3333333  -0.3333333), wk =   0.0023704
        k(  222) = (   0.2000000   0.3333333  -0.2666667), wk =   0.0023704
        k(  223) = (   0.2000000   0.4000000  -0.4000000), wk =   0.0023704
        k(  224) = (   0.2000000   0.4000000  -0.3333333), wk =   0.0047407
        k(  225) = (   0.2000000   0.4666667  -0.4666667), wk =   0.0023704
        k(  226) = (   0.2000000   0.4666667  -0.4000000), wk =   0.0047407
        k(  227) = (   0.2000000   0.4666667  -0.3333333), wk =   0.0023704
        k(  228) = (   0.2000000  -0.4666667   0.4666667), wk =   0.0023704
        k(  229) = (   0.2000000  -0.4666667  -0.4666667), wk =   0.0047407
        k(  230) = (   0.2000000  -0.4666667  -0.4000000), wk =   0.0047407
        k(  231) = (   0.2000000  -0.4000000   0.4000000), wk =   0.0023704
        k(  232) = (   0.2000000  -0.4000000   0.4666667), wk =   0.0047407
        k(  233) = (   0.2000000  -0.4000000  -0.4666667), wk =   0.0047407
        k(  234) = (   0.2000000  -0.4000000  -0.4000000), wk =   0.0023704
        k(  235) = (   0.2000000  -0.3333333   0.3333333), wk =   0.0023704
        k(  236) = (   0.2000000  -0.3333333   0.4000000), wk =   0.0047407
        k(  237) = (   0.2000000  -0.3333333   0.4666667), wk =   0.0047407
        k(  238) = (   0.2000000  -0.3333333  -0.4666667), wk =   0.0047407
        k(  239) = (   0.2000000  -0.2666667   0.2666667), wk =   0.0023704
        k(  240) = (   0.2000000  -0.2666667   0.3333333), wk =   0.0047407
        k(  241) = (   0.2000000  -0.2666667   0.4000000), wk =   0.0047407
        k(  242) = (   0.2000000  -0.2666667   0.4666667), wk =   0.0047407
        k(  243) = (   0.2000000  -0.2666667  -0.4666667), wk =   0.0023704
        k(  244) = (   0.2000000  -0.2000000   0.2000000), wk =   0.0011852
        k(  245) = (   0.2000000  -0.2000000   0.2666667), wk =   0.0023704
        k(  246) = (   0.2000000  -0.2000000   0.3333333), wk =   0.0023704
        k(  247) = (   0.2000000  -0.2000000   0.4000000), wk =   0.0023704
        k(  248) = (   0.2000000  -0.2000000   0.4666667), wk =   0.0023704
        k(  249) = (   0.2666667   0.2666667  -0.2666667), wk =   0.0005926
        k(  250) = (   0.2666667   0.3333333  -0.3333333), wk =   0.0023704
        k(  251) = (   0.2666667   0.4000000  -0.4000000), wk =   0.0023704
        k(  252) = (   0.2666667   0.4000000  -0.3333333), wk =   0.0023704
        k(  253) = (   0.2666667   0.4666667  -0.4666667), wk =   0.0023704
        k(  254) = (   0.2666667   0.4666667  -0.4000000), wk =   0.0047407
        k(  255) = (   0.2666667  -0.4666667   0.4666667), wk =   0.0023704
        k(  256) = (   0.2666667  -0.4666667  -0.4666667), wk =   0.0047407
        k(  257) = (   0.2666667  -0.4666667  -0.4000000), wk =   0.0023704
        k(  258) = (   0.2666667  -0.4000000   0.4000000), wk =   0.0023704
        k(  259) = (   0.2666667  -0.4000000   0.4666667), wk =   0.0047407
        k(  260) = (   0.2666667  -0.4000000  -0.4666667), wk =   0.0047407
        k(  261) = (   0.2666667  -0.3333333   0.3333333), wk =   0.0023704
        k(  262) = (   0.2666667  -0.3333333   0.4000000), wk =   0.0047407
        k(  263) = (   0.2666667  -0.3333333   0.4666667), wk =   0.0047407
        k(  264) = (   0.2666667  -0.3333333  -0.4666667), wk =   0.0023704
        k(  265) = (   0.2666667  -0.2666667   0.2666667), wk =   0.0011852
        k(  266) = (   0.2666667  -0.2666667   0.3333333), wk =   0.0023704
        k(  267) = (   0.2666667  -0.2666667   0.4000000), wk =   0.0023704
        k(  268) = (   0.2666667  -0.2666667   0.4666667), wk =   0.0023704
        k(  269) = (   0.3333333   0.3333333  -0.3333333), wk =   0.0005926
        k(  270) = (   0.3333333   0.4000000  -0.4000000), wk =   0.0023704
        k(  271) = (   0.3333333   0.4666667  -0.4666667), wk =   0.0023704
        k(  272) = (   0.3333333   0.4666667  -0.4000000), wk =   0.0023704
        k(  273) = (   0.3333333  -0.4666667   0.4666667), wk =   0.0023704
        k(  274) = (   0.3333333  -0.4666667  -0.4666667), wk =   0.0047407
        k(  275) = (   0.3333333  -0.4000000   0.4000000), wk =   0.0023704
        k(  276) = (   0.3333333  -0.4000000   0.4666667), wk =   0.0047407
        k(  277) = (   0.3333333  -0.4000000  -0.4666667), wk =   0.0023704
        k(  278) = (   0.3333333  -0.3333333   0.3333333), wk =   0.0011852
        k(  279) = (   0.3333333  -0.3333333   0.4000000), wk =   0.0023704
        k(  280) = (   0.3333333  -0.3333333   0.4666667), wk =   0.0023704
        k(  281) = (   0.4000000   0.4000000  -0.4000000), wk =   0.0005926
        k(  282) = (   0.4000000   0.4666667  -0.4666667), wk =   0.0023704
        k(  283) = (   0.4000000  -0.4666667   0.4666667), wk =   0.0023704
        k(  284) = (   0.4000000  -0.4666667  -0.4666667), wk =   0.0023704
        k(  285) = (   0.4000000  -0.4000000   0.4000000), wk =   0.0011852
        k(  286) = (   0.4000000  -0.4000000   0.4666667), wk =   0.0023704
        k(  287) = (   0.4666667   0.4666667  -0.4666667), wk =   0.0005926
        k(  288) = (   0.4666667  -0.4666667   0.4666667), wk =   0.0011852

     Dense  grid:    57183 G-vectors     FFT dimensions: (  75,  75,  75)

     Smooth grid:    43409 G-vectors     FFT dimensions: (  72,  72,  72)

     Dynamical RAM for                 wfc:       1.99 MB

     Dynamical RAM for     wfc (w. buffer):    1149.91 MB

     Dynamical RAM for           str. fact:       1.75 MB

     Dynamical RAM for           local pot:       0.00 MB

     Dynamical RAM for          nlocal pot:       5.81 MB

     Dynamical RAM for                qrad:       5.97 MB

     Dynamical RAM for          rho,v,vnew:      24.55 MB

     Dynamical RAM for               rhoin:       8.18 MB

     Dynamical RAM for            rho*nmix:      27.92 MB

     Dynamical RAM for           G-vectors:       3.60 MB

     Dynamical RAM for          h,s,v(r/c):       0.11 MB

     Dynamical RAM for          <psi|beta>:       0.03 MB

     Dynamical RAM for                 psi:       3.99 MB

     Dynamical RAM for                hpsi:       3.99 MB

     Dynamical RAM for                spsi:       3.99 MB

     Dynamical RAM for      wfcinit/wfcrot:       4.00 MB

     Dynamical RAM for           addusdens:     191.96 MB

     Dynamical RAM for          addusforce:     193.72 MB

     Dynamical RAM for         addusstress:     214.21 MB

     Estimated static dynamical RAM per process >       1.19 GB

     Estimated max dynamical RAM per process >       1.43 GB

     Atomic positions and unit cell read from directory:
     ./out/aiida.save/
 
     Generating pointlists ...
     new r_m :   0.1914 (alat units)  2.9483 (a.u.) for type    1
     new r_m :   0.1914 (alat units)  2.9483 (a.u.) for type    2

     The initial density is read from file :
     ./out/aiida.save/charge-density


     negative rho (up, down):  7.308E-01 0.000E+00
     Starting wfcs from file
     Checking if some PAW data can be deallocated... 

     total cpu time spent up to now is        4.4 secs

     per-process dynamical memory:   439.7 Mb

     Self-consistent Calculation
[tb_dev] Currently allocated     2.29E-05 Mbytes, locked:    0 /   2
[tb_pin] Currently allocated     0.00E+00 Mbytes, locked:    0 /   0

     iteration #  1     ecut=    50.00 Ry     beta= 0.10
     Davidson diagonalization with overlap

---- Real-time Memory Report at c_bands before calling an iterative solver
           723 MiB given to the printing process from OS
           436 MiB allocation reported by mallinfo(arena+hblkhd)
         58847 MiB available memory on the node where the printing process lives
     GPU memory used/free/total (MiB): 756 / 15524 / 16280
------------------
     ethr =  1.00E-05,  avg # of iterations =  3.5

     negative rho (up, down):  7.742E-01 0.000E+00

     total cpu time spent up to now is       26.8 secs

     total energy              =   -1169.68724824 Ry
     estimated scf accuracy    <       0.20695858 Ry

     total magnetization       =    -0.01 Bohr mag/cell
     absolute magnetization    =     3.08 Bohr mag/cell
[tb_dev] Currently allocated     1.04E+01 Mbytes, locked:    0 /  13
[tb_pin] Currently allocated     0.00E+00 Mbytes, locked:    0 /   0

     iteration #  2     ecut=    50.00 Ry     beta= 0.10
     Davidson diagonalization with overlap

---- Real-time Memory Report at c_bands before calling an iterative solver
          2388 MiB given to the printing process from OS
          1929 MiB allocation reported by mallinfo(arena+hblkhd)
         55650 MiB available memory on the node where the printing process lives
     GPU memory used/free/total (MiB): 1744 / 14536 / 16280
------------------
     ethr =  5.17E-04,  avg # of iterations =  1.0

     negative rho (up, down):  6.388E-01 0.000E+00

     total cpu time spent up to now is       41.7 secs

     total energy              =   -1169.62110340 Ry
     estimated scf accuracy    <       0.29810740 Ry

     total magnetization       =    -0.01 Bohr mag/cell
     absolute magnetization    =     3.43 Bohr mag/cell
[tb_dev] Currently allocated     1.04E+01 Mbytes, locked:    0 /  13
[tb_pin] Currently allocated     0.00E+00 Mbytes, locked:    0 /   0

     iteration #  3     ecut=    50.00 Ry     beta= 0.10
     Davidson diagonalization with overlap

---- Real-time Memory Report at c_bands before calling an iterative solver
          2531 MiB given to the printing process from OS
          1937 MiB allocation reported by mallinfo(arena+hblkhd)
         55643 MiB available memory on the node where the printing process lives
     GPU memory used/free/total (MiB): 1744 / 14536 / 16280
------------------
     ethr =  5.17E-04,  avg # of iterations =  3.5

     negative rho (up, down):  7.222E-01 0.000E+00

     total cpu time spent up to now is       62.4 secs

     total energy              =   -1169.63917837 Ry
     estimated scf accuracy    <       7.70256178 Ry

     total magnetization       =    -0.00 Bohr mag/cell
     absolute magnetization    =     3.90 Bohr mag/cell
[tb_dev] Currently allocated     1.04E+01 Mbytes, locked:    0 /  13
[tb_pin] Currently allocated     0.00E+00 Mbytes, locked:    0 /   0

     iteration #  4     ecut=    50.00 Ry     beta= 0.10
     Davidson diagonalization with overlap

---- Real-time Memory Report at c_bands before calling an iterative solver
          2657 MiB given to the printing process from OS
          1945 MiB allocation reported by mallinfo(arena+hblkhd)
         55623 MiB available memory on the node where the printing process lives
     GPU memory used/free/total (MiB): 1744 / 14536 / 16280
------------------
     ethr =  5.17E-04,  avg # of iterations =  3.1

     negative rho (up, down):  7.216E-01 0.000E+00

     total cpu time spent up to now is       81.8 secs

     total energy              =   -1169.69516247 Ry
     estimated scf accuracy    <       0.86935547 Ry

     total magnetization       =    -0.02 Bohr mag/cell
     absolute magnetization    =     0.37 Bohr mag/cell
[tb_dev] Currently allocated     1.04E+01 Mbytes, locked:    0 /  13
[tb_pin] Currently allocated     0.00E+00 Mbytes, locked:    0 /   0

     iteration #  5     ecut=    50.00 Ry     beta= 0.10
     Davidson diagonalization with overlap

---- Real-time Memory Report at c_bands before calling an iterative solver
          2706 MiB given to the printing process from OS
          1953 MiB allocation reported by mallinfo(arena+hblkhd)
         55623 MiB available memory on the node where the printing process lives
     GPU memory used/free/total (MiB): 1744 / 14536 / 16280
------------------
     ethr =  5.17E-04,  avg # of iterations =  1.0

     negative rho (up, down):  7.696E-01 0.000E+00

     total cpu time spent up to now is       97.1 secs

     total energy              =   -1169.65065220 Ry
     estimated scf accuracy    <       0.87675995 Ry

     total magnetization       =    -0.02 Bohr mag/cell
     absolute magnetization    =     0.38 Bohr mag/cell
[tb_dev] Currently allocated     1.04E+01 Mbytes, locked:    0 /  13
[tb_pin] Currently allocated     0.00E+00 Mbytes, locked:    0 /   0

     iteration #  6     ecut=    50.00 Ry     beta= 0.10
     Davidson diagonalization with overlap

---- Real-time Memory Report at c_bands before calling an iterative solver
          2757 MiB given to the printing process from OS
          1961 MiB allocation reported by mallinfo(arena+hblkhd)
         55619 MiB available memory on the node where the printing process lives
     GPU memory used/free/total (MiB): 1744 / 14536 / 16280
------------------
     ethr =  5.17E-04,  avg # of iterations =  3.0

     negative rho (up, down):  8.309E-01 0.000E+00

     total cpu time spent up to now is      116.0 secs

     total energy              =   -1169.72796356 Ry
     estimated scf accuracy    <       0.40559376 Ry

     total magnetization       =    -0.01 Bohr mag/cell
     absolute magnetization    =     3.58 Bohr mag/cell
[tb_dev] Currently allocated     1.04E+01 Mbytes, locked:    0 /  13
[tb_pin] Currently allocated     0.00E+00 Mbytes, locked:    0 /   0

     iteration #  7     ecut=    50.00 Ry     beta= 0.10
     Davidson diagonalization with overlap

---- Real-time Memory Report at c_bands before calling an iterative solver
          2806 MiB given to the printing process from OS
          1968 MiB allocation reported by mallinfo(arena+hblkhd)
         55613 MiB available memory on the node where the printing process lives
     GPU memory used/free/total (MiB): 1744 / 14536 / 16280
------------------
     ethr =  5.17E-04,  avg # of iterations =  3.5

     negative rho (up, down):  8.334E-01 0.000E+00

     total cpu time spent up to now is      135.5 secs

     total energy              =   -1169.83104369 Ry
     estimated scf accuracy    <      11.69963471 Ry

     total magnetization       =     0.02 Bohr mag/cell
     absolute magnetization    =     9.22 Bohr mag/cell
[tb_dev] Currently allocated     1.04E+01 Mbytes, locked:    0 /  13
[tb_pin] Currently allocated     0.00E+00 Mbytes, locked:    0 /   0

     iteration #  8     ecut=    50.00 Ry     beta= 0.10
     Davidson diagonalization with overlap

---- Real-time Memory Report at c_bands before calling an iterative solver
          2856 MiB given to the printing process from OS
          1977 MiB allocation reported by mallinfo(arena+hblkhd)
         55600 MiB available memory on the node where the printing process lives
     GPU memory used/free/total (MiB): 1744 / 14536 / 16280
------------------
     ethr =  5.17E-04,  avg # of iterations =  1.0

     negative rho (up, down):  8.209E-01 0.000E+00

     total cpu time spent up to now is      150.2 secs

     total energy              =   -1169.83648882 Ry
     estimated scf accuracy    <      11.88001116 Ry

     total magnetization       =     0.02 Bohr mag/cell
     absolute magnetization    =     9.27 Bohr mag/cell
[tb_dev] Currently allocated     1.04E+01 Mbytes, locked:    0 /  13
[tb_pin] Currently allocated     0.00E+00 Mbytes, locked:    0 /   0

     iteration #  9     ecut=    50.00 Ry     beta= 0.10
     Davidson diagonalization with overlap

---- Real-time Memory Report at c_bands before calling an iterative solver
          2880 MiB given to the printing process from OS
          1985 MiB allocation reported by mallinfo(arena+hblkhd)
         55596 MiB available memory on the node where the printing process lives
     GPU memory used/free/total (MiB): 1744 / 14536 / 16280
------------------
     ethr =  5.17E-04,  avg # of iterations =  1.0

     negative rho (up, down):  7.342E-01 0.000E+00

     total cpu time spent up to now is      165.3 secs

     total energy              =   -1169.54424624 Ry
     estimated scf accuracy    <      12.36429298 Ry

     total magnetization       =     0.02 Bohr mag/cell
     absolute magnetization    =     9.32 Bohr mag/cell
[tb_dev] Currently allocated     1.04E+01 Mbytes, locked:    0 /  13
[tb_pin] Currently allocated     0.00E+00 Mbytes, locked:    0 /   0

     iteration # 10     ecut=    50.00 Ry     beta= 0.10
     Davidson diagonalization with overlap

---- Real-time Memory Report at c_bands before calling an iterative solver
          2900 MiB given to the printing process from OS
          1993 MiB allocation reported by mallinfo(arena+hblkhd)
         55586 MiB available memory on the node where the printing process lives
     GPU memory used/free/total (MiB): 1744 / 14536 / 16280
------------------
     ethr =  5.17E-04,  avg # of iterations =  3.5

     negative rho (up, down):  7.459E-01 0.000E+00

     total cpu time spent up to now is      185.9 secs

     total energy              =   -1169.68403527 Ry
     estimated scf accuracy    <       0.12273923 Ry

     total magnetization       =    -0.02 Bohr mag/cell
     absolute magnetization    =     2.70 Bohr mag/cell
[tb_dev] Currently allocated     1.04E+01 Mbytes, locked:    0 /  13
[tb_pin] Currently allocated     0.00E+00 Mbytes, locked:    0 /   0

     iteration # 11     ecut=    50.00 Ry     beta= 0.10
     Davidson diagonalization with overlap

---- Real-time Memory Report at c_bands before calling an iterative solver
          2907 MiB given to the printing process from OS
          1996 MiB allocation reported by mallinfo(arena+hblkhd)
         55582 MiB available memory on the node where the printing process lives
     GPU memory used/free/total (MiB): 1744 / 14536 / 16280
------------------
     ethr =  3.07E-04,  avg # of iterations =  1.0

     negative rho (up, down):  7.354E-01 0.000E+00

     total cpu time spent up to now is      200.6 secs

     total energy              =   -1169.68423510 Ry
     estimated scf accuracy    <       0.12471220 Ry

     total magnetization       =    -0.02 Bohr mag/cell
     absolute magnetization    =     2.77 Bohr mag/cell
[tb_dev] Currently allocated     1.04E+01 Mbytes, locked:    0 /  13
[tb_pin] Currently allocated     0.00E+00 Mbytes, locked:    0 /   0

     iteration # 12     ecut=    50.00 Ry     beta= 0.10
     Davidson diagonalization with overlap

---- Real-time Memory Report at c_bands before calling an iterative solver
          2911 MiB given to the printing process from OS
          2000 MiB allocation reported by mallinfo(arena+hblkhd)
         55579 MiB available memory on the node where the printing process lives
     GPU memory used/free/total (MiB): 1744 / 14536 / 16280
------------------
     ethr =  3.07E-04,  avg # of iterations =  1.0

     negative rho (up, down):  7.248E-01 0.000E+00

     total cpu time spent up to now is      215.4 secs

     total energy              =   -1169.67504513 Ry
     estimated scf accuracy    <       0.10198237 Ry

     total magnetization       =    -0.02 Bohr mag/cell
     absolute magnetization    =     2.70 Bohr mag/cell
[tb_dev] Currently allocated     1.04E+01 Mbytes, locked:    0 /  13
[tb_pin] Currently allocated     0.00E+00 Mbytes, locked:    0 /   0

     iteration # 13     ecut=    50.00 Ry     beta= 0.10
     Davidson diagonalization with overlap

---- Real-time Memory Report at c_bands before calling an iterative solver
          2915 MiB given to the printing process from OS
          2004 MiB allocation reported by mallinfo(arena+hblkhd)
         55577 MiB available memory on the node where the printing process lives
     GPU memory used/free/total (MiB): 1744 / 14536 / 16280
------------------
     ethr =  2.55E-04,  avg # of iterations =  3.0

     negative rho (up, down):  7.365E-01 0.000E+00

     total cpu time spent up to now is      234.1 secs

     total energy              =   -1169.67234236 Ry
     estimated scf accuracy    <       0.43054743 Ry

     total magnetization       =    -0.02 Bohr mag/cell
     absolute magnetization    =     0.83 Bohr mag/cell
[tb_dev] Currently allocated     1.04E+01 Mbytes, locked:    0 /  13
[tb_pin] Currently allocated     0.00E+00 Mbytes, locked:    0 /   0

     iteration # 14     ecut=    50.00 Ry     beta= 0.10
     Davidson diagonalization with overlap

---- Real-time Memory Report at c_bands before calling an iterative solver
          2918 MiB given to the printing process from OS
          2008 MiB allocation reported by mallinfo(arena+hblkhd)
         55576 MiB available memory on the node where the printing process lives
     GPU memory used/free/total (MiB): 1744 / 14536 / 16280
------------------
     ethr =  2.55E-04,  avg # of iterations =  2.8

     negative rho (up, down):  7.239E-01 0.000E+00

     total cpu time spent up to now is      252.8 secs

     total energy              =   -1169.67713702 Ry
     estimated scf accuracy    <       0.04469780 Ry

     total magnetization       =    -0.02 Bohr mag/cell
     absolute magnetization    =     2.53 Bohr mag/cell
[tb_dev] Currently allocated     1.04E+01 Mbytes, locked:    0 /  13
[tb_pin] Currently allocated     0.00E+00 Mbytes, locked:    0 /   0

     iteration # 15     ecut=    50.00 Ry     beta= 0.10
     Davidson diagonalization with overlap

---- Real-time Memory Report at c_bands before calling an iterative solver
          2923 MiB given to the printing process from OS
          2012 MiB allocation reported by mallinfo(arena+hblkhd)
         55570 MiB available memory on the node where the printing process lives
     GPU memory used/free/total (MiB): 1744 / 14536 / 16280
------------------
     ethr =  1.12E-04,  avg # of iterations =  3.3

     negative rho (up, down):  7.282E-01 0.000E+00

     total cpu time spent up to now is      272.7 secs

     total energy              =   -1169.67976700 Ry
     estimated scf accuracy    <       0.56320573 Ry

     total magnetization       =    -0.02 Bohr mag/cell
     absolute magnetization    =     0.67 Bohr mag/cell
[tb_dev] Currently allocated     1.04E+01 Mbytes, locked:    0 /  13
[tb_pin] Currently allocated     0.00E+00 Mbytes, locked:    0 /   0

     iteration # 16     ecut=    50.00 Ry     beta= 0.10
     Davidson diagonalization with overlap

---- Real-time Memory Report at c_bands before calling an iterative solver
          2926 MiB given to the printing process from OS
          2016 MiB allocation reported by mallinfo(arena+hblkhd)
         55567 MiB available memory on the node where the printing process lives
     GPU memory used/free/total (MiB): 1744 / 14536 / 16280
------------------
     ethr =  1.12E-04,  avg # of iterations =  2.6

     negative rho (up, down):  7.256E-01 0.000E+00

     total cpu time spent up to now is      290.7 secs

     total energy              =   -1169.68527327 Ry
     estimated scf accuracy    <       0.05752043 Ry

     total magnetization       =    -0.02 Bohr mag/cell
     absolute magnetization    =     1.64 Bohr mag/cell
[tb_dev] Currently allocated     1.04E+01 Mbytes, locked:    0 /  13
[tb_pin] Currently allocated     0.00E+00 Mbytes, locked:    0 /   0

     iteration # 17     ecut=    50.00 Ry     beta= 0.10
     Davidson diagonalization with overlap

---- Real-time Memory Report at c_bands before calling an iterative solver
          2931 MiB given to the printing process from OS
          2019 MiB allocation reported by mallinfo(arena+hblkhd)
         55564 MiB available memory on the node where the printing process lives
     GPU memory used/free/total (MiB): 1744 / 14536 / 16280
------------------
     ethr =  1.12E-04,  avg # of iterations =  1.4

     negative rho (up, down):  7.300E-01 0.000E+00

     total cpu time spent up to now is      306.2 secs

     total energy              =   -1169.68087359 Ry
     estimated scf accuracy    <       0.11541213 Ry

     total magnetization       =    -0.02 Bohr mag/cell
     absolute magnetization    =     1.44 Bohr mag/cell
[tb_dev] Currently allocated     1.04E+01 Mbytes, locked:    0 /  13
[tb_pin] Currently allocated     0.00E+00 Mbytes, locked:    0 /   0

     iteration # 18     ecut=    50.00 Ry     beta= 0.10
     Davidson diagonalization with overlap

---- Real-time Memory Report at c_bands before calling an iterative solver
          2935 MiB given to the printing process from OS
          2023 MiB allocation reported by mallinfo(arena+hblkhd)
         55561 MiB available memory on the node where the printing process lives
     GPU memory used/free/total (MiB): 1744 / 14536 / 16280
------------------
     ethr =  1.12E-04,  avg # of iterations =  2.5

     negative rho (up, down):  7.296E-01 0.000E+00

     total cpu time spent up to now is      323.6 secs

     total energy              =   -1169.68306406 Ry
     estimated scf accuracy    <       0.00060105 Ry

     total magnetization       =    -0.02 Bohr mag/cell
     absolute magnetization    =     2.17 Bohr mag/cell
[tb_dev] Currently allocated     1.04E+01 Mbytes, locked:    0 /  13
[tb_pin] Currently allocated     0.00E+00 Mbytes, locked:    0 /   0

     iteration # 19     ecut=    50.00 Ry     beta= 0.10
     Davidson diagonalization with overlap

---- Real-time Memory Report at c_bands before calling an iterative solver
          2940 MiB given to the printing process from OS
          2027 MiB allocation reported by mallinfo(arena+hblkhd)
         55554 MiB available memory on the node where the printing process lives
     GPU memory used/free/total (MiB): 1744 / 14536 / 16280
------------------
     ethr =  1.50E-06,  avg # of iterations =  3.5

     negative rho (up, down):  7.334E-01 0.000E+00

     total cpu time spent up to now is      344.3 secs

     total energy              =   -1169.68444153 Ry
     estimated scf accuracy    <       0.04861766 Ry

     total magnetization       =    -0.01 Bohr mag/cell
     absolute magnetization    =     2.59 Bohr mag/cell
[tb_dev] Currently allocated     1.04E+01 Mbytes, locked:    0 /  13
[tb_pin] Currently allocated     0.00E+00 Mbytes, locked:    0 /   0

     iteration # 20     ecut=    50.00 Ry     beta= 0.10
     Davidson diagonalization with overlap

---- Real-time Memory Report at c_bands before calling an iterative solver
          2943 MiB given to the printing process from OS
          2031 MiB allocation reported by mallinfo(arena+hblkhd)
         55554 MiB available memory on the node where the printing process lives
     GPU memory used/free/total (MiB): 1744 / 14536 / 16280
------------------
     ethr =  1.50E-06,  avg # of iterations =  1.5

     negative rho (up, down):  7.329E-01 0.000E+00

     total cpu time spent up to now is      360.0 secs

     total energy              =   -1169.68454110 Ry
     estimated scf accuracy    <       0.04348653 Ry

     total magnetization       =    -0.01 Bohr mag/cell
     absolute magnetization    =     2.55 Bohr mag/cell
[tb_dev] Currently allocated     1.04E+01 Mbytes, locked:    0 /  13
[tb_pin] Currently allocated     0.00E+00 Mbytes, locked:    0 /   0

     iteration # 21     ecut=    50.00 Ry     beta= 0.10
     Davidson diagonalization with overlap

---- Real-time Memory Report at c_bands before calling an iterative solver
          2948 MiB given to the printing process from OS
          2035 MiB allocation reported by mallinfo(arena+hblkhd)
         55549 MiB available memory on the node where the printing process lives
     GPU memory used/free/total (MiB): 1744 / 14536 / 16280
------------------
     ethr =  1.50E-06,  avg # of iterations =  1.5

     negative rho (up, down):  7.322E-01 0.000E+00

     total cpu time spent up to now is      375.7 secs

     total energy              =   -1169.68459723 Ry
     estimated scf accuracy    <       0.03698840 Ry

     total magnetization       =    -0.01 Bohr mag/cell
     absolute magnetization    =     2.51 Bohr mag/cell
[tb_dev] Currently allocated     1.04E+01 Mbytes, locked:    0 /  13
[tb_pin] Currently allocated     0.00E+00 Mbytes, locked:    0 /   0

     iteration # 22     ecut=    50.00 Ry     beta= 0.10
     Davidson diagonalization with overlap

---- Real-time Memory Report at c_bands before calling an iterative solver
          2950 MiB given to the printing process from OS
          2039 MiB allocation reported by mallinfo(arena+hblkhd)
         55544 MiB available memory on the node where the printing process lives
     GPU memory used/free/total (MiB): 1744 / 14536 / 16280
------------------
     ethr =  1.50E-06,  avg # of iterations =  1.0

     negative rho (up, down):  7.332E-01 0.000E+00

     total cpu time spent up to now is      390.5 secs

     total energy              =   -1169.68453949 Ry
     estimated scf accuracy    <       0.03380418 Ry

     total magnetization       =    -0.01 Bohr mag/cell
     absolute magnetization    =     2.49 Bohr mag/cell
[tb_dev] Currently allocated     1.04E+01 Mbytes, locked:    0 /  13
[tb_pin] Currently allocated     0.00E+00 Mbytes, locked:    0 /   0

     iteration # 23     ecut=    50.00 Ry     beta= 0.10
     Davidson diagonalization with overlap

---- Real-time Memory Report at c_bands before calling an iterative solver
          2955 MiB given to the printing process from OS
          2042 MiB allocation reported by mallinfo(arena+hblkhd)
         55540 MiB available memory on the node where the printing process lives
     GPU memory used/free/total (MiB): 1744 / 14536 / 16280
------------------
     ethr =  1.50E-06,  avg # of iterations =  1.4

     negative rho (up, down):  7.331E-01 0.000E+00

[...]
     GPU memory used/free/total (MiB): 2056 / 14224 / 16280
------------------
     ethr =  3.34E-07,  avg # of iterations =  3.1

     negative rho (up, down):  7.293E-01 0.000E+00

     total cpu time spent up to now is     1229.1 secs

     total energy              =   -1169.68328286 Ry
     estimated scf accuracy    <       0.00070312 Ry

     total magnetization       =    -0.02 Bohr mag/cell
     absolute magnetization    =     2.08 Bohr mag/cell
[tb_dev] Currently allocated     1.04E+01 Mbytes, locked:    0 /  13
[tb_pin] Currently allocated     0.00E+00 Mbytes, locked:    0 /   0

     iteration # 66     ecut=    50.00 Ry     beta= 0.10
     Davidson diagonalization with overlap

---- Real-time Memory Report at c_bands before calling an iterative solver
          3147 MiB given to the printing process from OS
         -1873 MiB allocation reported by mallinfo(arena+hblkhd)
         55351 MiB available memory on the node where the printing process lives
     GPU memory used/free/total (MiB): 2056 / 14224 / 16280
------------------
     ethr =  3.34E-07,  avg # of iterations =  1.5

     negative rho (up, down):  7.293E-01 0.000E+00

     total cpu time spent up to now is     1244.8 secs

     total energy              =   -1169.68328036 Ry
     estimated scf accuracy    <       0.00039988 Ry

     total magnetization       =    -0.02 Bohr mag/cell
     absolute magnetization    =     2.10 Bohr mag/cell
[tb_dev] Currently allocated     1.04E+01 Mbytes, locked:    0 /  13
[tb_pin] Currently allocated     0.00E+00 Mbytes, locked:    0 /   0

     iteration # 67     ecut=    50.00 Ry     beta= 0.10
     Davidson diagonalization with overlap

---- Real-time Memory Report at c_bands before calling an iterative solver
          3151 MiB given to the printing process from OS
         -1869 MiB allocation reported by mallinfo(arena+hblkhd)
         55344 MiB available memory on the node where the printing process lives
     GPU memory used/free/total (MiB): 2056 / 14224 / 16280
------------------
     ethr =  3.34E-07,  avg # of iterations =  1.6

     negative rho (up, down):  7.293E-01 0.000E+00

     total cpu time spent up to now is     1260.6 secs

     total energy              =   -1169.68327777 Ry
     estimated scf accuracy    <       0.00010906 Ry

     total magnetization       =    -0.02 Bohr mag/cell
     absolute magnetization    =     2.12 Bohr mag/cell
[tb_dev] Currently allocated     1.04E+01 Mbytes, locked:    0 /  13
[tb_pin] Currently allocated     0.00E+00 Mbytes, locked:    0 /   0

     iteration # 68     ecut=    50.00 Ry     beta= 0.10
     Davidson diagonalization with overlap

---- Real-time Memory Report at c_bands before calling an iterative solver
          3157 MiB given to the printing process from OS
         -1862 MiB allocation reported by mallinfo(arena+hblkhd)
         55336 MiB available memory on the node where the printing process lives
     GPU memory used/free/total (MiB): 2056 / 14224 / 16280
------------------
     ethr =  2.73E-07,  avg # of iterations =  1.1

     negative rho (up, down):  7.293E-01 0.000E+00

     total cpu time spent up to now is     1275.5 secs

     total energy              =   -1169.68328248 Ry
     estimated scf accuracy    <       0.00004867 Ry

     total magnetization       =    -0.02 Bohr mag/cell
     absolute magnetization    =     2.12 Bohr mag/cell
[tb_dev] Currently allocated     1.04E+01 Mbytes, locked:    0 /  13
[tb_pin] Currently allocated     0.00E+00 Mbytes, locked:    0 /   0

     iteration # 69     ecut=    50.00 Ry     beta= 0.10
     Davidson diagonalization with overlap

---- Real-time Memory Report at c_bands before calling an iterative solver
          3161 MiB given to the printing process from OS
         -1857 MiB allocation reported by mallinfo(arena+hblkhd)
         55334 MiB available memory on the node where the printing process lives
     GPU memory used/free/total (MiB): 2056 / 14224 / 16280
------------------
     ethr =  1.22E-07,  avg # of iterations =  1.3

     negative rho (up, down):  7.293E-01 0.000E+00

     total cpu time spent up to now is     1290.6 secs

     total energy              =   -1169.68329402 Ry
     estimated scf accuracy    <       0.00007851 Ry

     total magnetization       =    -0.02 Bohr mag/cell
     absolute magnetization    =     2.12 Bohr mag/cell
[tb_dev] Currently allocated     1.04E+01 Mbytes, locked:    0 /  13
[tb_pin] Currently allocated     0.00E+00 Mbytes, locked:    0 /   0

     iteration # 70     ecut=    50.00 Ry     beta= 0.10
     Davidson diagonalization with overlap

---- Real-time Memory Report at c_bands before calling an iterative solver
          3165 MiB given to the printing process from OS
         -1853 MiB allocation reported by mallinfo(arena+hblkhd)
         55330 MiB available memory on the node where the printing process lives
     GPU memory used/free/total (MiB): 2056 / 14224 / 16280
------------------
     ethr =  1.22E-07,  avg # of iterations =  1.0

     negative rho (up, down):  7.293E-01 0.000E+00

     total cpu time spent up to now is     1305.4 secs

     total energy              =   -1169.68329945 Ry
     estimated scf accuracy    <       0.00010179 Ry

     total magnetization       =    -0.02 Bohr mag/cell
     absolute magnetization    =     2.12 Bohr mag/cell
[tb_dev] Currently allocated     1.04E+01 Mbytes, locked:    0 /  13
[tb_pin] Currently allocated     0.00E+00 Mbytes, locked:    0 /   0

     iteration # 71     ecut=    50.00 Ry     beta= 0.10
     Davidson diagonalization with overlap

---- Real-time Memory Report at c_bands before calling an iterative solver
          3170 MiB given to the printing process from OS
         -1849 MiB allocation reported by mallinfo(arena+hblkhd)
         55326 MiB available memory on the node where the printing process lives
     GPU memory used/free/total (MiB): 2056 / 14224 / 16280
------------------
     ethr =  1.22E-07,  avg # of iterations =  1.0

     negative rho (up, down):  7.293E-01 0.000E+00

     total cpu time spent up to now is     1320.1 secs

     total energy              =   -1169.68329853 Ry
     estimated scf accuracy    <       0.00011372 Ry

     total magnetization       =    -0.02 Bohr mag/cell
     absolute magnetization    =     2.11 Bohr mag/cell
[tb_dev] Currently allocated     1.04E+01 Mbytes, locked:    0 /  13
[tb_pin] Currently allocated     0.00E+00 Mbytes, locked:    0 /   0

     iteration # 72     ecut=    50.00 Ry     beta= 0.10
     Davidson diagonalization with overlap

---- Real-time Memory Report at c_bands before calling an iterative solver
          3174 MiB given to the printing process from OS
         -1845 MiB allocation reported by mallinfo(arena+hblkhd)
         55323 MiB available memory on the node where the printing process lives
     GPU memory used/free/total (MiB): 2056 / 14224 / 16280
------------------
     ethr =  1.22E-07,  avg # of iterations =  1.0

     negative rho (up, down):  7.294E-01 0.000E+00

     total cpu time spent up to now is     1334.9 secs

     total energy              =   -1169.68327234 Ry
     estimated scf accuracy    <       0.00010536 Ry

     total magnetization       =    -0.02 Bohr mag/cell
     absolute magnetization    =     2.12 Bohr mag/cell
[tb_dev] Currently allocated     1.04E+01 Mbytes, locked:    0 /  13
[tb_pin] Currently allocated     0.00E+00 Mbytes, locked:    0 /   0

     iteration # 73     ecut=    50.00 Ry     beta= 0.10
     Davidson diagonalization with overlap

---- Real-time Memory Report at c_bands before calling an iterative solver
          3179 MiB given to the printing process from OS
         -1840 MiB allocation reported by mallinfo(arena+hblkhd)
         55315 MiB available memory on the node where the printing process lives
     GPU memory used/free/total (MiB): 2056 / 14224 / 16280
------------------
     ethr =  1.22E-07,  avg # of iterations =  3.3

     negative rho (up, down):  7.293E-01 0.000E+00

     total cpu time spent up to now is     1354.4 secs

     total energy              =   -1169.68328422 Ry
     estimated scf accuracy    <       0.00034409 Ry

     total magnetization       =    -0.02 Bohr mag/cell
     absolute magnetization    =     2.17 Bohr mag/cell
[tb_dev] Currently allocated     1.04E+01 Mbytes, locked:    0 /  13
[tb_pin] Currently allocated     0.00E+00 Mbytes, locked:    0 /   0

     iteration # 74     ecut=    50.00 Ry     beta= 0.10
     Davidson diagonalization with overlap

---- Real-time Memory Report at c_bands before calling an iterative solver
          3183 MiB given to the printing process from OS
         -1836 MiB allocation reported by mallinfo(arena+hblkhd)
         55311 MiB available memory on the node where the printing process lives
     GPU memory used/free/total (MiB): 2056 / 14224 / 16280
------------------
     ethr =  1.22E-07,  avg # of iterations =  1.5

     negative rho (up, down):  7.293E-01 0.000E+00

     total cpu time spent up to now is     1370.0 secs

     total energy              =   -1169.68328778 Ry
     estimated scf accuracy    <       0.00019684 Ry

     total magnetization       =    -0.02 Bohr mag/cell
     absolute magnetization    =     2.17 Bohr mag/cell
[tb_dev] Currently allocated     1.04E+01 Mbytes, locked:    0 /  13
[tb_pin] Currently allocated     0.00E+00 Mbytes, locked:    0 /   0

     iteration # 75     ecut=    50.00 Ry     beta= 0.10
     Davidson diagonalization with overlap

---- Real-time Memory Report at c_bands before calling an iterative solver
          3189 MiB given to the printing process from OS
         -1832 MiB allocation reported by mallinfo(arena+hblkhd)
         55309 MiB available memory on the node where the printing process lives
     GPU memory used/free/total (MiB): 2056 / 14224 / 16280
------------------
     ethr =  1.22E-07,  avg # of iterations =  1.0

     negative rho (up, down):  7.293E-01 0.000E+00

     total cpu time spent up to now is     1384.9 secs

     total energy              =   -1169.68328226 Ry
     estimated scf accuracy    <       0.00020290 Ry

     total magnetization       =    -0.02 Bohr mag/cell
     absolute magnetization    =     2.17 Bohr mag/cell
[tb_dev] Currently allocated     1.04E+01 Mbytes, locked:    0 /  13
[tb_pin] Currently allocated     0.00E+00 Mbytes, locked:    0 /   0

     iteration # 76     ecut=    50.00 Ry     beta= 0.10
     Davidson diagonalization with overlap

---- Real-time Memory Report at c_bands before calling an iterative solver
          3192 MiB given to the printing process from OS
         -1828 MiB allocation reported by mallinfo(arena+hblkhd)
         55301 MiB available memory on the node where the printing process lives
     GPU memory used/free/total (MiB): 2056 / 14224 / 16280
------------------
     ethr =  1.22E-07,  avg # of iterations =  1.0

     negative rho (up, down):  7.293E-01 0.000E+00

     total cpu time spent up to now is     1399.6 secs

     total energy              =   -1169.68328892 Ry
     estimated scf accuracy    <       0.00014053 Ry

     total magnetization       =    -0.02 Bohr mag/cell
     absolute magnetization    =     2.16 Bohr mag/cell
[tb_dev] Currently allocated     1.04E+01 Mbytes, locked:    0 /  13
[tb_pin] Currently allocated     0.00E+00 Mbytes, locked:    0 /   0

     iteration # 77     ecut=    50.00 Ry     beta= 0.10
     Davidson diagonalization with overlap

---- Real-time Memory Report at c_bands before calling an iterative solver
          3197 MiB given to the printing process from OS
         -1824 MiB allocation reported by mallinfo(arena+hblkhd)
         55298 MiB available memory on the node where the printing process lives
     GPU memory used/free/total (MiB): 2056 / 14224 / 16280
------------------
     ethr =  1.22E-07,  avg # of iterations =  2.6

     negative rho (up, down):  7.293E-01 0.000E+00

     total cpu time spent up to now is     1417.4 secs

     total energy              =   -1169.68328939 Ry
     estimated scf accuracy    <       0.00000370 Ry

     total magnetization       =    -0.02 Bohr mag/cell
     absolute magnetization    =     2.13 Bohr mag/cell
[tb_dev] Currently allocated     1.04E+01 Mbytes, locked:    0 /  13
[tb_pin] Currently allocated     0.00E+00 Mbytes, locked:    0 /   0

     iteration # 78     ecut=    50.00 Ry     beta= 0.10
     Davidson diagonalization with overlap

---- Real-time Memory Report at c_bands before calling an iterative solver
          3202 MiB given to the printing process from OS
         -1816 MiB allocation reported by mallinfo(arena+hblkhd)
         55292 MiB available memory on the node where the printing process lives
     GPU memory used/free/total (MiB): 2056 / 14224 / 16280
------------------
     ethr =  9.24E-09,  avg # of iterations =  2.9

     negative rho (up, down):  7.293E-01 0.000E+00

     total cpu time spent up to now is     1435.9 secs

     total energy              =   -1169.68328856 Ry
     estimated scf accuracy    <       0.00001073 Ry

     total magnetization       =    -0.02 Bohr mag/cell
     absolute magnetization    =     2.14 Bohr mag/cell
[tb_dev] Currently allocated     1.04E+01 Mbytes, locked:    0 /  13
[tb_pin] Currently allocated     0.00E+00 Mbytes, locked:    0 /   0

     iteration # 79     ecut=    50.00 Ry     beta= 0.10
     Davidson diagonalization with overlap

---- Real-time Memory Report at c_bands before calling an iterative solver
          3207 MiB given to the printing process from OS
         -1812 MiB allocation reported by mallinfo(arena+hblkhd)
         55288 MiB available memory on the node where the printing process lives
     GPU memory used/free/total (MiB): 2056 / 14224 / 16280
------------------
     ethr =  9.24E-09,  avg # of iterations =  1.0

     negative rho (up, down):  7.293E-01 0.000E+00

     total cpu time spent up to now is     1450.7 secs

     total energy              =   -1169.68328716 Ry
     estimated scf accuracy    <       0.00000887 Ry

     total magnetization       =    -0.02 Bohr mag/cell
     absolute magnetization    =     2.14 Bohr mag/cell
[tb_dev] Currently allocated     1.04E+01 Mbytes, locked:    0 /  13
[tb_pin] Currently allocated     0.00E+00 Mbytes, locked:    0 /   0

     iteration # 80     ecut=    50.00 Ry     beta= 0.10
     Davidson diagonalization with overlap

---- Real-time Memory Report at c_bands before calling an iterative solver
          3211 MiB given to the printing process from OS
         -1808 MiB allocation reported by mallinfo(arena+hblkhd)
         55283 MiB available memory on the node where the printing process lives
     GPU memory used/free/total (MiB): 2056 / 14224 / 16280
------------------
     ethr =  9.24E-09,  avg # of iterations =  1.0

     negative rho (up, down):  7.293E-01 0.000E+00

     total cpu time spent up to now is     1465.5 secs

     total energy              =   -1169.68329131 Ry
     estimated scf accuracy    <       0.00001139 Ry

     total magnetization       =    -0.02 Bohr mag/cell
     absolute magnetization    =     2.14 Bohr mag/cell

     End of self-consistent calculation

     convergence NOT achieved after  80 iterations: stopping

     Writing config to output data dir ./out/aiida.save/
 
     init_run     :     24.80s CPU      3.88s WALL (       1 calls)
     electrons    :   2119.11s CPU   1461.11s WALL (       1 calls)

     Called by init_run:
     wfcinit      :      0.59s CPU      0.59s WALL (       1 calls)
                                        0.59s GPU  (       1 calls)
     potinit      :     11.77s CPU      1.19s WALL (       1 calls)
     hinit0       :      7.08s CPU      1.27s WALL (       1 calls)

     Called by electrons:
     c_bands      :   1216.85s CPU   1175.60s WALL (      80 calls)
     sum_band     :    202.12s CPU    221.91s WALL (      80 calls)
     v_of_rho     :     27.36s CPU      2.51s WALL (      81 calls)
     v_h          :      3.29s CPU      0.29s WALL (      81 calls)
     v_xc         :     24.06s CPU      2.21s WALL (      81 calls)
     newd         :     13.39s CPU      1.48s WALL (      81 calls)
                                        1.48s GPU  (      81 calls)
     PAW_pot      :    636.70s CPU     57.58s WALL (      81 calls)
     mix_rho      :     23.40s CPU      2.30s WALL (      80 calls)

     Called by c_bands:
     init_us_2    :     86.15s CPU     92.76s WALL (   92160 calls)
     init_us_2:gp :     84.55s CPU     91.22s WALL (   92160 calls)
     cegterg      :   1076.06s CPU   1019.36s WALL (   46080 calls)

     Called by sum_band:
     sum_band:wei :      1.12s CPU      1.13s WALL (      80 calls)
                                        1.13s GPU  (      80 calls)
     sum_band:loo :    199.12s CPU    218.80s WALL (      80 calls)
                                      218.80s GPU  (      80 calls)
     sum_band:buf :     27.71s CPU     29.16s WALL (   46080 calls)
                                       28.89s GPU  (   46080 calls)
     sum_band:ini :     40.42s CPU     45.44s WALL (   46080 calls)
                                       45.19s GPU  (   46080 calls)
     sum_band:cal :      1.55s CPU     10.17s WALL (   46080 calls)
                                        2.87s GPU  (   46080 calls)
     sum_band:bec :      4.36s CPU      5.04s WALL (   46080 calls)
                                        4.74s GPU  (   46080 calls)
     addusdens    :      0.92s CPU      1.00s WALL (      80 calls)
                                        1.00s GPU  (      80 calls)
     addusd:skk   :      0.01s CPU      0.01s WALL (      80 calls)
                                        0.01s GPU  (      80 calls)

     Called by *egterg:
     cdiaghg      :    252.76s CPU    248.16s WALL (  161856 calls)
                                      247.08s GPU  (  161856 calls)
     cegterg:over :     17.87s CPU     16.72s WALL (  116352 calls)
     cegterg:upda :     28.05s CPU     26.66s WALL (  116352 calls)
     cegterg:last :      6.31s CPU      6.14s WALL (   69672 calls)
     h_psi        :    697.88s CPU    656.52s WALL (  162432 calls)
                                      655.61s GPU  (  162432 calls)
     s_psi        :     12.96s CPU     20.19s WALL (  162432 calls)
                                       18.45s GPU  (  162432 calls)
     g_psi        :      0.89s CPU      2.82s WALL (  116352 calls)
                                        2.07s GPU  (  116352 calls)

     Called by h_psi:
     h_psi:calbec :      6.44s CPU     17.16s WALL (  162432 calls)
                                       16.19s GPU  (  162432 calls)
     vloc_psi     :    643.66s CPU    607.29s WALL (  162432 calls)
                                      606.26s GPU  (  162432 calls)
     add_vuspsi   :     15.66s CPU     21.74s WALL (  162432 calls)
                                       20.78s GPU  (  162432 calls)

     General routines
     calbec       :      5.95s CPU      5.73s WALL (  208512 calls)
     fft          :      2.97s CPU      0.65s WALL (    2023 calls)
                                        0.55s GPU  (    1861 calls)
     ffts         :      0.11s CPU      0.08s WALL (     322 calls)
                                        0.02s GPU  (     160 calls)
     fftw         :     12.61s CPU    511.67s WALL (  601944 calls)
                                      508.16s GPU  (  601944 calls)
     interpolate  :      4.76s CPU      0.42s WALL (     162 calls)
     davcio       :      1.20s CPU      1.83s WALL (    1170 calls)
 
     Parallel routines

     PAW routines
     PAW_pot      :    636.70s CPU     57.58s WALL (      81 calls)
     PAW_symme    :      0.51s CPU      0.08s WALL (     160 calls)
 
     PWSCF        :  35m47.68s CPU  24m26.68s WALL

 
   This run was terminated on:  22:58:12  23Oct2023            

=------------------------------------------------------------------------------=
   JOB DONE.
=------------------------------------------------------------------------------=
