
     Program PWSCF v.7.2 starts on 29Nov2023 at 20:28:10 
        Git branch: develop
        Last git commit: 9055681be6fc8200e6fffe76ed5fda34c2696339
        Last git commit date: Wed Nov 8 16:29:39 2023 +0000
        Last git commit subject: Merge branch 'calbec_fix' into 'develop'

     This program is part of the open-source Quantum ESPRESSO suite
     for quantum simulation of materials; please cite
         "P. Giannozzi et al., J. Phys.:Condens. Matter 21 395502 (2009);
         "P. Giannozzi et al., J. Phys.:Condens. Matter 29 465901 (2017);
         "P. Giannozzi et al., J. Chem. Phys. 152 154105 (2020);
          URL http://www.quantum-espresso.org", 
     in publications or presentations arising from this work. More details at
     http://www.quantum-espresso.org/quote

     Parallel version (MPI), running on    56 processors

     MPI processes distributed on     1 nodes
     489955 MiB available memory on the printing compute node when the environment starts

     Reading input from aiida.in

     Current dimensions of program PWSCF are:
     Max number of different atomic species (ntypx) = 10
     Max number of k-points (npk) =  40000
     Max angular momentum in pseudopotentials (lmaxx) =  4
     file In.pbesol-dn-rrkjus_psl.0.2.2.UPF: wavefunction(s)  5S renormalized
     Message from routine setup:
     using ibrav=0 with symmetry is DISCOURAGED, use correct ibrav instead

     K-points division:     npool     =       7
     R & G space division:  proc/nbgrp/npool/nimage =       8
     Subspace diagonalization in iterative solution of the eigenvalue problem:
     a serial algorithm will be used


     Parallelization info
     --------------------
     sticks:   dense  smooth     PW     G-vecs:    dense   smooth      PW
     Min         256     128     37                 7546     2666     433
     Max         258     129     38                 7547     2667     436
     Sum        2053    1027    301                60375    21331    3479

     Using Slab Decomposition



     bravais-lattice index     =            0
     lattice parameter (alat)  =       8.5786  a.u.
     unit-cell volume          =     446.4180 (a.u.)^3
     number of atoms/cell      =            4
     number of atomic types    =            4
     number of electrons       =        52.00
     number of Kohn-Sham states=           31
     kinetic-energy cutoff     =      50.0000  Ry
     charge density cutoff     =     400.0000  Ry
     scf convergence threshold =      8.0E-10
     mixing beta               =       0.4000
     number of iterations used =            8  plain     mixing
     Exchange-correlation= SLA  PW   PSX  PSC
                           (   1   4  10   8   0   0   0)

     celldm(1)=   8.578649  celldm(2)=   0.000000  celldm(3)=   0.000000
     celldm(4)=   0.000000  celldm(5)=   0.000000  celldm(6)=   0.000000

     crystal axes: (cart. coord. in units of alat)
               a(1) = (   0.000000   0.707107   0.707107 )  
               a(2) = (   0.707107   0.000000   0.707107 )  
               a(3) = (   0.707107   0.707107   0.000000 )  

     reciprocal axes: (cart. coord. in units 2 pi/alat)
               b(1) = ( -0.707107  0.707107  0.707107 )  
               b(2) = (  0.707107 -0.707107  0.707107 )  
               b(3) = (  0.707107  0.707107 -0.707107 )  


     PseudoPot. # 1 for Cr read from file:
     ./pseudo/cr_pbesol_v1.5.uspp.F.UPF
     MD5 check sum: a621641e0be27168676a837af8893d0f
     Pseudo is Ultrasoft + core correction, Zval = 14.0
     Generated by new atomic code, or converted to UPF format
     Using radial grid of  857 points,  6 beta functions with: 
                l(1) =   0
                l(2) =   0
                l(3) =   1
                l(4) =   1
                l(5) =   2
                l(6) =   2
     Q(r) pseudized with  8 coefficients,  rinner =    0.950   0.950   0.950
                                                       0.950   0.950

     PseudoPot. # 2 for In read from file:
     ./pseudo/In.pbesol-dn-rrkjus_psl.0.2.2.UPF
     MD5 check sum: 2a3399a31491503da6b8c7d8e01e9843
     Pseudo is Ultrasoft + core correction, Zval = 13.0
     Generated using "atomic" code by A. Dal Corso  v.6.0 svn rev. 13079
     Using radial grid of 1241 points,  6 beta functions with: 
                l(1) =   0
                l(2) =   0
                l(3) =   1
                l(4) =   1
                l(5) =   2
                l(6) =   2
     Q(r) pseudized with 0 coefficients 


     PseudoPot. # 3 for V  read from file:
     ./pseudo/v_pbesol_v1.4.uspp.F.UPF
     MD5 check sum: 72fa7d0034c41d8adc50bbc8c632b9f9
     Pseudo is Ultrasoft + core correction, Zval = 13.0
     Generated by new atomic code, or converted to UPF format
     Using radial grid of  853 points,  6 beta functions with: 
                l(1) =   0
                l(2) =   0
                l(3) =   1
                l(4) =   1
                l(5) =   2
                l(6) =   2
     Q(r) pseudized with  8 coefficients,  rinner =    1.100   1.100   1.100
                                                       1.100   1.100

     PseudoPot. # 4 for Zr read from file:
     ./pseudo/zr_pbesol_v1.uspp.F.UPF
     MD5 check sum: f29f2a20533738a515abe666fee35838
     Pseudo is Ultrasoft + core correction, Zval = 12.0
     Generated by new atomic code, or converted to UPF format
     Using radial grid of  887 points,  6 beta functions with: 
                l(1) =   0
                l(2) =   0
                l(3) =   1
                l(4) =   1
                l(5) =   2
                l(6) =   2
     Q(r) pseudized with  6 coefficients,  rinner =    1.200   1.200   1.200
                                                       1.200   1.200

     atomic species   valence    mass     pseudopotential
     Cr               14.00    51.99610     Cr( 1.00)
     In               13.00   114.81800     In( 1.00)
     V                13.00    50.94150     V ( 1.00)
     Zr               12.00    91.22400     Zr( 1.00)

     Starting magnetic structure 
     atomic species   magnetization
     Cr              0.357
     In              0.100
     V               0.385
     Zr              0.417

     24 Sym. Ops. (no inversion) found


                                    s                        frac. trans.

      isym =  1     identity                                     

 cryst.   s( 1) = (     1          0          0      )
                  (     0          1          0      )
                  (     0          0          1      )

 cart.    s( 1) = (  1.0000000 -0.0000000  0.0000000 )
                  ( -0.0000000  1.0000000  0.0000000 )
                  ( -0.0000000  0.0000000  1.0000000 )


      isym =  2     180 deg rotation - cart. axis [0,0,1]        

 cryst.   s( 2) = (     0          1         -1      )
                  (     1          0         -1      )
                  (     0          0         -1      )

 cart.    s( 2) = ( -1.0000000  0.0000000  0.0000000 )
                  (  0.0000000 -1.0000000  0.0000000 )
                  (  0.0000000 -0.0000000  1.0000000 )


      isym =  3     180 deg rotation - cart. axis [0,1,0]        

 cryst.   s( 3) = (     0         -1          1      )
                  (     0         -1          0      )
                  (     1         -1          0      )

 cart.    s( 3) = ( -1.0000000 -0.0000000 -0.0000000 )
                  (  0.0000000  1.0000000 -0.0000000 )
                  (  0.0000000  0.0000000 -1.0000000 )


      isym =  4     180 deg rotation - cart. axis [1,0,0]        

 cryst.   s( 4) = (    -1          0          0      )
                  (    -1          0          1      )
                  (    -1          1          0      )

 cart.    s( 4) = (  1.0000000  0.0000000 -0.0000000 )
                  ( -0.0000000 -1.0000000 -0.0000000 )
                  ( -0.0000000 -0.0000000 -1.0000000 )


      isym =  5     120 deg rotation - cart. axis [-1,-1,-1]     

 cryst.   s( 5) = (     0          0          1      )
                  (     1          0          0      )
                  (     0          1          0      )

 cart.    s( 5) = (  0.0000000  1.0000000 -0.0000000 )
                  (  0.0000000 -0.0000000  1.0000000 )
                  (  1.0000000 -0.0000000  0.0000000 )


      isym =  6     120 deg rotation - cart. axis [-1,1,1]       

 cryst.   s( 6) = (     1         -1          0      )
                  (     0         -1          1      )
                  (     0         -1          0      )

 cart.    s( 6) = ( -0.0000000 -1.0000000 -0.0000000 )
                  ( -0.0000000  0.0000000  1.0000000 )
                  ( -1.0000000  0.0000000  0.0000000 )


      isym =  7     120 deg rotation - cart. axis [1,1,-1]       

 cryst.   s( 7) = (    -1          1          0      )
                  (    -1          0          0      )
                  (    -1          0          1      )

 cart.    s( 7) = ( -0.0000000  1.0000000  0.0000000 )
                  ( -0.0000000 -0.0000000 -1.0000000 )
                  ( -1.0000000 -0.0000000 -0.0000000 )


      isym =  8     120 deg rotation - cart. axis [1,-1,1]       

 cryst.   s( 8) = (     0          0         -1      )
                  (     0          1         -1      )
                  (     1          0         -1      )

 cart.    s( 8) = (  0.0000000 -1.0000000  0.0000000 )
                  (  0.0000000  0.0000000 -1.0000000 )
                  (  1.0000000  0.0000000 -0.0000000 )


      isym =  9     120 deg rotation - cart. axis [1,1,1]        

 cryst.   s( 9) = (     0          1          0      )
                  (     0          0          1      )
                  (     1          0          0      )

 cart.    s( 9) = ( -0.0000000  0.0000000  1.0000000 )
                  (  1.0000000  0.0000000 -0.0000000 )
                  (  0.0000000  1.0000000 -0.0000000 )


      isym = 10     120 deg rotation - cart. axis [-1,1,-1]      

 cryst.   s(10) = (    -1          0          1      )
                  (    -1          1          0      )
                  (    -1          0          0      )

 cart.    s(10) = (  0.0000000 -0.0000000  1.0000000 )
                  ( -1.0000000 -0.0000000 -0.0000000 )
                  ( -0.0000000 -1.0000000 -0.0000000 )


      isym = 11     120 deg rotation - cart. axis [1,-1,-1]      

 cryst.   s(11) = (     1          0         -1      )
                  (     0          0         -1      )
                  (     0          1         -1      )

 cart.    s(11) = (  0.0000000  0.0000000 -1.0000000 )
                  ( -1.0000000  0.0000000  0.0000000 )
                  ( -0.0000000  1.0000000  0.0000000 )


      isym = 12     120 deg rotation - cart. axis [-1,-1,1]      

 cryst.   s(12) = (     0         -1          0      )
                  (     1         -1          0      )
                  (     0         -1          1      )

 cart.    s(12) = ( -0.0000000 -0.0000000 -1.0000000 )
                  (  1.0000000 -0.0000000  0.0000000 )
                  (  0.0000000 -1.0000000  0.0000000 )


      isym = 13     inv. 180 deg rotation - cart. axis [1,1,0]   

 cryst.   s(13) = (     1          0         -1      )
                  (     0          1         -1      )
                  (     0          0         -1      )

 cart.    s(13) = (  0.0000000 -1.0000000  0.0000000 )
                  ( -1.0000000  0.0000000  0.0000000 )
                  ( -0.0000000  0.0000000  1.0000000 )


      isym = 14     inv. 180 deg rotation - cart. axis [1,-1,0]  

 cryst.   s(14) = (     0          1          0      )
                  (     1          0          0      )
                  (     0          0          1      )

 cart.    s(14) = ( -0.0000000  1.0000000  0.0000000 )
                  (  1.0000000 -0.0000000  0.0000000 )
                  (  0.0000000 -0.0000000  1.0000000 )


      isym = 15     inv.  90 deg rotation - cart. axis [0,0,-1]  

 cryst.   s(15) = (     0         -1          0      )
                  (     0         -1          1      )
                  (     1         -1          0      )

 cart.    s(15) = ( -0.0000000 -1.0000000 -0.0000000 )
                  (  1.0000000  0.0000000 -0.0000000 )
                  (  0.0000000  0.0000000 -1.0000000 )


      isym = 16     inv.  90 deg rotation - cart. axis [0,0,1]   

 cryst.   s(16) = (    -1          0          1      )
                  (    -1          0          0      )
                  (    -1          1          0      )

 cart.    s(16) = (  0.0000000  1.0000000 -0.0000000 )
                  ( -1.0000000 -0.0000000 -0.0000000 )
                  ( -0.0000000 -0.0000000 -1.0000000 )


      isym = 17     inv. 180 deg rotation - cart. axis [1,0,1]   

 cryst.   s(17) = (     1         -1          0      )
                  (     0         -1          0      )
                  (     0         -1          1      )

 cart.    s(17) = ( -0.0000000 -0.0000000 -1.0000000 )
                  ( -0.0000000  1.0000000  0.0000000 )
                  ( -1.0000000  0.0000000  0.0000000 )


      isym = 18     inv. 180 deg rotation - cart. axis [-1,0,1]  

 cryst.   s(18) = (     0          0          1      )
                  (     0          1          0      )
                  (     1          0          0      )

 cart.    s(18) = (  0.0000000 -0.0000000  1.0000000 )
                  (  0.0000000  1.0000000 -0.0000000 )
                  (  1.0000000  0.0000000 -0.0000000 )


      isym = 19     inv.  90 deg rotation - cart. axis [0,1,0]   

 cryst.   s(19) = (     0          0         -1      )
                  (     1          0         -1      )
                  (     0          1         -1      )

 cart.    s(19) = (  0.0000000  0.0000000 -1.0000000 )
                  (  0.0000000 -1.0000000  0.0000000 )
                  (  1.0000000 -0.0000000  0.0000000 )


      isym = 20     inv.  90 deg rotation - cart. axis [0,-1,0]  

 cryst.   s(20) = (    -1          1          0      )
                  (    -1          0          1      )
                  (    -1          0          0      )

 cart.    s(20) = ( -0.0000000  0.0000000  1.0000000 )
                  ( -0.0000000 -1.0000000 -0.0000000 )
                  ( -1.0000000 -0.0000000 -0.0000000 )


      isym = 21     inv. 180 deg rotation - cart. axis [0,1,1]   

 cryst.   s(21) = (    -1          0          0      )
                  (    -1          1          0      )
                  (    -1          0          1      )

 cart.    s(21) = (  1.0000000 -0.0000000  0.0000000 )
                  ( -0.0000000 -0.0000000 -1.0000000 )
                  ( -0.0000000 -1.0000000 -0.0000000 )


      isym = 22     inv. 180 deg rotation - cart. axis [0,1,-1]  

 cryst.   s(22) = (     1          0          0      )
                  (     0          0          1      )
                  (     0          1          0      )

 cart.    s(22) = (  1.0000000  0.0000000 -0.0000000 )
                  ( -0.0000000  0.0000000  1.0000000 )
                  ( -0.0000000  1.0000000  0.0000000 )


      isym = 23     inv.  90 deg rotation - cart. axis [-1,0,0]  

 cryst.   s(23) = (     0          1         -1      )
                  (     0          0         -1      )
                  (     1          0         -1      )

 cart.    s(23) = ( -1.0000000  0.0000000  0.0000000 )
                  (  0.0000000  0.0000000 -1.0000000 )
                  (  0.0000000  1.0000000 -0.0000000 )


      isym = 24     inv.  90 deg rotation - cart. axis [1,0,0]   

 cryst.   s(24) = (     0         -1          1      )
                  (     1         -1          0      )
                  (     0         -1          0      )

 cart.    s(24) = ( -1.0000000 -0.0000000 -0.0000000 )
                  (  0.0000000 -0.0000000  1.0000000 )
                  (  0.0000000 -1.0000000  0.0000000 )


   Cartesian axes

     site n.     atom                  positions (alat units)
         1        Zr     tau(   1) = (   0.3535534   0.3535534   0.3535534  )
         2        V      tau(   2) = (   0.7071068   0.0000000   0.0000000  )
         3        Cr     tau(   3) = (   0.0000000   0.0000000   0.0000000  )
         4        In     tau(   4) = (   0.3535534   0.3535534   1.0606602  )

   Crystallographic axes

     site n.     atom                  positions (cryst. coord.)
         1        Zr     tau(   1) = (  0.2500000  0.2500000  0.2500000  )
         2        V      tau(   2) = ( -0.5000000  0.5000000  0.5000000  )
         3        Cr     tau(   3) = (  0.0000000  0.0000000  0.0000000  )
         4        In     tau(   4) = (  0.7500000  0.7500000 -0.2500000  )

     number of k points=    72  Marzari-Vanderbilt smearing, width (Ry)=  0.0200
                       cart. coord. in units 2pi/alat
        k(    1) = (   0.0000000   0.0000000   0.0000000), wk =   0.0005787
        k(    2) = (   0.0589256   0.0589256  -0.0589256), wk =   0.0046296
        k(    3) = (   0.1178511   0.1178511  -0.1178511), wk =   0.0046296
        k(    4) = (   0.1767767   0.1767767  -0.1767767), wk =   0.0046296
        k(    5) = (   0.2357023   0.2357023  -0.2357023), wk =   0.0046296
        k(    6) = (   0.2946278   0.2946278  -0.2946278), wk =   0.0046296
        k(    7) = (  -0.3535534  -0.3535534   0.3535534), wk =   0.0023148
        k(    8) = (   0.1178511   0.0000000  -0.0000000), wk =   0.0034722
        k(    9) = (   0.1767767   0.0589256  -0.0589256), wk =   0.0138889
        k(   10) = (   0.2357023   0.1178511  -0.1178511), wk =   0.0138889
        k(   11) = (   0.2946278   0.1767767  -0.1767767), wk =   0.0138889
        k(   12) = (   0.3535534   0.2357023  -0.2357023), wk =   0.0138889
        k(   13) = (  -0.2946278  -0.4124790   0.4124790), wk =   0.0138889
        k(   14) = (  -0.2357023  -0.3535534   0.3535534), wk =   0.0138889
        k(   15) = (  -0.1767767  -0.2946278   0.2946278), wk =   0.0138889
        k(   16) = (  -0.1178511  -0.2357023   0.2357023), wk =   0.0138889
        k(   17) = (  -0.0589256  -0.1767767   0.1767767), wk =   0.0138889
        k(   18) = (  -0.0000000  -0.1178511   0.1178511), wk =   0.0069444
        k(   19) = (   0.2357023   0.0000000  -0.0000000), wk =   0.0034722
        k(   20) = (   0.2946278   0.0589256  -0.0589256), wk =   0.0138889
        k(   21) = (   0.3535534   0.1178511  -0.1178511), wk =   0.0138889
        k(   22) = (   0.4124790   0.1767767  -0.1767767), wk =   0.0138889
        k(   23) = (  -0.2357023  -0.4714045   0.4714045), wk =   0.0138889
        k(   24) = (  -0.1767767  -0.4124790   0.4124790), wk =   0.0138889
        k(   25) = (  -0.1178511  -0.3535534   0.3535534), wk =   0.0138889
        k(   26) = (  -0.0589256  -0.2946278   0.2946278), wk =   0.0138889
        k(   27) = (   0.0000000  -0.2357023   0.2357023), wk =   0.0069444
        k(   28) = (   0.3535534   0.0000000   0.0000000), wk =   0.0034722
        k(   29) = (   0.4124790   0.0589256  -0.0589256), wk =   0.0138889
        k(   30) = (   0.4714045   0.1178511  -0.1178511), wk =   0.0138889
        k(   31) = (  -0.1767767  -0.5303301   0.5303301), wk =   0.0138889
        k(   32) = (  -0.1178511  -0.4714045   0.4714045), wk =   0.0138889
        k(   33) = (  -0.0589256  -0.4124790   0.4124790), wk =   0.0138889
        k(   34) = (   0.0000000  -0.3535534   0.3535534), wk =   0.0069444
        k(   35) = (   0.4714045   0.0000000  -0.0000000), wk =   0.0034722
        k(   36) = (   0.5303301   0.0589256  -0.0589256), wk =   0.0138889
        k(   37) = (  -0.1178511  -0.5892557   0.5892557), wk =   0.0138889
        k(   38) = (  -0.0589256  -0.5303301   0.5303301), wk =   0.0138889
        k(   39) = (  -0.0000000  -0.4714045   0.4714045), wk =   0.0069444
        k(   40) = (   0.5892557   0.0000000  -0.0000000), wk =   0.0034722
        k(   41) = (  -0.0589256  -0.6481812   0.6481812), wk =   0.0138889
        k(   42) = (   0.0000000  -0.5892557   0.5892557), wk =   0.0069444
        k(   43) = (  -0.7071068   0.0000000   0.0000000), wk =   0.0017361
        k(   44) = (   0.2357023   0.1178511   0.0000000), wk =   0.0138889
        k(   45) = (   0.2946278   0.1767767  -0.0589256), wk =   0.0277778
        k(   46) = (   0.3535534   0.2357023  -0.1178511), wk =   0.0277778
        k(   47) = (  -0.2946278  -0.4124790   0.5303301), wk =   0.0277778
        k(   48) = (  -0.2357023  -0.3535534   0.4714045), wk =   0.0138889
        k(   49) = (   0.3535534   0.1178511   0.0000000), wk =   0.0138889
        k(   50) = (   0.4124790   0.1767767  -0.0589256), wk =   0.0277778
        k(   51) = (  -0.2357023  -0.4714045   0.5892557), wk =   0.0277778
        k(   52) = (  -0.1767767  -0.4124790   0.5303301), wk =   0.0277778
        k(   53) = (  -0.1178511  -0.3535534   0.4714045), wk =   0.0277778
        k(   54) = (  -0.0589256  -0.2946278   0.4124790), wk =   0.0277778
        k(   55) = (   0.0000000  -0.2357023   0.3535534), wk =   0.0138889
        k(   56) = (   0.4714045   0.1178511  -0.0000000), wk =   0.0138889
        k(   57) = (  -0.1767767  -0.5303301   0.6481812), wk =   0.0277778
        k(   58) = (  -0.1178511  -0.4714045   0.5892557), wk =   0.0277778
        k(   59) = (  -0.0589256  -0.4124790   0.5303301), wk =   0.0277778
        k(   60) = (  -0.0000000  -0.3535534   0.4714045), wk =   0.0138889
        k(   61) = (  -0.1178511  -0.5892557   0.7071068), wk =   0.0138889
        k(   62) = (  -0.0589256  -0.5303301   0.6481812), wk =   0.0277778
        k(   63) = (  -0.0000000  -0.4714045   0.5892557), wk =   0.0138889
        k(   64) = (  -0.7071068   0.1178511  -0.0000000), wk =   0.0069444
        k(   65) = (  -0.2357023  -0.4714045   0.7071068), wk =   0.0138889
        k(   66) = (  -0.1767767  -0.4124790   0.6481812), wk =   0.0277778
        k(   67) = (  -0.1178511  -0.3535534   0.5892557), wk =   0.0138889
        k(   68) = (  -0.1178511  -0.4714045   0.7071068), wk =   0.0138889
        k(   69) = (  -0.0589256  -0.4124790   0.6481812), wk =   0.0277778
        k(   70) = (   0.0000000  -0.3535534   0.5892557), wk =   0.0138889
        k(   71) = (  -0.7071068   0.2357023   0.0000000), wk =   0.0069444
        k(   72) = (  -0.7071068   0.3535534   0.0000000), wk =   0.0034722

                       cryst. coord.
        k(    1) = (   0.0000000   0.0000000   0.0000000), wk =   0.0005787
        k(    2) = (   0.0000000   0.0000000   0.0833333), wk =   0.0046296
        k(    3) = (   0.0000000   0.0000000   0.1666667), wk =   0.0046296
        k(    4) = (   0.0000000   0.0000000   0.2500000), wk =   0.0046296
        k(    5) = (   0.0000000   0.0000000   0.3333333), wk =   0.0046296
        k(    6) = (  -0.0000000  -0.0000000   0.4166667), wk =   0.0046296
        k(    7) = (  -0.0000000  -0.0000000  -0.5000000), wk =   0.0023148
        k(    8) = (  -0.0000000   0.0833333   0.0833333), wk =   0.0034722
        k(    9) = (   0.0000000   0.0833333   0.1666667), wk =   0.0138889
        k(   10) = (  -0.0000000   0.0833333   0.2500000), wk =   0.0138889
        k(   11) = (   0.0000000   0.0833333   0.3333333), wk =   0.0138889
        k(   12) = (  -0.0000000   0.0833333   0.4166667), wk =   0.0138889
        k(   13) = (  -0.0000000   0.0833333  -0.5000000), wk =   0.0138889
        k(   14) = (  -0.0000000   0.0833333  -0.4166667), wk =   0.0138889
        k(   15) = (  -0.0000000   0.0833333  -0.3333333), wk =   0.0138889
        k(   16) = (  -0.0000000   0.0833333  -0.2500000), wk =   0.0138889
        k(   17) = (  -0.0000000   0.0833333  -0.1666667), wk =   0.0138889
        k(   18) = (   0.0000000   0.0833333  -0.0833333), wk =   0.0069444
        k(   19) = (  -0.0000000   0.1666667   0.1666667), wk =   0.0034722
        k(   20) = (  -0.0000000   0.1666667   0.2500000), wk =   0.0138889
        k(   21) = (   0.0000000   0.1666667   0.3333333), wk =   0.0138889
        k(   22) = (  -0.0000000   0.1666667   0.4166667), wk =   0.0138889
        k(   23) = (  -0.0000000   0.1666667  -0.5000000), wk =   0.0138889
        k(   24) = (  -0.0000000   0.1666667  -0.4166667), wk =   0.0138889
        k(   25) = (  -0.0000000   0.1666667  -0.3333333), wk =   0.0138889
        k(   26) = (   0.0000000   0.1666667  -0.2500000), wk =   0.0138889
        k(   27) = (  -0.0000000   0.1666667  -0.1666667), wk =   0.0069444
        k(   28) = (   0.0000000   0.2500000   0.2500000), wk =   0.0034722
        k(   29) = (   0.0000000   0.2500000   0.3333333), wk =   0.0138889
        k(   30) = (  -0.0000000   0.2500000   0.4166667), wk =   0.0138889
        k(   31) = (   0.0000000   0.2500000  -0.5000000), wk =   0.0138889
        k(   32) = (  -0.0000000   0.2500000  -0.4166667), wk =   0.0138889
        k(   33) = (  -0.0000000   0.2500000  -0.3333333), wk =   0.0138889
        k(   34) = (  -0.0000000   0.2500000  -0.2500000), wk =   0.0069444
        k(   35) = (  -0.0000000   0.3333333   0.3333333), wk =   0.0034722
        k(   36) = (  -0.0000000   0.3333333   0.4166667), wk =   0.0138889
        k(   37) = (   0.0000000   0.3333333  -0.5000000), wk =   0.0138889
        k(   38) = (  -0.0000000   0.3333333  -0.4166667), wk =   0.0138889
        k(   39) = (   0.0000000   0.3333333  -0.3333333), wk =   0.0069444
        k(   40) = (   0.0000000   0.4166667   0.4166667), wk =   0.0034722
        k(   41) = (  -0.0000000   0.4166667  -0.5000000), wk =   0.0138889
        k(   42) = (   0.0000000   0.4166667  -0.4166667), wk =   0.0069444
        k(   43) = (   0.0000000  -0.5000000  -0.5000000), wk =   0.0017361
        k(   44) = (   0.0833333   0.1666667   0.2500000), wk =   0.0138889
        k(   45) = (   0.0833333   0.1666667   0.3333333), wk =   0.0277778
        k(   46) = (   0.0833333   0.1666667   0.4166667), wk =   0.0277778
        k(   47) = (   0.0833333   0.1666667  -0.5000000), wk =   0.0277778
        k(   48) = (   0.0833333   0.1666667  -0.4166667), wk =   0.0138889
        k(   49) = (   0.0833333   0.2500000   0.3333333), wk =   0.0138889
        k(   50) = (   0.0833333   0.2500000   0.4166667), wk =   0.0277778
        k(   51) = (   0.0833333   0.2500000  -0.5000000), wk =   0.0277778
        k(   52) = (   0.0833333   0.2500000  -0.4166667), wk =   0.0277778
        k(   53) = (   0.0833333   0.2500000  -0.3333333), wk =   0.0277778
        k(   54) = (   0.0833333   0.2500000  -0.2500000), wk =   0.0277778
        k(   55) = (   0.0833333   0.2500000  -0.1666667), wk =   0.0138889
        k(   56) = (   0.0833333   0.3333333   0.4166667), wk =   0.0138889
        k(   57) = (   0.0833333   0.3333333  -0.5000000), wk =   0.0277778
        k(   58) = (   0.0833333   0.3333333  -0.4166667), wk =   0.0277778
        k(   59) = (   0.0833333   0.3333333  -0.3333333), wk =   0.0277778
        k(   60) = (   0.0833333   0.3333333  -0.2500000), wk =   0.0138889
        k(   61) = (   0.0833333   0.4166667  -0.5000000), wk =   0.0138889
        k(   62) = (   0.0833333   0.4166667  -0.4166667), wk =   0.0277778
        k(   63) = (   0.0833333   0.4166667  -0.3333333), wk =   0.0138889
        k(   64) = (   0.0833333  -0.5000000  -0.4166667), wk =   0.0069444
        k(   65) = (   0.1666667   0.3333333  -0.5000000), wk =   0.0138889
        k(   66) = (   0.1666667   0.3333333  -0.4166667), wk =   0.0277778
        k(   67) = (   0.1666667   0.3333333  -0.3333333), wk =   0.0138889
        k(   68) = (   0.1666667   0.4166667  -0.4166667), wk =   0.0138889
        k(   69) = (   0.1666667   0.4166667  -0.3333333), wk =   0.0277778
        k(   70) = (   0.1666667   0.4166667  -0.2500000), wk =   0.0138889
        k(   71) = (   0.1666667  -0.5000000  -0.3333333), wk =   0.0069444
        k(   72) = (   0.2500000  -0.5000000  -0.2500000), wk =   0.0034722

     Dense  grid:    60375 G-vectors     FFT dimensions: (  60,  60,  60)

     Smooth grid:    21331 G-vectors     FFT dimensions: (  40,  40,  40)

     Dynamical RAM for                 wfc:       0.16 MB

     Dynamical RAM for     wfc (w. buffer):       3.47 MB

     Dynamical RAM for           str. fact:       0.46 MB

     Dynamical RAM for           local pot:       0.00 MB

     Dynamical RAM for          nlocal pot:       0.37 MB

     Dynamical RAM for                qrad:       6.42 MB

     Dynamical RAM for          rho,v,vnew:       2.01 MB

     Dynamical RAM for               rhoin:       0.67 MB

     Dynamical RAM for            rho*nmix:       3.69 MB

     Dynamical RAM for           G-vectors:       0.45 MB

     Dynamical RAM for          h,s,v(r/c):       0.18 MB

     Dynamical RAM for          <psi|beta>:       0.03 MB

     Dynamical RAM for                 psi:       0.32 MB

     Dynamical RAM for                hpsi:       0.32 MB

     Dynamical RAM for                spsi:       0.32 MB

     Dynamical RAM for      wfcinit/wfcrot:       0.47 MB

     Dynamical RAM for           addusdens:       3.29 MB

     Dynamical RAM for          addusforce:       3.20 MB

     Dynamical RAM for         addusstress:       3.43 MB

     Estimated static dynamical RAM per process >      15.74 MB

     Estimated max dynamical RAM per process >      22.85 MB

     Estimated total dynamical RAM >       1.08 GB

     Check: negative core charge=   -0.000002
     Generating pointlists ...
     new r_m :   0.2526 (alat units)  2.1670 (a.u.) for type    1
     new r_m :   0.2526 (alat units)  2.1670 (a.u.) for type    2
     new r_m :   0.2526 (alat units)  2.1670 (a.u.) for type    3
     new r_m :   0.2526 (alat units)  2.1670 (a.u.) for type    4

     Initial potential from superposition of free atoms

     starting charge      50.9935, renormalised to      52.0000

     negative rho (up, down):  4.462E-02 1.832E-02
     Starting wfcs are   42 randomized atomic wfcs

     total cpu time spent up to now is        2.1 secs

     per-process dynamical memory:    27.6 Mb

     Self-consistent Calculation

     iteration #  1     ecut=    50.00 Ry     beta= 0.40
     Davidson diagonalization with overlap

---- Real-time Memory Report at c_bands before calling an iterative solver
            63 MiB given to the printing process from OS
            27 MiB allocation reported by mallinfo(arena+hblkhd)
        488400 MiB available memory on the node where the printing process lives
------------------
     ethr =  1.00E-02,  avg # of iterations =  2.0

     negative rho (up, down):  3.878E-02 2.354E-02

     total cpu time spent up to now is        2.7 secs

     total energy              =    -562.78741394 Ry
     estimated scf accuracy    <       2.23125605 Ry

     total magnetization       =     6.66 Bohr mag/cell
     absolute magnetization    =     6.73 Bohr mag/cell

     iteration #  2     ecut=    50.00 Ry     beta= 0.40
     Davidson diagonalization with overlap

---- Real-time Memory Report at c_bands before calling an iterative solver
            72 MiB given to the printing process from OS
            34 MiB allocation reported by mallinfo(arena+hblkhd)
        488034 MiB available memory on the node where the printing process lives
------------------
     ethr =  4.29E-03,  avg # of iterations =  6.9

     negative rho (up, down):  3.818E-02 2.395E-02

     total cpu time spent up to now is        3.7 secs

     total energy              =    -562.14443449 Ry
     estimated scf accuracy    <      22.43607567 Ry

     total magnetization       =     0.84 Bohr mag/cell
     absolute magnetization    =     1.32 Bohr mag/cell

     iteration #  3     ecut=    50.00 Ry     beta= 0.40
     Davidson diagonalization with overlap

---- Real-time Memory Report at c_bands before calling an iterative solver
            72 MiB given to the printing process from OS
            34 MiB allocation reported by mallinfo(arena+hblkhd)
        488021 MiB available memory on the node where the printing process lives
------------------
     ethr =  4.29E-03,  avg # of iterations =  4.6

     negative rho (up, down):  3.681E-02 2.610E-02

     total cpu time spent up to now is        4.5 secs

     total energy              =    -563.57409422 Ry
     estimated scf accuracy    <       0.73806792 Ry

     total magnetization       =     5.37 Bohr mag/cell
     absolute magnetization    =     5.51 Bohr mag/cell

     iteration #  4     ecut=    50.00 Ry     beta= 0.40
     Davidson diagonalization with overlap

---- Real-time Memory Report at c_bands before calling an iterative solver
            73 MiB given to the printing process from OS
            34 MiB allocation reported by mallinfo(arena+hblkhd)
        488019 MiB available memory on the node where the printing process lives
------------------
     ethr =  1.42E-03,  avg # of iterations =  4.9

     negative rho (up, down):  3.311E-02 3.221E-02

     total cpu time spent up to now is        5.3 secs

     total energy              =    -563.76522535 Ry
     estimated scf accuracy    <       0.31726488 Ry

     total magnetization       =     6.15 Bohr mag/cell
     absolute magnetization    =     6.26 Bohr mag/cell

     iteration #  5     ecut=    50.00 Ry     beta= 0.40
     Davidson diagonalization with overlap

---- Real-time Memory Report at c_bands before calling an iterative solver
            73 MiB given to the printing process from OS
            34 MiB allocation reported by mallinfo(arena+hblkhd)
        488017 MiB available memory on the node where the printing process lives
------------------
     ethr =  6.10E-04,  avg # of iterations =  1.7

     negative rho (up, down):  3.182E-02 3.460E-02

     total cpu time spent up to now is        5.9 secs

     total energy              =    -563.80535199 Ry
     estimated scf accuracy    <       0.03011382 Ry

     total magnetization       =     5.43 Bohr mag/cell
     absolute magnetization    =     5.55 Bohr mag/cell

     iteration #  6     ecut=    50.00 Ry     beta= 0.40
     Davidson diagonalization with overlap

---- Real-time Memory Report at c_bands before calling an iterative solver
            73 MiB given to the printing process from OS
            34 MiB allocation reported by mallinfo(arena+hblkhd)
        488015 MiB available memory on the node where the printing process lives
------------------
     ethr =  5.79E-05,  avg # of iterations =  6.1

     negative rho (up, down):  3.095E-02 3.560E-02

     total cpu time spent up to now is        6.8 secs

     total energy              =    -563.81780175 Ry
     estimated scf accuracy    <       0.00977561 Ry

     total magnetization       =     4.66 Bohr mag/cell
     absolute magnetization    =     4.83 Bohr mag/cell

     iteration #  7     ecut=    50.00 Ry     beta= 0.40
     Davidson diagonalization with overlap

---- Real-time Memory Report at c_bands before calling an iterative solver
            73 MiB given to the printing process from OS
            35 MiB allocation reported by mallinfo(arena+hblkhd)
        488011 MiB available memory on the node where the printing process lives
------------------
     ethr =  1.88E-05,  avg # of iterations =  5.3

     negative rho (up, down):  3.100E-02 3.504E-02

     total cpu time spent up to now is        7.6 secs

     total energy              =    -563.82315285 Ry
     estimated scf accuracy    <       0.00444726 Ry

     total magnetization       =     4.06 Bohr mag/cell
     absolute magnetization    =     4.28 Bohr mag/cell

     iteration #  8     ecut=    50.00 Ry     beta= 0.40
     Davidson diagonalization with overlap

---- Real-time Memory Report at c_bands before calling an iterative solver
            73 MiB given to the printing process from OS
            35 MiB allocation reported by mallinfo(arena+hblkhd)
        488007 MiB available memory on the node where the printing process lives
------------------
     ethr =  8.55E-06,  avg # of iterations =  5.1

     negative rho (up, down):  3.102E-02 3.316E-02

     total cpu time spent up to now is        8.5 secs

     total energy              =    -563.82114110 Ry
     estimated scf accuracy    <       0.01720253 Ry

     total magnetization       =     3.57 Bohr mag/cell
     absolute magnetization    =     3.87 Bohr mag/cell

     iteration #  9     ecut=    50.00 Ry     beta= 0.40
     Davidson diagonalization with overlap

---- Real-time Memory Report at c_bands before calling an iterative solver
            74 MiB given to the printing process from OS
            35 MiB allocation reported by mallinfo(arena+hblkhd)
        487997 MiB available memory on the node where the printing process lives
------------------
     ethr =  8.55E-06,  avg # of iterations =  7.4

     negative rho (up, down):  3.108E-02 3.269E-02

     total cpu time spent up to now is        9.7 secs

     total energy              =    -563.83369548 Ry
     estimated scf accuracy    <       0.01612030 Ry

     total magnetization       =     2.85 Bohr mag/cell
     absolute magnetization    =     3.26 Bohr mag/cell

     iteration # 10     ecut=    50.00 Ry     beta= 0.40
     Davidson diagonalization with overlap

---- Real-time Memory Report at c_bands before calling an iterative solver
            74 MiB given to the printing process from OS
            35 MiB allocation reported by mallinfo(arena+hblkhd)
        487993 MiB available memory on the node where the printing process lives
------------------
     ethr =  8.55E-06,  avg # of iterations =  2.6

     negative rho (up, down):  3.109E-02 3.584E-02

     total cpu time spent up to now is       10.3 secs

     total energy              =    -563.78404705 Ry
     estimated scf accuracy    <       0.01707756 Ry

     total magnetization       =     2.52 Bohr mag/cell
     absolute magnetization    =     3.04 Bohr mag/cell

     iteration # 11     ecut=    50.00 Ry     beta= 0.40
     Davidson diagonalization with overlap

---- Real-time Memory Report at c_bands before calling an iterative solver
            74 MiB given to the printing process from OS
            35 MiB allocation reported by mallinfo(arena+hblkhd)
        487992 MiB available memory on the node where the printing process lives
------------------
     ethr =  8.55E-06,  avg # of iterations =  8.2

     negative rho (up, down):  3.130E-02 3.211E-02

     total cpu time spent up to now is       11.6 secs

     total energy              =    -563.77178020 Ry
     estimated scf accuracy    <       0.05600649 Ry

     total magnetization       =     4.25 Bohr mag/cell
     absolute magnetization    =     4.48 Bohr mag/cell

     iteration # 12     ecut=    50.00 Ry     beta= 0.40
     Davidson diagonalization with overlap

---- Real-time Memory Report at c_bands before calling an iterative solver
            74 MiB given to the printing process from OS
            35 MiB allocation reported by mallinfo(arena+hblkhd)
        487987 MiB available memory on the node where the printing process lives
------------------
     ethr =  8.55E-06,  avg # of iterations =  9.9

     negative rho (up, down):  3.121E-02 3.248E-02

     total cpu time spent up to now is       13.1 secs

     total energy              =    -563.82217423 Ry
     estimated scf accuracy    <       0.06722841 Ry

     total magnetization       =     1.61 Bohr mag/cell
     absolute magnetization    =     2.66 Bohr mag/cell

     iteration # 13     ecut=    50.00 Ry     beta= 0.40
     Davidson diagonalization with overlap

---- Real-time Memory Report at c_bands before calling an iterative solver
            74 MiB given to the printing process from OS
            35 MiB allocation reported by mallinfo(arena+hblkhd)
        487985 MiB available memory on the node where the printing process lives
------------------
     ethr =  8.55E-06,  avg # of iterations =  4.7

     negative rho (up, down):  3.120E-02 3.281E-02

     total cpu time spent up to now is       14.1 secs

     total energy              =    -563.83167133 Ry
     estimated scf accuracy    <       0.01201290 Ry

     total magnetization       =     2.53 Bohr mag/cell
     absolute magnetization    =     3.01 Bohr mag/cell

     iteration # 14     ecut=    50.00 Ry     beta= 0.40
     Davidson diagonalization with overlap

---- Real-time Memory Report at c_bands before calling an iterative solver
            74 MiB given to the printing process from OS
            35 MiB allocation reported by mallinfo(arena+hblkhd)
        487982 MiB available memory on the node where the printing process lives
------------------
     ethr =  8.55E-06,  avg # of iterations =  2.2

     negative rho (up, down):  3.122E-02 3.268E-02

     total cpu time spent up to now is       14.7 secs

     total energy              =    -563.83167163 Ry
     estimated scf accuracy    <       0.00932676 Ry

     total magnetization       =     2.74 Bohr mag/cell
     absolute magnetization    =     3.17 Bohr mag/cell

     iteration # 15     ecut=    50.00 Ry     beta= 0.40
     Davidson diagonalization with overlap

---- Real-time Memory Report at c_bands before calling an iterative solver
            74 MiB given to the printing process from OS
            35 MiB allocation reported by mallinfo(arena+hblkhd)
        487981 MiB available memory on the node where the printing process lives
------------------
     ethr =  8.55E-06,  avg # of iterations =  1.4

     negative rho (up, down):  3.125E-02 3.308E-02

     total cpu time spent up to now is       15.2 secs

     total energy              =    -563.82732909 Ry
     estimated scf accuracy    <       0.00768251 Ry

     total magnetization       =     2.63 Bohr mag/cell
     absolute magnetization    =     3.09 Bohr mag/cell

     iteration # 16     ecut=    50.00 Ry     beta= 0.40
     Davidson diagonalization with overlap

---- Real-time Memory Report at c_bands before calling an iterative solver
            74 MiB given to the printing process from OS
            35 MiB allocation reported by mallinfo(arena+hblkhd)
        487979 MiB available memory on the node where the printing process lives
------------------
     ethr =  8.55E-06,  avg # of iterations =  4.5

     negative rho (up, down):  3.122E-02 3.304E-02

     total cpu time spent up to now is       16.1 secs

     total energy              =    -563.82945245 Ry
     estimated scf accuracy    <       0.00468043 Ry

     total magnetization       =     2.95 Bohr mag/cell
     absolute magnetization    =     3.36 Bohr mag/cell

     iteration # 17     ecut=    50.00 Ry     beta= 0.40
     Davidson diagonalization with overlap

---- Real-time Memory Report at c_bands before calling an iterative solver
            74 MiB given to the printing process from OS
            35 MiB allocation reported by mallinfo(arena+hblkhd)
        487977 MiB available memory on the node where the printing process lives
------------------
     ethr =  8.55E-06,  avg # of iterations =  1.0

     negative rho (up, down):  3.131E-02 3.282E-02

     total cpu time spent up to now is       16.6 secs

     total energy              =    -563.83039711 Ry
     estimated scf accuracy    <       0.00404970 Ry

     total magnetization       =     2.95 Bohr mag/cell
     absolute magnetization    =     3.36 Bohr mag/cell

     iteration # 18     ecut=    50.00 Ry     beta= 0.40
     Davidson diagonalization with overlap

---- Real-time Memory Report at c_bands before calling an iterative solver
            74 MiB given to the printing process from OS
            35 MiB allocation reported by mallinfo(arena+hblkhd)
        487976 MiB available memory on the node where the printing process lives
------------------
     ethr =  7.79E-06,  avg # of iterations =  1.4

     negative rho (up, down):  3.122E-02 3.320E-02

     total cpu time spent up to now is       17.2 secs

     total energy              =    -563.82881274 Ry
     estimated scf accuracy    <       0.00796276 Ry

     total magnetization       =     2.75 Bohr mag/cell
     absolute magnetization    =     3.20 Bohr mag/cell

     iteration # 19     ecut=    50.00 Ry     beta= 0.40
     Davidson diagonalization with overlap

---- Real-time Memory Report at c_bands before calling an iterative solver
            75 MiB given to the printing process from OS
            35 MiB allocation reported by mallinfo(arena+hblkhd)
        487975 MiB available memory on the node where the printing process lives
------------------
     ethr =  7.79E-06,  avg # of iterations =  1.2

     negative rho (up, down):  3.125E-02 3.380E-02

     total cpu time spent up to now is       17.7 secs

     total energy              =    -563.82396807 Ry
     estimated scf accuracy    <       0.00308862 Ry

     total magnetization       =     3.04 Bohr mag/cell
     absolute magnetization    =     3.40 Bohr mag/cell

     iteration # 20     ecut=    50.00 Ry     beta= 0.40
     Davidson diagonalization with overlap

---- Real-time Memory Report at c_bands before calling an iterative solver
            75 MiB given to the printing process from OS
            35 MiB allocation reported by mallinfo(arena+hblkhd)
        487974 MiB available memory on the node where the printing process lives
------------------
     ethr =  5.94E-06,  avg # of iterations =  4.1

     negative rho (up, down):  3.126E-02 3.264E-02

     total cpu time spent up to now is       18.6 secs

     total energy              =    -563.82347253 Ry
     estimated scf accuracy    <       0.00428766 Ry

     total magnetization       =     3.35 Bohr mag/cell
     absolute magnetization    =     3.66 Bohr mag/cell

     iteration # 21     ecut=    50.00 Ry     beta= 0.40
     Davidson diagonalization with overlap

---- Real-time Memory Report at c_bands before calling an iterative solver
            75 MiB given to the printing process from OS
            35 MiB allocation reported by mallinfo(arena+hblkhd)
        487973 MiB available memory on the node where the printing process lives
------------------
     ethr =  5.94E-06,  avg # of iterations =  6.4

     negative rho (up, down):  3.126E-02 3.239E-02

     total cpu time spent up to now is       19.7 secs

     total energy              =    -563.83345752 Ry
     estimated scf accuracy    <       0.00199332 Ry

     total magnetization       =     2.56 Bohr mag/cell
     absolute magnetization    =     3.04 Bohr mag/cell

     iteration # 22     ecut=    50.00 Ry     beta= 0.40
     Davidson diagonalization with overlap

---- Real-time Memory Report at c_bands before calling an iterative solver
            75 MiB given to the printing process from OS
            35 MiB allocation reported by mallinfo(arena+hblkhd)
        487969 MiB available memory on the node where the printing process lives
------------------
     ethr =  3.83E-06,  avg # of iterations =  6.6

     negative rho (up, down):  3.127E-02 3.264E-02

     total cpu time spent up to now is       20.7 secs

     total energy              =    -563.82717031 Ry
     estimated scf accuracy    <       0.00408317 Ry

     total magnetization       =     1.99 Bohr mag/cell
     absolute magnetization    =     2.71 Bohr mag/cell

     iteration # 23     ecut=    50.00 Ry     beta= 0.40
     Davidson diagonalization with overlap

---- Real-time Memory Report at c_bands before calling an iterative solver
            75 MiB given to the printing process from OS
            35 MiB allocation reported by mallinfo(arena+hblkhd)
        487968 MiB available memory on the node where the printing process lives
------------------
     ethr =  3.83E-06,  avg # of iterations =  5.6

     negative rho (up, down):  3.127E-02 3.291E-02

     total cpu time spent up to now is       21.6 secs

     total energy              =    -563.82955792 Ry
     estimated scf accuracy    <       0.00228218 Ry

     total magnetization       =     2.61 Bohr mag/cell
     absolute magnetization    =     3.06 Bohr mag/cell

     iteration # 24     ecut=    50.00 Ry     beta= 0.40
     Davidson diagonalization with overlap

---- Real-time Memory Report at c_bands before calling an iterative solver
            75 MiB given to the printing process from OS
            35 MiB allocation reported by mallinfo(arena+hblkhd)
        487968 MiB available memory on the node where the printing process lives
------------------
     ethr =  3.83E-06,  avg # of iterations =  3.8

     negative rho (up, down):  3.125E-02 3.301E-02

     total cpu time spent up to now is       22.4 secs

     total energy              =    -563.83036979 Ry
     estimated scf accuracy    <       0.00218451 Ry

     total magnetization       =     2.86 Bohr mag/cell
     absolute magnetization    =     3.24 Bohr mag/cell

     iteration # 25     ecut=    50.00 Ry     beta= 0.40
     Davidson diagonalization with overlap

---- Real-time Memory Report at c_bands before calling an iterative solver
            75 MiB given to the printing process from OS
            35 MiB allocation reported by mallinfo(arena+hblkhd)
        487968 MiB available memory on the node where the printing process lives
------------------
     ethr =  3.83E-06,  avg # of iterations =  1.1

     negative rho (up, down):  3.125E-02 3.300E-02

     total cpu time spent up to now is       22.9 secs

     total energy              =    -563.83054128 Ry
     estimated scf accuracy    <       0.00206887 Ry

     total magnetization       =     2.89 Bohr mag/cell
     absolute magnetization    =     3.27 Bohr mag/cell

     iteration # 26     ecut=    50.00 Ry     beta= 0.40
     Davidson diagonalization with overlap

---- Real-time Memory Report at c_bands before calling an iterative solver
            75 MiB given to the printing process from OS
            35 MiB allocation reported by mallinfo(arena+hblkhd)
        487968 MiB available memory on the node where the printing process lives
------------------
     ethr =  3.83E-06,  avg # of iterations =  1.0

     negative rho (up, down):  3.124E-02 3.259E-02

     total cpu time spent up to now is       23.4 secs

     total energy              =    -563.83124687 Ry
     estimated scf accuracy    <       0.00190531 Ry

     total magnetization       =     2.86 Bohr mag/cell
     absolute magnetization    =     3.25 Bohr mag/cell

     iteration # 27     ecut=    50.00 Ry     beta= 0.40
     Davidson diagonalization with overlap

---- Real-time Memory Report at c_bands before calling an iterative solver
            75 MiB given to the printing process from OS
            35 MiB allocation reported by mallinfo(arena+hblkhd)
        487967 MiB available memory on the node where the printing process lives
------------------
     ethr =  3.66E-06,  avg # of iterations =  3.8

     negative rho (up, down):  3.125E-02 3.247E-02

     total cpu time spent up to now is       24.2 secs

     total energy              =    -563.83475595 Ry
     estimated scf accuracy    <       0.00188521 Ry

     total magnetization       =     2.41 Bohr mag/cell
     absolute magnetization    =     2.94 Bohr mag/cell

     iteration # 28     ecut=    50.00 Ry     beta= 0.40
     Davidson diagonalization with overlap

---- Real-time Memory Report at c_bands before calling an iterative solver
            75 MiB given to the printing process from OS
            35 MiB allocation reported by mallinfo(arena+hblkhd)
        487967 MiB available memory on the node where the printing process lives
------------------
     ethr =  3.63E-06,  avg # of iterations =  3.3

     negative rho (up, down):  3.125E-02 3.248E-02

     total cpu time spent up to now is       25.0 secs

     total energy              =    -563.83619407 Ry
     estimated scf accuracy    <       0.00246245 Ry

     total magnetization       =     2.18 Bohr mag/cell
     absolute magnetization    =     2.80 Bohr mag/cell

     iteration # 29     ecut=    50.00 Ry     beta= 0.40
     Davidson diagonalization with overlap

---- Real-time Memory Report at c_bands before calling an iterative solver
            75 MiB given to the printing process from OS
            35 MiB allocation reported by mallinfo(arena+hblkhd)
        487962 MiB available memory on the node where the printing process lives
------------------
     ethr =  3.63E-06,  avg # of iterations =  1.8

     negative rho (up, down):  3.125E-02 3.284E-02

     total cpu time spent up to now is       25.5 secs

     total energy              =    -563.82625613 Ry
     estimated scf accuracy    <       0.00317913 Ry

     total magnetization       =     2.09 Bohr mag/cell
     absolute magnetization    =     2.76 Bohr mag/cell

     iteration # 30     ecut=    50.00 Ry     beta= 0.40
     Davidson diagonalization with overlap

---- Real-time Memory Report at c_bands before calling an iterative solver
            75 MiB given to the printing process from OS
            35 MiB allocation reported by mallinfo(arena+hblkhd)
        487962 MiB available memory on the node where the printing process lives
------------------
     ethr =  3.63E-06,  avg # of iterations =  4.9

     negative rho (up, down):  3.119E-02 3.355E-02

     total cpu time spent up to now is       26.5 secs

     total energy              =    -563.81923816 Ry
     estimated scf accuracy    <       0.00212233 Ry

     total magnetization       =     2.73 Bohr mag/cell
     absolute magnetization    =     3.16 Bohr mag/cell

     iteration # 31     ecut=    50.00 Ry     beta= 0.40
     Davidson diagonalization with overlap

---- Real-time Memory Report at c_bands before calling an iterative solver
            75 MiB given to the printing process from OS
            35 MiB allocation reported by mallinfo(arena+hblkhd)
        487962 MiB available memory on the node where the printing process lives
------------------
     ethr =  3.63E-06,  avg # of iterations =  7.8

     negative rho (up, down):  3.119E-02 3.358E-02

     total cpu time spent up to now is       27.6 secs

     total energy              =    -563.82593387 Ry
     estimated scf accuracy    <       0.00407797 Ry

     total magnetization       =     3.36 Bohr mag/cell
     absolute magnetization    =     3.65 Bohr mag/cell

     iteration # 32     ecut=    50.00 Ry     beta= 0.40
     Davidson diagonalization with overlap

---- Real-time Memory Report at c_bands before calling an iterative solver
            75 MiB given to the printing process from OS
            35 MiB allocation reported by mallinfo(arena+hblkhd)
        487961 MiB available memory on the node where the printing process lives
------------------
     ethr =  3.63E-06,  avg # of iterations =  1.0

     negative rho (up, down):  3.119E-02 3.371E-02

     total cpu time spent up to now is       28.1 secs

     total energy              =    -563.82441336 Ry
     estimated scf accuracy    <       0.00453318 Ry

     total magnetization       =     3.37 Bohr mag/cell
     absolute magnetization    =     3.65 Bohr mag/cell

     iteration # 33     ecut=    50.00 Ry     beta= 0.40
     Davidson diagonalization with overlap

---- Real-time Memory Report at c_bands before calling an iterative solver
            75 MiB given to the printing process from OS
            35 MiB allocation reported by mallinfo(arena+hblkhd)
        487960 MiB available memory on the node where the printing process lives
------------------
     ethr =  3.63E-06,  avg # of iterations =  1.5

     negative rho (up, down):  3.119E-02 3.359E-02

     total cpu time spent up to now is       28.7 secs

     total energy              =    -563.82560947 Ry
     estimated scf accuracy    <       0.00522230 Ry

     total magnetization       =     3.50 Bohr mag/cell
     absolute magnetization    =     3.76 Bohr mag/cell

     iteration # 34     ecut=    50.00 Ry     beta= 0.40
     Davidson diagonalization with overlap

---- Real-time Memory Report at c_bands before calling an iterative solver
            75 MiB given to the printing process from OS
            35 MiB allocation reported by mallinfo(arena+hblkhd)
        487960 MiB available memory on the node where the printing process lives
------------------
     ethr =  3.63E-06,  avg # of iterations =  1.0

     negative rho (up, down):  3.121E-02 3.327E-02

     total cpu time spent up to now is       29.2 secs

     total energy              =    -563.82719930 Ry
     estimated scf accuracy    <       0.00420216 Ry

     total magnetization       =     3.40 Bohr mag/cell
     absolute magnetization    =     3.69 Bohr mag/cell

     iteration # 35     ecut=    50.00 Ry     beta= 0.40
     Davidson diagonalization with overlap

---- Real-time Memory Report at c_bands before calling an iterative solver
            75 MiB given to the printing process from OS
            35 MiB allocation reported by mallinfo(arena+hblkhd)
        487959 MiB available memory on the node where the printing process lives
------------------
     ethr =  3.63E-06,  avg # of iterations =  3.3

     negative rho (up, down):  3.124E-02 3.258E-02

     total cpu time spent up to now is       30.0 secs

     total energy              =    -563.82701830 Ry
     estimated scf accuracy    <       0.00253719 Ry

     total magnetization       =     3.12 Bohr mag/cell
     absolute magnetization    =     3.46 Bohr mag/cell

     iteration # 36     ecut=    50.00 Ry     beta= 0.40
     Davidson diagonalization with overlap

---- Real-time Memory Report at c_bands before calling an iterative solver
            75 MiB given to the printing process from OS
            35 MiB allocation reported by mallinfo(arena+hblkhd)
        487959 MiB available memory on the node where the printing process lives
------------------
     ethr =  3.63E-06,  avg # of iterations =  7.8

     negative rho (up, down):  3.123E-02 3.264E-02

     total cpu time spent up to now is       31.2 secs

     total energy              =    -563.83304947 Ry
     estimated scf accuracy    <       0.00188935 Ry

     total magnetization       =     2.43 Bohr mag/cell
     absolute magnetization    =     2.94 Bohr mag/cell

     iteration # 37     ecut=    50.00 Ry     beta= 0.40
     Davidson diagonalization with overlap

---- Real-time Memory Report at c_bands before calling an iterative solver
            75 MiB given to the printing process from OS
            35 MiB allocation reported by mallinfo(arena+hblkhd)
        487959 MiB available memory on the node where the printing process lives
------------------
     ethr =  3.63E-06,  avg # of iterations =  1.0

     negative rho (up, down):  3.124E-02 3.281E-02

     total cpu time spent up to now is       31.7 secs

     total energy              =    -563.83108752 Ry
     estimated scf accuracy    <       0.00189763 Ry

     total magnetization       =     2.49 Bohr mag/cell
     absolute magnetization    =     2.98 Bohr mag/cell

     iteration # 38     ecut=    50.00 Ry     beta= 0.40
     Davidson diagonalization with overlap

---- Real-time Memory Report at c_bands before calling an iterative solver
            75 MiB given to the printing process from OS
            35 MiB allocation reported by mallinfo(arena+hblkhd)
        487958 MiB available memory on the node where the printing process lives
------------------
     ethr =  3.63E-06,  avg # of iterations =  1.9

     negative rho (up, down):  3.124E-02 3.265E-02

     total cpu time spent up to now is       32.3 secs

     total energy              =    -563.83246979 Ry
     estimated scf accuracy    <       0.00189435 Ry

     total magnetization       =     2.69 Bohr mag/cell
     absolute magnetization    =     3.11 Bohr mag/cell

     iteration # 39     ecut=    50.00 Ry     beta= 0.40
     Davidson diagonalization with overlap

---- Real-time Memory Report at c_bands before calling an iterative solver
            75 MiB given to the printing process from OS
            35 MiB allocation reported by mallinfo(arena+hblkhd)
        487958 MiB available memory on the node where the printing process lives
------------------
     ethr =  3.63E-06,  avg # of iterations =  1.0

     negative rho (up, down):  3.127E-02 3.248E-02

     total cpu time spent up to now is       32.8 secs

     total energy              =    -563.83189702 Ry
     estimated scf accuracy    <       0.00163389 Ry

     total magnetization       =     2.52 Bohr mag/cell
     absolute magnetization    =     3.00 Bohr mag/cell

     iteration # 40     ecut=    50.00 Ry     beta= 0.40
     Davidson diagonalization with overlap

---- Real-time Memory Report at c_bands before calling an iterative solver
            75 MiB given to the printing process from OS
            35 MiB allocation reported by mallinfo(arena+hblkhd)
        487957 MiB available memory on the node where the printing process lives
------------------
     ethr =  3.14E-06,  avg # of iterations =  7.3

     negative rho (up, down):  3.120E-02 3.345E-02

     total cpu time spent up to now is       33.9 secs

     total energy              =    -563.79140995 Ry
     estimated scf accuracy    <       0.00535495 Ry

     total magnetization       =     1.77 Bohr mag/cell
     absolute magnetization    =     2.64 Bohr mag/cell

     iteration # 41     ecut=    50.00 Ry     beta= 0.40
     Davidson diagonalization with overlap

---- Real-time Memory Report at c_bands before calling an iterative solver
            75 MiB given to the printing process from OS
            35 MiB allocation reported by mallinfo(arena+hblkhd)
        487956 MiB available memory on the node where the printing process lives
------------------
     ethr =  3.14E-06,  avg # of iterations =  9.9

     negative rho (up, down):  3.119E-02 3.368E-02

     total cpu time spent up to now is       35.3 secs

     total energy              =    -563.82404159 Ry
     estimated scf accuracy    <       0.00326525 Ry

     total magnetization       =     3.29 Bohr mag/cell
     absolute magnetization    =     3.58 Bohr mag/cell

     iteration # 42     ecut=    50.00 Ry     beta= 0.40
     Davidson diagonalization with overlap

---- Real-time Memory Report at c_bands before calling an iterative solver
            75 MiB given to the printing process from OS
            35 MiB allocation reported by mallinfo(arena+hblkhd)
        487956 MiB available memory on the node where the printing process lives
------------------
     ethr =  3.14E-06,  avg # of iterations =  4.0

     negative rho (up, down):  3.123E-02 3.288E-02

     total cpu time spent up to now is       36.1 secs

     total energy              =    -563.82350369 Ry
     estimated scf accuracy    <       0.00423150 Ry

     total magnetization       =     3.48 Bohr mag/cell
     absolute magnetization    =     3.74 Bohr mag/cell

     iteration # 43     ecut=    50.00 Ry     beta= 0.40
     Davidson diagonalization with overlap

---- Real-time Memory Report at c_bands before calling an iterative solver
            75 MiB given to the printing process from OS
            35 MiB allocation reported by mallinfo(arena+hblkhd)
        487955 MiB available memory on the node where the printing process lives
------------------
     ethr =  3.14E-06,  avg # of iterations =  7.8

     negative rho (up, down):  3.123E-02 3.288E-02

     total cpu time spent up to now is       37.3 secs

     total energy              =    -563.83128814 Ry
     estimated scf accuracy    <       0.00207360 Ry

     total magnetization       =     2.77 Bohr mag/cell
     absolute magnetization    =     3.18 Bohr mag/cell

     iteration # 44     ecut=    50.00 Ry     beta= 0.40
     Davidson diagonalization with overlap

---- Real-time Memory Report at c_bands before calling an iterative solver
            75 MiB given to the printing process from OS
            35 MiB allocation reported by mallinfo(arena+hblkhd)
        487954 MiB available memory on the node where the printing process lives
------------------
     ethr =  3.14E-06,  avg # of iterations =  1.0

     negative rho (up, down):  3.126E-02 3.251E-02

     total cpu time spent up to now is       37.8 secs

     total energy              =    -563.83095895 Ry
     estimated scf accuracy    <       0.00209233 Ry

     total magnetization       =     2.76 Bohr mag/cell
     absolute magnetization    =     3.18 Bohr mag/cell

     iteration # 45     ecut=    50.00 Ry     beta= 0.40
     Davidson diagonalization with overlap

---- Real-time Memory Report at c_bands before calling an iterative solver
            75 MiB given to the printing process from OS
            35 MiB allocation reported by mallinfo(arena+hblkhd)
        487954 MiB available memory on the node where the printing process lives
------------------
     ethr =  3.14E-06,  avg # of iterations =  7.0

     negative rho (up, down):  3.123E-02 3.268E-02

     total cpu time spent up to now is       38.9 secs

     total energy              =    -563.83151527 Ry
     estimated scf accuracy    <       0.00423649 Ry

     total magnetization       =     2.18 Bohr mag/cell
     absolute magnetization    =     2.81 Bohr mag/cell

     iteration # 46     ecut=    50.00 Ry     beta= 0.40
     Davidson diagonalization with overlap

---- Real-time Memory Report at c_bands before calling an iterative solver
            75 MiB given to the printing process from OS
            35 MiB allocation reported by mallinfo(arena+hblkhd)
        487953 MiB available memory on the node where the printing process lives
------------------
     ethr =  3.14E-06,  avg # of iterations =  4.2

     negative rho (up, down):  3.124E-02 3.273E-02

     total cpu time spent up to now is       39.8 secs

     total energy              =    -563.83273727 Ry
     estimated scf accuracy    <       0.00271579 Ry

     total magnetization       =     2.52 Bohr mag/cell
     absolute magnetization    =     3.00 Bohr mag/cell

     iteration # 47     ecut=    50.00 Ry     beta= 0.40
     Davidson diagonalization with overlap

---- Real-time Memory Report at c_bands before calling an iterative solver
            75 MiB given to the printing process from OS
            35 MiB allocation reported by mallinfo(arena+hblkhd)
        487953 MiB available memory on the node where the printing process lives
------------------
     ethr =  3.14E-06,  avg # of iterations =  1.0

     negative rho (up, down):  3.117E-02 3.358E-02

     total cpu time spent up to now is       40.3 secs

     total energy              =    -563.81464606 Ry
     estimated scf accuracy    <       0.00278987 Ry

     total magnetization       =     2.58 Bohr mag/cell
     absolute magnetization    =     3.04 Bohr mag/cell

     iteration # 48     ecut=    50.00 Ry     beta= 0.40
     Davidson diagonalization with overlap

---- Real-time Memory Report at c_bands before calling an iterative solver
            75 MiB given to the printing process from OS
            35 MiB allocation reported by mallinfo(arena+hblkhd)
        487952 MiB available memory on the node where the printing process lives
------------------
     ethr =  3.14E-06,  avg # of iterations =  8.8

     negative rho (up, down):  3.129E-02 3.258E-02

     total cpu time spent up to now is       41.6 secs

     total energy              =    -563.79773478 Ry
     estimated scf accuracy    <       0.00427834 Ry

     total magnetization       =     3.38 Bohr mag/cell
     absolute magnetization    =     3.66 Bohr mag/cell

     iteration # 49     ecut=    50.00 Ry     beta= 0.40
     Davidson diagonalization with overlap

---- Real-time Memory Report at c_bands before calling an iterative solver
            75 MiB given to the printing process from OS
            35 MiB allocation reported by mallinfo(arena+hblkhd)
        487952 MiB available memory on the node where the printing process lives
------------------
     ethr =  3.14E-06,  avg # of iterations = 10.5

     negative rho (up, down):  3.121E-02 3.285E-02

     total cpu time spent up to now is       43.0 secs

     total energy              =    -563.81349291 Ry
     estimated scf accuracy    <       0.01327198 Ry

     total magnetization       =     1.49 Bohr mag/cell
     absolute magnetization    =     2.99 Bohr mag/cell

     iteration # 50     ecut=    50.00 Ry     beta= 0.40
     Davidson diagonalization with overlap

---- Real-time Memory Report at c_bands before calling an iterative solver
            75 MiB given to the printing process from OS
            35 MiB allocation reported by mallinfo(arena+hblkhd)
        487952 MiB available memory on the node where the printing process lives
------------------
     ethr =  3.14E-06,  avg # of iterations =  8.6

     negative rho (up, down):  3.119E-02 3.327E-02

     total cpu time spent up to now is       44.3 secs

     total energy              =    -563.82579608 Ry
     estimated scf accuracy    <       0.00327252 Ry

     total magnetization       =     2.66 Bohr mag/cell
     absolute magnetization    =     3.10 Bohr mag/cell

     iteration # 51     ecut=    50.00 Ry     beta= 0.40
     Davidson diagonalization with overlap

---- Real-time Memory Report at c_bands before calling an iterative solver
            75 MiB given to the printing process from OS
            35 MiB allocation reported by mallinfo(arena+hblkhd)
        487948 MiB available memory on the node where the printing process lives
------------------
     ethr =  3.14E-06,  avg # of iterations =  6.4

     negative rho (up, down):  3.116E-02 3.448E-02

     total cpu time spent up to now is       45.4 secs

     total energy              =    -563.79669936 Ry
     estimated scf accuracy    <       0.00287771 Ry

     total magnetization       =     3.09 Bohr mag/cell
     absolute magnetization    =     3.42 Bohr mag/cell

     iteration # 52     ecut=    50.00 Ry     beta= 0.40
     Davidson diagonalization with overlap

---- Real-time Memory Report at c_bands before calling an iterative solver
            75 MiB given to the printing process from OS
            35 MiB allocation reported by mallinfo(arena+hblkhd)
        487948 MiB available memory on the node where the printing process lives
------------------
     ethr =  3.14E-06,  avg # of iterations = 10.5

     negative rho (up, down):  3.118E-02 3.343E-02

     total cpu time spent up to now is       46.8 secs

     total energy              =    -563.81685362 Ry
     estimated scf accuracy    <       0.01001198 Ry

     total magnetization       =     4.02 Bohr mag/cell
     absolute magnetization    =     4.22 Bohr mag/cell

     iteration # 53     ecut=    50.00 Ry     beta= 0.40
     Davidson diagonalization with overlap

---- Real-time Memory Report at c_bands before calling an iterative solver
            75 MiB given to the printing process from OS
            35 MiB allocation reported by mallinfo(arena+hblkhd)
        487948 MiB available memory on the node where the printing process lives
------------------
     ethr =  3.14E-06,  avg # of iterations =  8.3

     negative rho (up, down):  3.118E-02 3.347E-02

     total cpu time spent up to now is       48.1 secs

     total energy              =    -563.82711679 Ry
     estimated scf accuracy    <       0.00322046 Ry

     total magnetization       =     3.24 Bohr mag/cell
     absolute magnetization    =     3.54 Bohr mag/cell

     iteration # 54     ecut=    50.00 Ry     beta= 0.40
     Davidson diagonalization with overlap

---- Real-time Memory Report at c_bands before calling an iterative solver
            75 MiB given to the printing process from OS
            35 MiB allocation reported by mallinfo(arena+hblkhd)
        487948 MiB available memory on the node where the printing process lives
------------------
     ethr =  3.14E-06,  avg # of iterations =  1.0

     negative rho (up, down):  3.118E-02 3.328E-02

     total cpu time spent up to now is       48.6 secs

     total energy              =    -563.82824454 Ry
     estimated scf accuracy    <       0.00312632 Ry

     total magnetization       =     3.27 Bohr mag/cell
     absolute magnetization    =     3.56 Bohr mag/cell

     iteration # 55     ecut=    50.00 Ry     beta= 0.40
     Davidson diagonalization with overlap

---- Real-time Memory Report at c_bands before calling an iterative solver
            75 MiB given to the printing process from OS
            35 MiB allocation reported by mallinfo(arena+hblkhd)
        487947 MiB available memory on the node where the printing process lives
------------------
     ethr =  3.14E-06,  avg # of iterations =  2.2

     negative rho (up, down):  3.118E-02 3.324E-02

     total cpu time spent up to now is       49.2 secs

     total energy              =    -563.82889818 Ry
     estimated scf accuracy    <       0.00224692 Ry

     total magnetization       =     3.09 Bohr mag/cell
     absolute magnetization    =     3.42 Bohr mag/cell

     iteration # 56     ecut=    50.00 Ry     beta= 0.40
     Davidson diagonalization with overlap

---- Real-time Memory Report at c_bands before calling an iterative solver
            75 MiB given to the printing process from OS
            35 MiB allocation reported by mallinfo(arena+hblkhd)
        487943 MiB available memory on the node where the printing process lives
------------------
     ethr =  3.14E-06,  avg # of iterations =  1.0

     negative rho (up, down):  3.119E-02 3.304E-02

     total cpu time spent up to now is       49.7 secs

     total energy              =    -563.82969639 Ry
     estimated scf accuracy    <       0.00190911 Ry

     total magnetization       =     3.06 Bohr mag/cell
     absolute magnetization    =     3.40 Bohr mag/cell

     iteration # 57     ecut=    50.00 Ry     beta= 0.40
     Davidson diagonalization with overlap

---- Real-time Memory Report at c_bands before calling an iterative solver
            75 MiB given to the printing process from OS
            35 MiB allocation reported by mallinfo(arena+hblkhd)
        487943 MiB available memory on the node where the printing process lives
------------------
     ethr =  3.14E-06,  avg # of iterations =  3.6

     negative rho (up, down):  3.122E-02 3.264E-02

     total cpu time spent up to now is       50.5 secs

     total energy              =    -563.83058891 Ry
     estimated scf accuracy    <       0.00131662 Ry

     total magnetization       =     2.89 Bohr mag/cell
     absolute magnetization    =     3.26 Bohr mag/cell

     iteration # 58     ecut=    50.00 Ry     beta= 0.40
     Davidson diagonalization with overlap

---- Real-time Memory Report at c_bands before calling an iterative solver
            75 MiB given to the printing process from OS
            35 MiB allocation reported by mallinfo(arena+hblkhd)
        487943 MiB available memory on the node where the printing process lives
------------------
     ethr =  2.53E-06,  avg # of iterations =  7.7

     negative rho (up, down):  3.129E-02 3.254E-02

     total cpu time spent up to now is       51.6 secs

     total energy              =    -563.82720114 Ry
     estimated scf accuracy    <       0.00148098 Ry

     total magnetization       =     2.48 Bohr mag/cell
     absolute magnetization    =     2.96 Bohr mag/cell

     iteration # 59     ecut=    50.00 Ry     beta= 0.40
     Davidson diagonalization with overlap

---- Real-time Memory Report at c_bands before calling an iterative solver
            76 MiB given to the printing process from OS
            35 MiB allocation reported by mallinfo(arena+hblkhd)
        487943 MiB available memory on the node where the printing process lives
------------------
     ethr =  2.53E-06,  avg # of iterations =  9.4

     negative rho (up, down):  3.120E-02 3.309E-02

     total cpu time spent up to now is       53.0 secs

     total energy              =    -563.78863356 Ry
     estimated scf accuracy    <       0.01312039 Ry

     total magnetization       =     1.24 Bohr mag/cell
     absolute magnetization    =     3.24 Bohr mag/cell

     iteration # 60     ecut=    50.00 Ry     beta= 0.40
     Davidson diagonalization with overlap

---- Real-time Memory Report at c_bands before calling an iterative solver
            76 MiB given to the printing process from OS
            35 MiB allocation reported by mallinfo(arena+hblkhd)
        487942 MiB available memory on the node where the printing process lives
------------------
     ethr =  2.53E-06,  avg # of iterations = 10.1

     negative rho (up, down):  3.114E-02 3.395E-02

     total cpu time spent up to now is       54.4 secs

     total energy              =    -563.81297158 Ry
     estimated scf accuracy    <       0.00168718 Ry

     total magnetization       =     2.94 Bohr mag/cell
     absolute magnetization    =     3.30 Bohr mag/cell

     iteration # 61     ecut=    50.00 Ry     beta= 0.40
     Davidson diagonalization with overlap

---- Real-time Memory Report at c_bands before calling an iterative solver
            76 MiB given to the printing process from OS
            35 MiB allocation reported by mallinfo(arena+hblkhd)
        487942 MiB available memory on the node where the printing process lives
------------------
     ethr =  2.53E-06,  avg # of iterations =  9.0

     negative rho (up, down):  3.116E-02 3.440E-02

     total cpu time spent up to now is       55.7 secs

     total energy              =    -563.81327832 Ry
     estimated scf accuracy    <       0.00547995 Ry

     total magnetization       =     3.66 Bohr mag/cell
     absolute magnetization    =     3.89 Bohr mag/cell

     iteration # 62     ecut=    50.00 Ry     beta= 0.40
     Davidson diagonalization with overlap

---- Real-time Memory Report at c_bands before calling an iterative solver
            76 MiB given to the printing process from OS
            35 MiB allocation reported by mallinfo(arena+hblkhd)
        487942 MiB available memory on the node where the printing process lives
------------------
     ethr =  2.53E-06,  avg # of iterations =  6.9

     negative rho (up, down):  3.115E-02 3.437E-02

     total cpu time spent up to now is       56.8 secs

     total energy              =    -563.81566925 Ry
     estimated scf accuracy    <       0.00889464 Ry

     total magnetization       =     3.97 Bohr mag/cell
     absolute magnetization    =     4.17 Bohr mag/cell

     iteration # 63     ecut=    50.00 Ry     beta= 0.40
     Davidson diagonalization with overlap

---- Real-time Memory Report at c_bands before calling an iterative solver
            76 MiB given to the printing process from OS
            35 MiB allocation reported by mallinfo(arena+hblkhd)
        487941 MiB available memory on the node where the printing process lives
------------------
     ethr =  2.53E-06,  avg # of iterations =  1.1

     negative rho (up, down):  3.115E-02 3.426E-02

     total cpu time spent up to now is       57.3 secs

     total energy              =    -563.81764585 Ry
     estimated scf accuracy    <       0.00826368 Ry

     total magnetization       =     3.95 Bohr mag/cell
     absolute magnetization    =     4.15 Bohr mag/cell

     iteration # 64     ecut=    50.00 Ry     beta= 0.40
     Davidson diagonalization with overlap

---- Real-time Memory Report at c_bands before calling an iterative solver
            76 MiB given to the printing process from OS
            35 MiB allocation reported by mallinfo(arena+hblkhd)
        487941 MiB available memory on the node where the printing process lives
------------------
     ethr =  2.53E-06,  avg # of iterations =  1.5

     negative rho (up, down):  3.115E-02 3.416E-02

     total cpu time spent up to now is       57.9 secs

     total energy              =    -563.81897650 Ry
     estimated scf accuracy    <       0.00733835 Ry

     total magnetization       =     3.87 Bohr mag/cell
     absolute magnetization    =     4.09 Bohr mag/cell

     iteration # 65     ecut=    50.00 Ry     beta= 0.40
     Davidson diagonalization with overlap

---- Real-time Memory Report at c_bands before calling an iterative solver
[...]

     iteration # 80     ecut=    50.00 Ry     beta= 0.40
     Davidson diagonalization with overlap

---- Real-time Memory Report at c_bands before calling an iterative solver
            76 MiB given to the printing process from OS
            35 MiB allocation reported by mallinfo(arena+hblkhd)
        487931 MiB available memory on the node where the printing process lives
------------------
     ethr =  2.53E-06,  avg # of iterations =  9.3

     negative rho (up, down):  3.116E-02 3.334E-02

     total cpu time spent up to now is       73.3 secs

     total energy              =    -563.82668476 Ry
     estimated scf accuracy    <       0.00126901 Ry

     total magnetization       =     2.88 Bohr mag/cell
     absolute magnetization    =     3.24 Bohr mag/cell

     iteration # 81     ecut=    50.00 Ry     beta= 0.40
     Davidson diagonalization with overlap

---- Real-time Memory Report at c_bands before calling an iterative solver
            76 MiB given to the printing process from OS
            35 MiB allocation reported by mallinfo(arena+hblkhd)
        487930 MiB available memory on the node where the printing process lives
------------------
     ethr =  2.44E-06,  avg # of iterations =  5.5

     negative rho (up, down):  3.114E-02 3.372E-02

     total cpu time spent up to now is       74.2 secs

     total energy              =    -563.82292763 Ry
     estimated scf accuracy    <       0.00208299 Ry

     total magnetization       =     3.16 Bohr mag/cell
     absolute magnetization    =     3.46 Bohr mag/cell

     iteration # 82     ecut=    50.00 Ry     beta= 0.40
     Davidson diagonalization with overlap

---- Real-time Memory Report at c_bands before calling an iterative solver
            76 MiB given to the printing process from OS
            35 MiB allocation reported by mallinfo(arena+hblkhd)
        487928 MiB available memory on the node where the printing process lives
------------------
     ethr =  2.44E-06,  avg # of iterations =  6.7

     negative rho (up, down):  3.115E-02 3.455E-02

     total cpu time spent up to now is       75.2 secs

     total energy              =    -563.80485786 Ry
     estimated scf accuracy    <       0.00389458 Ry

     total magnetization       =     3.47 Bohr mag/cell
     absolute magnetization    =     3.72 Bohr mag/cell

     iteration # 83     ecut=    50.00 Ry     beta= 0.40
     Davidson diagonalization with overlap

---- Real-time Memory Report at c_bands before calling an iterative solver
            76 MiB given to the printing process from OS
            35 MiB allocation reported by mallinfo(arena+hblkhd)
        487928 MiB available memory on the node where the printing process lives
------------------
     ethr =  2.44E-06,  avg # of iterations =  9.0

     negative rho (up, down):  3.115E-02 3.469E-02

     total cpu time spent up to now is       76.5 secs

     total energy              =    -563.80924003 Ry
     estimated scf accuracy    <       0.01012472 Ry

     total magnetization       =     4.06 Bohr mag/cell
     absolute magnetization    =     4.26 Bohr mag/cell

     iteration # 84     ecut=    50.00 Ry     beta= 0.40
     Davidson diagonalization with overlap

---- Real-time Memory Report at c_bands before calling an iterative solver
            76 MiB given to the printing process from OS
            35 MiB allocation reported by mallinfo(arena+hblkhd)
        487928 MiB available memory on the node where the printing process lives
------------------
     ethr =  2.44E-06,  avg # of iterations =  2.3

     negative rho (up, down):  3.116E-02 3.505E-02

     total cpu time spent up to now is       77.2 secs

     total energy              =    -563.79963625 Ry
     estimated scf accuracy    <       0.01153691 Ry

     total magnetization       =     4.14 Bohr mag/cell
     absolute magnetization    =     4.33 Bohr mag/cell

     iteration # 85     ecut=    50.00 Ry     beta= 0.40
     Davidson diagonalization with overlap

---- Real-time Memory Report at c_bands before calling an iterative solver
            76 MiB given to the printing process from OS
            35 MiB allocation reported by mallinfo(arena+hblkhd)
        487928 MiB available memory on the node where the printing process lives
------------------
     ethr =  2.44E-06,  avg # of iterations =  6.5

     negative rho (up, down):  3.116E-02 3.504E-02

     total cpu time spent up to now is       78.2 secs

     total energy              =    -563.80126232 Ry
     estimated scf accuracy    <       0.01580660 Ry

     total magnetization       =     4.34 Bohr mag/cell
     absolute magnetization    =     4.53 Bohr mag/cell

     iteration # 86     ecut=    50.00 Ry     beta= 0.40
     Davidson diagonalization with overlap

---- Real-time Memory Report at c_bands before calling an iterative solver
            76 MiB given to the printing process from OS
            35 MiB allocation reported by mallinfo(arena+hblkhd)
        487927 MiB available memory on the node where the printing process lives
------------------
     ethr =  2.44E-06,  avg # of iterations =  1.0

     negative rho (up, down):  3.116E-02 3.486E-02

     total cpu time spent up to now is       78.7 secs

     total energy              =    -563.80556873 Ry
     estimated scf accuracy    <       0.01582250 Ry

     total magnetization       =     4.33 Bohr mag/cell
     absolute magnetization    =     4.52 Bohr mag/cell

     iteration # 87     ecut=    50.00 Ry     beta= 0.40
     Davidson diagonalization with overlap

---- Real-time Memory Report at c_bands before calling an iterative solver
            76 MiB given to the printing process from OS
            35 MiB allocation reported by mallinfo(arena+hblkhd)
        487927 MiB available memory on the node where the printing process lives
------------------
     ethr =  2.44E-06,  avg # of iterations =  1.9

     negative rho (up, down):  3.116E-02 3.516E-02

     total cpu time spent up to now is       79.4 secs

     total energy              =    -563.79748615 Ry
     estimated scf accuracy    <       0.01328459 Ry

     total magnetization       =     4.24 Bohr mag/cell
     absolute magnetization    =     4.43 Bohr mag/cell

     iteration # 88     ecut=    50.00 Ry     beta= 0.40
     Davidson diagonalization with overlap

---- Real-time Memory Report at c_bands before calling an iterative solver
            76 MiB given to the printing process from OS
            35 MiB allocation reported by mallinfo(arena+hblkhd)
        487927 MiB available memory on the node where the printing process lives
------------------
     ethr =  2.44E-06,  avg # of iterations =  3.1

     negative rho (up, down):  3.123E-02 3.247E-02

     total cpu time spent up to now is       80.1 secs

     total energy              =    -563.76369863 Ry
     estimated scf accuracy    <       0.01785724 Ry

     total magnetization       =     4.40 Bohr mag/cell
     absolute magnetization    =     4.58 Bohr mag/cell

     iteration # 89     ecut=    50.00 Ry     beta= 0.40
     Davidson diagonalization with overlap

---- Real-time Memory Report at c_bands before calling an iterative solver
            76 MiB given to the printing process from OS
            35 MiB allocation reported by mallinfo(arena+hblkhd)
        487926 MiB available memory on the node where the printing process lives
------------------
     ethr =  2.44E-06,  avg # of iterations = 12.6

     negative rho (up, down):  3.126E-02 3.252E-02

     total cpu time spent up to now is       81.7 secs

     total energy              =    -563.83698900 Ry
     estimated scf accuracy    <       0.00194859 Ry

     total magnetization       =     2.15 Bohr mag/cell
     absolute magnetization    =     2.75 Bohr mag/cell

     iteration # 90     ecut=    50.00 Ry     beta= 0.40
     Davidson diagonalization with overlap

---- Real-time Memory Report at c_bands before calling an iterative solver
            76 MiB given to the printing process from OS
            35 MiB allocation reported by mallinfo(arena+hblkhd)
        487926 MiB available memory on the node where the printing process lives
------------------
     ethr =  2.44E-06,  avg # of iterations =  7.4

     negative rho (up, down):  3.116E-02 3.332E-02

     total cpu time spent up to now is       82.8 secs

     total energy              =    -563.79262571 Ry
     estimated scf accuracy    <       0.00527920 Ry

     total magnetization       =     1.59 Bohr mag/cell
     absolute magnetization    =     2.75 Bohr mag/cell

     iteration # 91     ecut=    50.00 Ry     beta= 0.40
     Davidson diagonalization with overlap

---- Real-time Memory Report at c_bands before calling an iterative solver
            76 MiB given to the printing process from OS
            35 MiB allocation reported by mallinfo(arena+hblkhd)
        487926 MiB available memory on the node where the printing process lives
------------------
     ethr =  2.44E-06,  avg # of iterations = 10.0

     negative rho (up, down):  3.116E-02 3.330E-02

     total cpu time spent up to now is       84.2 secs

     total energy              =    -563.82833888 Ry
     estimated scf accuracy    <       0.00217535 Ry

     total magnetization       =     3.14 Bohr mag/cell
     absolute magnetization    =     3.45 Bohr mag/cell

     iteration # 92     ecut=    50.00 Ry     beta= 0.40
     Davidson diagonalization with overlap

---- Real-time Memory Report at c_bands before calling an iterative solver
            76 MiB given to the printing process from OS
            35 MiB allocation reported by mallinfo(arena+hblkhd)
        487924 MiB available memory on the node where the printing process lives
------------------
     ethr =  2.44E-06,  avg # of iterations =  1.3

     negative rho (up, down):  3.116E-02 3.334E-02

     total cpu time spent up to now is       84.7 secs

     total energy              =    -563.82795659 Ry
     estimated scf accuracy    <       0.00223273 Ry

     total magnetization       =     3.12 Bohr mag/cell
     absolute magnetization    =     3.43 Bohr mag/cell

     iteration # 93     ecut=    50.00 Ry     beta= 0.40
     Davidson diagonalization with overlap

---- Real-time Memory Report at c_bands before calling an iterative solver
            76 MiB given to the printing process from OS
            35 MiB allocation reported by mallinfo(arena+hblkhd)
        487924 MiB available memory on the node where the printing process lives
------------------
     ethr =  2.44E-06,  avg # of iterations =  1.0

     negative rho (up, down):  3.116E-02 3.326E-02

     total cpu time spent up to now is       85.2 secs

     total energy              =    -563.82855254 Ry
     estimated scf accuracy    <       0.00231928 Ry

     total magnetization       =     3.16 Bohr mag/cell
     absolute magnetization    =     3.46 Bohr mag/cell

     iteration # 94     ecut=    50.00 Ry     beta= 0.40
     Davidson diagonalization with overlap

---- Real-time Memory Report at c_bands before calling an iterative solver
            76 MiB given to the printing process from OS
            35 MiB allocation reported by mallinfo(arena+hblkhd)
        487924 MiB available memory on the node where the printing process lives
------------------
     ethr =  2.44E-06,  avg # of iterations =  1.0

     negative rho (up, down):  3.116E-02 3.330E-02

     total cpu time spent up to now is       85.7 secs

     total energy              =    -563.82804215 Ry
     estimated scf accuracy    <       0.00203000 Ry

     total magnetization       =     3.08 Bohr mag/cell
     absolute magnetization    =     3.40 Bohr mag/cell

     iteration # 95     ecut=    50.00 Ry     beta= 0.40
     Davidson diagonalization with overlap

---- Real-time Memory Report at c_bands before calling an iterative solver
            76 MiB given to the printing process from OS
            35 MiB allocation reported by mallinfo(arena+hblkhd)
        487923 MiB available memory on the node where the printing process lives
------------------
     ethr =  2.44E-06,  avg # of iterations =  1.0

     negative rho (up, down):  3.115E-02 3.352E-02

     total cpu time spent up to now is       86.2 secs

     total energy              =    -563.82553274 Ry
     estimated scf accuracy    <       0.00198149 Ry

     total magnetization       =     3.13 Bohr mag/cell
     absolute magnetization    =     3.43 Bohr mag/cell

     iteration # 96     ecut=    50.00 Ry     beta= 0.40
     Davidson diagonalization with overlap

---- Real-time Memory Report at c_bands before calling an iterative solver
            76 MiB given to the printing process from OS
            35 MiB allocation reported by mallinfo(arena+hblkhd)
        487923 MiB available memory on the node where the printing process lives
------------------
     ethr =  2.44E-06,  avg # of iterations =  3.7

     negative rho (up, down):  3.116E-02 3.339E-02

     total cpu time spent up to now is       87.0 secs

     total energy              =    -563.82716491 Ry
     estimated scf accuracy    <       0.00264772 Ry

     total magnetization       =     3.32 Bohr mag/cell
     absolute magnetization    =     3.59 Bohr mag/cell

     iteration # 97     ecut=    50.00 Ry     beta= 0.40
     Davidson diagonalization with overlap

---- Real-time Memory Report at c_bands before calling an iterative solver
            76 MiB given to the printing process from OS
            35 MiB allocation reported by mallinfo(arena+hblkhd)
        487923 MiB available memory on the node where the printing process lives
------------------
     ethr =  2.44E-06,  avg # of iterations =  1.3

     negative rho (up, down):  3.114E-02 3.365E-02

     total cpu time spent up to now is       87.6 secs

     total energy              =    -563.82449116 Ry
     estimated scf accuracy    <       0.00202809 Ry

     total magnetization       =     3.21 Bohr mag/cell
     absolute magnetization    =     3.50 Bohr mag/cell

     iteration # 98     ecut=    50.00 Ry     beta= 0.40
     Davidson diagonalization with overlap

---- Real-time Memory Report at c_bands before calling an iterative solver
            76 MiB given to the printing process from OS
            35 MiB allocation reported by mallinfo(arena+hblkhd)
        487922 MiB available memory on the node where the printing process lives
------------------
     ethr =  2.44E-06,  avg # of iterations =  2.6

     negative rho (up, down):  3.114E-02 3.390E-02

     total cpu time spent up to now is       88.3 secs

     total energy              =    -563.82132941 Ry
     estimated scf accuracy    <       0.00363143 Ry

     total magnetization       =     3.42 Bohr mag/cell
     absolute magnetization    =     3.68 Bohr mag/cell

     iteration # 99     ecut=    50.00 Ry     beta= 0.40
     Davidson diagonalization with overlap

---- Real-time Memory Report at c_bands before calling an iterative solver
            76 MiB given to the printing process from OS
            35 MiB allocation reported by mallinfo(arena+hblkhd)
        487922 MiB available memory on the node where the printing process lives
------------------
     ethr =  2.44E-06,  avg # of iterations =  5.9

     negative rho (up, down):  3.127E-02 3.262E-02

     total cpu time spent up to now is       89.3 secs

     total energy              =    -563.77198250 Ry
     estimated scf accuracy    <       0.00465727 Ry

     total magnetization       =     3.63 Bohr mag/cell
     absolute magnetization    =     3.86 Bohr mag/cell

     iteration #100     ecut=    50.00 Ry     beta= 0.40
     Davidson diagonalization with overlap

---- Real-time Memory Report at c_bands before calling an iterative solver
            76 MiB given to the printing process from OS
            35 MiB allocation reported by mallinfo(arena+hblkhd)
        487919 MiB available memory on the node where the printing process lives
------------------
     ethr =  2.44E-06,  avg # of iterations = 11.2

     negative rho (up, down):  3.113E-02 3.410E-02

     total cpu time spent up to now is       90.8 secs

     total energy              =    -563.70134161 Ry
     estimated scf accuracy    <       0.01651375 Ry

     total magnetization       =     1.17 Bohr mag/cell
     absolute magnetization    =     3.37 Bohr mag/cell

     End of self-consistent calculation

     convergence NOT achieved after 100 iterations: stopping

     Writing config to output data dir ./out/aiida.save/ :
     XML data file, charge density

     init_run     :      1.26s CPU      1.41s WALL (       1 calls)
     electrons    :     85.33s CPU     88.75s WALL (       1 calls)

     Called by init_run:
     wfcinit      :      0.25s CPU      0.36s WALL (       1 calls)
     wfcinit:atom :      0.00s CPU      0.00s WALL (      21 calls)
     wfcinit:wfcr :      0.22s CPU      0.34s WALL (      21 calls)
     potinit      :      0.35s CPU      0.36s WALL (       1 calls)
     hinit0       :      0.60s CPU      0.61s WALL (       1 calls)

     Called by electrons:
     c_bands      :     70.89s CPU     73.66s WALL (     100 calls)
     sum_band     :      9.19s CPU      9.63s WALL (     100 calls)
     v_of_rho     :      2.93s CPU      3.01s WALL (     101 calls)
     v_h          :      0.08s CPU      0.08s WALL (     101 calls)
     v_xc         :      2.85s CPU      2.93s WALL (     101 calls)
     newd         :      1.51s CPU      1.53s WALL (     101 calls)
     mix_rho      :      0.33s CPU      0.34s WALL (     100 calls)

     Called by c_bands:
     init_us_2    :      0.66s CPU      0.68s WALL (    4221 calls)
     init_us_2:cp :      0.65s CPU      0.67s WALL (    4221 calls)
     cegterg      :     45.63s CPU     47.60s WALL (    2100 calls)

     Called by sum_band:
     sum_band:wei :      0.14s CPU      0.14s WALL (     100 calls)
     sum_band:loo :      6.59s CPU      6.95s WALL (     100 calls)
     sum_band:buf :      0.06s CPU      0.06s WALL (    2100 calls)
     sum_band:ini :      0.32s CPU      0.33s WALL (    2100 calls)
     sum_band:cal :      0.61s CPU      0.64s WALL (    2100 calls)
     sum_band:bec :      0.04s CPU      0.04s WALL (    2100 calls)
     addusdens    :      1.83s CPU      1.84s WALL (     100 calls)
                                        0.00s GPU  (     100 calls)
     addusd:skk   :      0.00s CPU      0.00s WALL (     400 calls)
                                        0.00s GPU  (     400 calls)

     Called by *egterg:
     cdiaghg      :      9.05s CPU      9.33s WALL (    8845 calls)
     cegterg:over :      1.68s CPU      1.72s WALL (    6745 calls)
     cegterg:upda :      0.87s CPU      0.90s WALL (    6745 calls)
     cegterg:last :      1.59s CPU      1.61s WALL (    4039 calls)
     h_psi        :     30.17s CPU     31.75s WALL (    8866 calls)
     s_psi        :      1.44s CPU      1.48s WALL (    8866 calls)
     g_psi        :      0.10s CPU      0.10s WALL (    6745 calls)

     Called by h_psi:
     h_psi:calbec :      1.77s CPU      1.88s WALL (    8866 calls)
     vloc_psi     :     26.80s CPU     28.22s WALL (    8866 calls)
     add_vuspsi   :      1.47s CPU      1.51s WALL (    8866 calls)

     General routines
     calbec       :      2.35s CPU      2.49s WALL (   10966 calls)
     fft          :      1.45s CPU      1.56s WALL (    2523 calls)
     ffts         :      0.41s CPU      0.42s WALL (     402 calls)
     fftw         :     26.07s CPU     27.37s WALL (  393006 calls)
     interpolate  :      0.42s CPU      0.44s WALL (     202 calls)
     davcio       :      0.00s CPU      0.01s WALL (      39 calls)

     Parallel routines

     PWSCF        :   1m26.99s CPU   1m30.86s WALL


   This run was terminated on:  20:29:41  29Nov2023            

=------------------------------------------------------------------------------=
   JOB DONE.
=------------------------------------------------------------------------------=
