
     Program PWSCF v.7.2 starts on 23Oct2023 at 19:49: 4 

     This program is part of the open-source Quantum ESPRESSO suite
     for quantum simulation of materials; please cite
         "P. Giannozzi et al., J. Phys.:Condens. Matter 21 395502 (2009);
         "P. Giannozzi et al., J. Phys.:Condens. Matter 29 465901 (2017);
         "P. Giannozzi et al., J. Chem. Phys. 152 154105 (2020);
          URL http://www.quantum-espresso.org", 
     in publications or presentations arising from this work. More details at
     http://www.quantum-espresso.org/quote

     Parallel version (MPI & OpenMP), running on      12 processor cores
     Number of MPI processes:                 1
     Threads/MPI process:                    12

     MPI processes distributed on     1 nodes
     60421 MiB available memory on the printing compute node when the environment starts
 
     Reading input from aiida.in

     Current dimensions of program PWSCF are:
     Max number of different atomic species (ntypx) = 10
     Max number of k-points (npk) =  40000
     Max angular momentum in pseudopotentials (lmaxx) =  4
     file O.pbesol-n-kjpaw_psl.0.1.UPF: wavefunction(s)  2P renormalized
     Message from routine setup:
     using ibrav=0 with symmetry is DISCOURAGED, use correct ibrav instead
 
     Subspace diagonalization in iterative solution of the eigenvalue problem:
     a serial algorithm will be used

 
     G-vector sticks info
     --------------------
     sticks:   dense  smooth     PW     G-vecs:    dense   smooth      PW
     Sum        7939    3979   1125               405079   143291   21515
 
     Using Slab Decomposition
 


     bravais-lattice index     =            0
     lattice parameter (alat)  =      17.2276  a.u.
     unit-cell volume          =    2281.5987 (a.u.)^3
     number of atoms/cell      =           15
     number of atomic types    =            4
     number of electrons       =       100.00
     number of Kohn-Sham states=           60
     kinetic-energy cutoff     =      60.0000  Ry
     charge density cutoff     =     480.0000  Ry
     scf convergence threshold =      3.0E-09
     mixing beta               =       0.1000
     number of iterations used =            8  plain     mixing
     Exchange-correlation= SLA  PW   PSX  PSC
                           (   1   4  10   8   0   0   0)

     GPU acceleration is ACTIVE.


     GPU used by master process:

        Device Number: 0
        Device name: Tesla P100-PCIE-16GB
        Compute capability : 60
        Ratio of single to double precision performance  : 2
        Memory Clock Rate (KHz): 715000
        Memory Bus Width (bits): 4096
        Peak Memory Bandwidth (GB/s): 732.16

     celldm(1)=  17.227629  celldm(2)=   0.000000  celldm(3)=   0.000000
     celldm(4)=   0.000000  celldm(5)=   0.000000  celldm(6)=   0.000000

     crystal axes: (cart. coord. in units of alat)
               a(1) = (   0.378436   0.218490   0.899471 )  
               a(2) = (  -0.378436   0.218490   0.899471 )  
               a(3) = (   0.000000  -0.436980   0.899471 )  

     reciprocal axes: (cart. coord. in units 2 pi/alat)
               b(1) = (  1.321227  0.762811  0.370588 )  
               b(2) = ( -1.321227  0.762811  0.370588 )  
               b(3) = ( -0.000000 -1.525622  0.370588 )  


     PseudoPot. # 1 for Cl read from file:
     ./pseudo/cl_pbesol_v1.4.uspp.F.UPF
     MD5 check sum: ed6bbcf06f19043c0df9f6394706ff8f
     Pseudo is Ultrasoft + core correction, Zval =  7.0
     Generated by new atomic code, or converted to UPF format
     Using radial grid of  909 points,  6 beta functions with: 
                l(1) =   0
                l(2) =   0
                l(3) =   1
                l(4) =   1
                l(5) =   2
                l(6) =   2
     Q(r) pseudized with  8 coefficients,  rinner =    1.300   1.300   1.300
                                                       1.300   1.300

     PseudoPot. # 2 for Ir read from file:
     ./pseudo/ir_pbesol_v1.2.uspp.F.UPF
     MD5 check sum: 965d8bb5733ec2587acb56a50491f36d
     Pseudo is Ultrasoft + core correction, Zval = 15.0
     Generated by new atomic code, or converted to UPF format
     Using radial grid of  983 points,  7 beta functions with: 
                l(1) =   0
                l(2) =   0
                l(3) =   1
                l(4) =   1
                l(5) =   1
                l(6) =   2
                l(7) =   2
     Q(r) pseudized with  8 coefficients,  rinner =    1.400   1.400   1.400
                                                       1.400   1.400

     PseudoPot. # 3 for N  read from file:
     ./pseudo/N.pbesol-theos.UPF
     MD5 check sum: 1b64827339d390a5a22afef3ff345c9d
     Pseudo is Ultrasoft + core correction, Zval =  5.0
     Generated using "atomic" code by A. Dal Corso  v.5.1
     Using radial grid of 1085 points,  4 beta functions with: 
                l(1) =   0
                l(2) =   0
                l(3) =   1
                l(4) =   1
     Q(r) pseudized with 0 coefficients 


     PseudoPot. # 4 for O  read from file:
     ./pseudo/O.pbesol-n-kjpaw_psl.0.1.UPF
     MD5 check sum: 81d73d1479e654e5638b0319f0d6c2c7
     Pseudo is Projector augmented-wave + core cor, Zval =  6.0
     Generated using "atomic" code by A. Dal Corso  v.6.0 svn rev. 13079
     Shape of augmentation charge: BESSEL
     Using radial grid of 1095 points,  4 beta functions with: 
                l(1) =   0
                l(2) =   0
                l(3) =   1
                l(4) =   1
     Q(r) pseudized with 0 coefficients 


     atomic species   valence    mass     pseudopotential
        Cl             7.00    35.45300     Cl( 1.00)
        Ir            15.00   192.21700     Ir( 1.00)
        N              5.00    14.00670     N ( 1.00)
        O              6.00    15.99940     O ( 1.00)

     Starting magnetic structure 
     atomic species   magnetization
        Cl           0.100
        Ir           0.333
        N            0.100
        O            0.100

      6 Sym. Ops. (no inversion) found


                                    s                        frac. trans.

      isym =  1     identity                                     

 cryst.   s( 1) = (     1          0          0      )
                  (     0          1          0      )
                  (     0          0          1      )

 cart.    s( 1) = (  1.0000000 -0.0000000 -0.0000000 )
                  (  0.0000000  1.0000000 -0.0000000 )
                  (  0.0000000  0.0000000  1.0000000 )


      isym =  2     120 deg rotation - cryst. axis [0,0,1]       

 cryst.   s( 2) = (     0          1          0      )
                  (     0          0          1      )
                  (     1          0          0      )

 cart.    s( 2) = ( -0.5000000 -0.8660254 -0.0000000 )
                  (  0.8660254 -0.5000000 -0.0000000 )
                  (  0.0000000 -0.0000000  1.0000000 )


      isym =  3     120 deg rotation - cryst. axis [0,0,-1]      

 cryst.   s( 3) = (     0          0          1      )
                  (     1          0          0      )
                  (     0          1          0      )

 cart.    s( 3) = ( -0.5000000  0.8660254 -0.0000000 )
                  ( -0.8660254 -0.5000000 -0.0000000 )
                  ( -0.0000000  0.0000000  1.0000000 )


      isym =  4     inv. 180 deg rotation - cart. axis [1,0,0]   

 cryst.   s( 4) = (     0          1          0      )
                  (     1          0          0      )
                  (     0          0          1      )

 cart.    s( 4) = ( -1.0000000 -0.0000000 -0.0000000 )
                  (  0.0000000  1.0000000 -0.0000000 )
                  ( -0.0000000  0.0000000  1.0000000 )


      isym =  5     inv. 180 deg rotation - cryst. axis [0,1,0]  

 cryst.   s( 5) = (     1          0          0      )
                  (     0          0          1      )
                  (     0          1          0      )

 cart.    s( 5) = (  0.5000000  0.8660254 -0.0000000 )
                  (  0.8660254 -0.5000000 -0.0000000 )
                  (  0.0000000  0.0000000  1.0000000 )


      isym =  6     inv. 180 deg rotation - cryst. axis [1,1,0]  

 cryst.   s( 6) = (     0          0          1      )
                  (     0          1          0      )
                  (     1          0          0      )

 cart.    s( 6) = (  0.5000000 -0.8660254 -0.0000000 )
                  ( -0.8660254 -0.5000000 -0.0000000 )
                  ( -0.0000000 -0.0000000  1.0000000 )


   Cartesian axes

     site n.     atom                  positions (alat units)
         1           Ir  tau(   1) = (  -0.0000000   0.0000000  -0.0000000  )
         2           N   tau(   2) = (  -0.0000000   0.4369803   0.7495293  )
         3           N   tau(   3) = (  -0.0000000   0.4369803   0.1499418  )
         4           N   tau(   4) = (   0.3784360   0.2184901   0.4496456  )
         5           N   tau(   5) = (  -0.0000000  -0.0000000   0.4498255  )
         6           N   tau(   6) = (  -0.0000000   0.4369803   0.4497355  )
         7           Cl  tau(   7) = (   0.3784360   0.4370240   0.7375663  )
         8           Cl  tau(   8) = (   0.1891802   0.1092232   0.7375663  )
         9           Cl  tau(   9) = (   0.5676919   0.1092232   0.7375663  )
        10           Cl  tau(  10) = (   0.3784360   0.4369366   0.1619048  )
        11           Cl  tau(  11) = (   0.1892558   0.1092669   0.1619048  )
        12           Cl  tau(  12) = (   0.5676162   0.1092669   0.1619048  )
        13           O   tau(  13) = (  -0.0000000   0.2796674   0.4497355  )
        14           O   tau(  14) = (   0.1362370   0.5156367   0.4497355  )
        15           O   tau(  15) = (  -0.1362370   0.5156367   0.4497355  )

   Crystallographic axes

     site n.     atom                  positions (cryst. coord.)
         1           Ir  tau(   1) = (  0.0000000  0.0000000  0.0000000  )
         2           N   tau(   2) = (  0.6111000  0.6111000 -0.3889000  )
         3           N   tau(   3) = (  0.3889000  0.3889000 -0.6111000  )
         4           N   tau(   4) = (  0.8333000 -0.1667000 -0.1667000  )
         5           N   tau(   5) = (  0.1667000  0.1667000  0.1667000  )
         6           N   tau(   6) = (  0.5000000  0.5000000 -0.5000000  )
         7           Cl  tau(   7) = (  1.1067000  0.1067000 -0.3934000  )
         8           Cl  tau(   8) = (  0.6066000  0.1067000  0.1067000  )
         9           Cl  tau(   9) = (  1.1067000 -0.3934000  0.1067000  )
        10           Cl  tau(  10) = (  0.8933000 -0.1067000 -0.6066000  )
        11           Cl  tau(  11) = (  0.3934000 -0.1067000 -0.1067000  )
        12           Cl  tau(  12) = (  0.8933000 -0.6066000 -0.1067000  )
        13           O   tau(  13) = (  0.3800000  0.3800000 -0.2600000  )
        14           O   tau(  14) = (  0.7400000  0.3800000 -0.6200000  )
        15           O   tau(  15) = (  0.3800000  0.7400000 -0.6200000  )

     number of k points=    65  Marzari-Vanderbilt smearing, width (Ry)=  0.0100
                       cart. coord. in units 2pi/alat
        k(    1) = (   0.0000000   0.0000000   0.0000000), wk =   0.0019531
        k(    2) = (  -0.0000000  -0.1907027   0.0463235), wk =   0.0117188
        k(    3) = (  -0.0000000  -0.3814055   0.0926470), wk =   0.0117188
        k(    4) = (  -0.0000000  -0.5721082   0.1389706), wk =   0.0117188
        k(    5) = (   0.0000000   0.7628110  -0.1852941), wk =   0.0058594
        k(    6) = (  -0.1651534  -0.0953514   0.0926470), wk =   0.0117188
        k(    7) = (  -0.1651534  -0.2860541   0.1389706), wk =   0.0234375
        k(    8) = (  -0.1651534  -0.4767568   0.1852941), wk =   0.0234375
        k(    9) = (  -0.1651534   0.8581623  -0.1389706), wk =   0.0234375
        k(   10) = (  -0.1651534   0.6674596  -0.0926470), wk =   0.0234375
        k(   11) = (  -0.1651534   0.4767568  -0.0463235), wk =   0.0234375
        k(   12) = (  -0.1651534   0.2860541   0.0000000), wk =   0.0117188
        k(   13) = (  -0.3303068  -0.1907027   0.1852941), wk =   0.0117188
        k(   14) = (  -0.3303068  -0.3814055   0.2316176), wk =   0.0234375
        k(   15) = (  -0.3303068   0.9535137  -0.0926470), wk =   0.0234375
        k(   16) = (  -0.3303068   0.7628110  -0.0463235), wk =   0.0234375
        k(   17) = (  -0.3303068   0.5721082   0.0000000), wk =   0.0117188
        k(   18) = (  -0.4954603  -0.2860541   0.2779411), wk =   0.0117188
        k(   19) = (  -0.4954603   1.0488651  -0.0463235), wk =   0.0234375
        k(   20) = (  -0.4954603   0.8581623  -0.0000000), wk =   0.0117188
        k(   21) = (   0.6606137   0.3814055  -0.3705882), wk =   0.0058594
        k(   22) = (  -0.0000000   0.0000000   0.1389706), wk =   0.0039063
        k(   23) = (  -0.0000000  -0.1907027   0.1852941), wk =   0.0117188
        k(   24) = (  -0.0000000  -0.3814055   0.2316176), wk =   0.0117188
        k(   25) = (   0.0000000   0.9535137  -0.0926470), wk =   0.0117188
        k(   26) = (   0.0000000   0.7628110  -0.0463235), wk =   0.0117188
        k(   27) = (   0.0000000   0.5721082   0.0000000), wk =   0.0117188
        k(   28) = (   0.0000000   0.3814055   0.0463235), wk =   0.0117188
        k(   29) = (  -0.1651534  -0.0953514   0.2316176), wk =   0.0117188
        k(   30) = (  -0.1651534  -0.2860541   0.2779411), wk =   0.0234375
        k(   31) = (  -0.1651534   1.0488651  -0.0463235), wk =   0.0234375
        k(   32) = (  -0.1651534   0.8581623  -0.0000000), wk =   0.0234375
        k(   33) = (  -0.1651534   0.6674596   0.0463235), wk =   0.0234375
        k(   34) = (  -0.1651534   0.4767568   0.0926470), wk =   0.0234375
        k(   35) = (  -0.3303068  -0.1907027   0.3242646), wk =   0.0117188
        k(   36) = (  -0.3303068   1.1442164   0.0000000), wk =   0.0234375
        k(   37) = (  -0.3303068   0.9535137   0.0463235), wk =   0.0234375
        k(   38) = (  -0.3303068   0.7628110   0.0926470), wk =   0.0234375
        k(   39) = (  -0.3303068   0.5721082   0.1389706), wk =   0.0234375
        k(   40) = (   0.8257671   0.4767568  -0.3242646), wk =   0.0117188
        k(   41) = (   0.8257671   0.2860541  -0.2779411), wk =   0.0234375
        k(   42) = (   0.8257671   0.0953514  -0.2316176), wk =   0.0234375
        k(   43) = (   0.8257671  -0.0953514  -0.1852941), wk =   0.0117188
        k(   44) = (   0.6606137   0.3814055  -0.2316176), wk =   0.0117188
        k(   45) = (   0.6606137   0.1907027  -0.1852941), wk =   0.0234375
        k(   46) = (   0.4954603   0.2860541  -0.1389706), wk =   0.0117188
        k(   47) = (  -0.0000000   0.0000000   0.2779411), wk =   0.0039063
        k(   48) = (  -0.0000000  -0.1907027   0.3242646), wk =   0.0117188
        k(   49) = (   0.0000000   1.1442164   0.0000000), wk =   0.0117188
        k(   50) = (   0.0000000   0.9535137   0.0463235), wk =   0.0117188
        k(   51) = (   0.0000000   0.7628110   0.0926470), wk =   0.0117188
        k(   52) = (  -0.1651534  -0.0953514   0.3705882), wk =   0.0117188
        k(   53) = (  -0.1651534   1.2395678   0.0463235), wk =   0.0234375
        k(   54) = (  -0.1651534   1.0488651   0.0926470), wk =   0.0234375
        k(   55) = (  -0.1651534   0.8581623   0.1389706), wk =   0.0234375
        k(   56) = (   0.9909205   0.5721082  -0.2779411), wk =   0.0117188
        k(   57) = (   0.9909205   0.3814055  -0.2316176), wk =   0.0234375
        k(   58) = (   0.9909205   0.1907027  -0.1852941), wk =   0.0117188
        k(   59) = (   0.8257671   0.4767568  -0.1852941), wk =   0.0117188
        k(   60) = (  -0.0000000   0.0000000   0.4169117), wk =   0.0039063
        k(   61) = (  -0.0000000   1.3349192   0.0926470), wk =   0.0117188
        k(   62) = (  -0.0000000   1.1442164   0.1389706), wk =   0.0117188
        k(   63) = (   1.1560739   0.6674596  -0.2316176), wk =   0.0117188
        k(   64) = (   1.1560739   0.4767568  -0.1852941), wk =   0.0117188
        k(   65) = (   0.0000000   0.0000000  -0.5558822), wk =   0.0019531

                       cryst. coord.
        k(    1) = (   0.0000000   0.0000000   0.0000000), wk =   0.0019531
        k(    2) = (   0.0000000   0.0000000   0.1250000), wk =   0.0117188
        k(    3) = (   0.0000000   0.0000000   0.2500000), wk =   0.0117188
        k(    4) = (  -0.0000000   0.0000000   0.3750000), wk =   0.0117188
        k(    5) = (  -0.0000000  -0.0000000  -0.5000000), wk =   0.0058594
        k(    6) = (   0.0000000   0.1250000   0.1250000), wk =   0.0117188
        k(    7) = (  -0.0000000   0.1250000   0.2500000), wk =   0.0234375
        k(    8) = (   0.0000000   0.1250000   0.3750000), wk =   0.0234375
        k(    9) = (  -0.0000000   0.1250000  -0.5000000), wk =   0.0234375
        k(   10) = (   0.0000000   0.1250000  -0.3750000), wk =   0.0234375
        k(   11) = (  -0.0000000   0.1250000  -0.2500000), wk =   0.0234375
        k(   12) = (  -0.0000000   0.1250000  -0.1250000), wk =   0.0117188
        k(   13) = (   0.0000000   0.2500000   0.2500000), wk =   0.0117188
        k(   14) = (  -0.0000000   0.2500000   0.3750000), wk =   0.0234375
        k(   15) = (  -0.0000000   0.2500000  -0.5000000), wk =   0.0234375
        k(   16) = (  -0.0000000   0.2500000  -0.3750000), wk =   0.0234375
        k(   17) = (  -0.0000000   0.2500000  -0.2500000), wk =   0.0117188
        k(   18) = (  -0.0000000   0.3750000   0.3750000), wk =   0.0117188
        k(   19) = (  -0.0000000   0.3750000  -0.5000000), wk =   0.0234375
        k(   20) = (  -0.0000000   0.3750000  -0.3750000), wk =   0.0117188
        k(   21) = (  -0.0000000  -0.5000000  -0.5000000), wk =   0.0058594
        k(   22) = (   0.1250000   0.1250000   0.1250000), wk =   0.0039063
        k(   23) = (   0.1250000   0.1250000   0.2500000), wk =   0.0117188
        k(   24) = (   0.1250000   0.1250000   0.3750000), wk =   0.0117188
        k(   25) = (   0.1250000   0.1250000  -0.5000000), wk =   0.0117188
        k(   26) = (   0.1250000   0.1250000  -0.3750000), wk =   0.0117188
        k(   27) = (   0.1250000   0.1250000  -0.2500000), wk =   0.0117188
        k(   28) = (   0.1250000   0.1250000  -0.1250000), wk =   0.0117188
        k(   29) = (   0.1250000   0.2500000   0.2500000), wk =   0.0117188
        k(   30) = (   0.1250000   0.2500000   0.3750000), wk =   0.0234375
        k(   31) = (   0.1250000   0.2500000  -0.5000000), wk =   0.0234375
        k(   32) = (   0.1250000   0.2500000  -0.3750000), wk =   0.0234375
        k(   33) = (   0.1250000   0.2500000  -0.2500000), wk =   0.0234375
        k(   34) = (   0.1250000   0.2500000  -0.1250000), wk =   0.0234375
        k(   35) = (   0.1250000   0.3750000   0.3750000), wk =   0.0117188
        k(   36) = (   0.1250000   0.3750000  -0.5000000), wk =   0.0234375
        k(   37) = (   0.1250000   0.3750000  -0.3750000), wk =   0.0234375
        k(   38) = (   0.1250000   0.3750000  -0.2500000), wk =   0.0234375
        k(   39) = (   0.1250000   0.3750000  -0.1250000), wk =   0.0234375
        k(   40) = (   0.1250000  -0.5000000  -0.5000000), wk =   0.0117188
        k(   41) = (   0.1250000  -0.5000000  -0.3750000), wk =   0.0234375
        k(   42) = (   0.1250000  -0.5000000  -0.2500000), wk =   0.0234375
        k(   43) = (   0.1250000  -0.5000000  -0.1250000), wk =   0.0117188
        k(   44) = (   0.1250000  -0.3750000  -0.3750000), wk =   0.0117188
        k(   45) = (   0.1250000  -0.3750000  -0.2500000), wk =   0.0234375
        k(   46) = (   0.1250000  -0.2500000  -0.2500000), wk =   0.0117188
        k(   47) = (   0.2500000   0.2500000   0.2500000), wk =   0.0039063
        k(   48) = (   0.2500000   0.2500000   0.3750000), wk =   0.0117188
        k(   49) = (   0.2500000   0.2500000  -0.5000000), wk =   0.0117188
        k(   50) = (   0.2500000   0.2500000  -0.3750000), wk =   0.0117188
        k(   51) = (   0.2500000   0.2500000  -0.2500000), wk =   0.0117188
        k(   52) = (   0.2500000   0.3750000   0.3750000), wk =   0.0117188
        k(   53) = (   0.2500000   0.3750000  -0.5000000), wk =   0.0234375
        k(   54) = (   0.2500000   0.3750000  -0.3750000), wk =   0.0234375
        k(   55) = (   0.2500000   0.3750000  -0.2500000), wk =   0.0234375
        k(   56) = (   0.2500000  -0.5000000  -0.5000000), wk =   0.0117188
        k(   57) = (   0.2500000  -0.5000000  -0.3750000), wk =   0.0234375
        k(   58) = (   0.2500000  -0.5000000  -0.2500000), wk =   0.0117188
        k(   59) = (   0.2500000  -0.3750000  -0.3750000), wk =   0.0117188
        k(   60) = (   0.3750000   0.3750000   0.3750000), wk =   0.0039063
        k(   61) = (   0.3750000   0.3750000  -0.5000000), wk =   0.0117188
        k(   62) = (   0.3750000   0.3750000  -0.3750000), wk =   0.0117188
        k(   63) = (   0.3750000  -0.5000000  -0.5000000), wk =   0.0117188
        k(   64) = (   0.3750000  -0.5000000  -0.3750000), wk =   0.0117188
        k(   65) = (  -0.5000000  -0.5000000  -0.5000000), wk =   0.0019531

     Dense  grid:   405079 G-vectors     FFT dimensions: ( 125, 125, 125)

     Smooth grid:   143291 G-vectors     FFT dimensions: (  90,  90,  90)

     Dynamical RAM for                 wfc:      16.39 MB

     Dynamical RAM for     wfc (w. buffer):    2147.66 MB

     Dynamical RAM for           str. fact:      24.72 MB

     Dynamical RAM for           local pot:       0.00 MB

     Dynamical RAM for          nlocal pot:      52.74 MB

     Dynamical RAM for                qrad:       9.37 MB

     Dynamical RAM for          rho,v,vnew:     126.49 MB

     Dynamical RAM for               rhoin:      42.16 MB

     Dynamical RAM for            rho*nmix:     197.79 MB

     Dynamical RAM for           G-vectors:      24.27 MB

     Dynamical RAM for          h,s,v(r/c):       0.66 MB

     Dynamical RAM for          <psi|beta>:       0.18 MB

     Dynamical RAM for                 psi:      32.79 MB

     Dynamical RAM for                hpsi:      32.79 MB

     Dynamical RAM for                spsi:      32.79 MB

     Dynamical RAM for      wfcinit/wfcrot:      32.87 MB

     Dynamical RAM for           addusdens:    1563.80 MB

     Dynamical RAM for          addusforce:    1625.67 MB

     Dynamical RAM for         addusstress:    1622.52 MB

     Estimated static dynamical RAM per process >       2.49 GB

     Estimated max dynamical RAM per process >       4.27 GB

     Atomic positions and unit cell read from directory:
     ./out/aiida.save/
 
     Generating pointlists ...
     new r_m :   0.1122 (alat units)  1.9328 (a.u.) for type    1
     new r_m :   0.1122 (alat units)  1.9328 (a.u.) for type    2
     new r_m :   0.0649 (alat units)  1.1179 (a.u.) for type    3
     new r_m :   0.0649 (alat units)  1.1179 (a.u.) for type    4

     The initial density is read from file :
     ./out/aiida.save/charge-density


     negative rho (up, down):  2.229E-01 1.833E-01
     Starting wfcs from file
     Checking if some PAW data can be deallocated... 

     total cpu time spent up to now is        7.0 secs

     per-process dynamical memory:   733.9 Mb

     Self-consistent Calculation
[tb_dev] Currently allocated     1.14E-04 Mbytes, locked:    0 /   2
[tb_pin] Currently allocated     0.00E+00 Mbytes, locked:    0 /   0

     iteration #  1     ecut=    60.00 Ry     beta= 0.10
     Davidson diagonalization with overlap

---- Real-time Memory Report at c_bands before calling an iterative solver
           938 MiB given to the printing process from OS
           756 MiB allocation reported by mallinfo(arena+hblkhd)
         58651 MiB available memory on the node where the printing process lives
     GPU memory used/free/total (MiB): 2020 / 14260 / 16280
------------------
     ethr =  1.00E-05,  avg # of iterations =  2.0

     Threshold (ethr) on eigenvalues was too large:
     Diagonalizing with lowered threshold

     Davidson diagonalization with overlap

---- Real-time Memory Report at c_bands before calling an iterative solver
          3440 MiB given to the printing process from OS
          -888 MiB allocation reported by mallinfo(arena+hblkhd)
         53389 MiB available memory on the node where the printing process lives
     GPU memory used/free/total (MiB): 6246 / 10034 / 16280
------------------
     ethr =  5.42E-07,  avg # of iterations =  1.0

     negative rho (up, down):  2.227E-01 1.834E-01

     total cpu time spent up to now is       40.3 secs

     total energy              =    -602.90484461 Ry
     estimated scf accuracy    <       0.00053675 Ry

     total magnetization       =    14.49 Bohr mag/cell
     absolute magnetization    =    14.67 Bohr mag/cell
[tb_dev] Currently allocated     5.07E+00 Mbytes, locked:    0 /   6
[tb_pin] Currently allocated     0.00E+00 Mbytes, locked:    0 /   0

     iteration #  2     ecut=    60.00 Ry     beta= 0.10
     Davidson diagonalization with overlap

---- Real-time Memory Report at c_bands before calling an iterative solver
          3581 MiB given to the printing process from OS
          -806 MiB allocation reported by mallinfo(arena+hblkhd)
         53314 MiB available memory on the node where the printing process lives
     GPU memory used/free/total (MiB): 6246 / 10034 / 16280
------------------
     ethr =  5.37E-07,  avg # of iterations =  1.0

     negative rho (up, down):  2.226E-01 1.835E-01

     total cpu time spent up to now is       55.3 secs

     total energy              =    -602.90491267 Ry
     estimated scf accuracy    <       0.00031117 Ry

     total magnetization       =    14.45 Bohr mag/cell
     absolute magnetization    =    14.63 Bohr mag/cell
[tb_dev] Currently allocated     5.07E+00 Mbytes, locked:    0 /   6
[tb_pin] Currently allocated     0.00E+00 Mbytes, locked:    0 /   0

     iteration #  3     ecut=    60.00 Ry     beta= 0.10
     Davidson diagonalization with overlap

---- Real-time Memory Report at c_bands before calling an iterative solver
          3662 MiB given to the printing process from OS
          -787 MiB allocation reported by mallinfo(arena+hblkhd)
         53299 MiB available memory on the node where the printing process lives
     GPU memory used/free/total (MiB): 6246 / 10034 / 16280
------------------
     ethr =  3.11E-07,  avg # of iterations =  1.0

     negative rho (up, down):  2.222E-01 1.839E-01

     total cpu time spent up to now is       70.5 secs

     total energy              =    -602.90499293 Ry
     estimated scf accuracy    <       0.00014541 Ry

     total magnetization       =    14.44 Bohr mag/cell
     absolute magnetization    =    14.62 Bohr mag/cell
[tb_dev] Currently allocated     5.07E+00 Mbytes, locked:    0 /   6
[tb_pin] Currently allocated     0.00E+00 Mbytes, locked:    0 /   0

     iteration #  4     ecut=    60.00 Ry     beta= 0.10
     Davidson diagonalization with overlap

---- Real-time Memory Report at c_bands before calling an iterative solver
          3748 MiB given to the printing process from OS
          -769 MiB allocation reported by mallinfo(arena+hblkhd)
         53281 MiB available memory on the node where the printing process lives
     GPU memory used/free/total (MiB): 6246 / 10034 / 16280
------------------
     ethr =  1.45E-07,  avg # of iterations =  1.0

     negative rho (up, down):  2.223E-01 1.838E-01

     total cpu time spent up to now is       85.5 secs

     total energy              =    -602.90498351 Ry
     estimated scf accuracy    <       0.00013014 Ry

     total magnetization       =    14.38 Bohr mag/cell
     absolute magnetization    =    14.55 Bohr mag/cell
[tb_dev] Currently allocated     5.07E+00 Mbytes, locked:    0 /   6
[tb_pin] Currently allocated     0.00E+00 Mbytes, locked:    0 /   0

     iteration #  5     ecut=    60.00 Ry     beta= 0.10
     Davidson diagonalization with overlap

---- Real-time Memory Report at c_bands before calling an iterative solver
          3833 MiB given to the printing process from OS
          -751 MiB allocation reported by mallinfo(arena+hblkhd)
         53263 MiB available memory on the node where the printing process lives
     GPU memory used/free/total (MiB): 6246 / 10034 / 16280
------------------
     ethr =  1.30E-07,  avg # of iterations =  1.0

     negative rho (up, down):  2.194E-01 1.867E-01

     total cpu time spent up to now is      100.6 secs

     total energy              =    -602.90506265 Ry
     estimated scf accuracy    <       0.00012954 Ry

     total magnetization       =    14.39 Bohr mag/cell
     absolute magnetization    =    14.56 Bohr mag/cell
[tb_dev] Currently allocated     5.07E+00 Mbytes, locked:    0 /   6
[tb_pin] Currently allocated     0.00E+00 Mbytes, locked:    0 /   0

     iteration #  6     ecut=    60.00 Ry     beta= 0.10
     Davidson diagonalization with overlap

---- Real-time Memory Report at c_bands before calling an iterative solver
          3908 MiB given to the printing process from OS
          -741 MiB allocation reported by mallinfo(arena+hblkhd)
         53253 MiB available memory on the node where the printing process lives
     GPU memory used/free/total (MiB): 6246 / 10034 / 16280
------------------
     ethr =  1.30E-07,  avg # of iterations =  2.8

     negative rho (up, down):  2.204E-01 1.858E-01

     total cpu time spent up to now is      121.4 secs

     total energy              =    -602.90533391 Ry
     estimated scf accuracy    <       0.00013014 Ry

     total magnetization       =    14.03 Bohr mag/cell
     absolute magnetization    =    14.18 Bohr mag/cell
[tb_dev] Currently allocated     5.07E+00 Mbytes, locked:    0 /   6
[tb_pin] Currently allocated     0.00E+00 Mbytes, locked:    0 /   0

     iteration #  7     ecut=    60.00 Ry     beta= 0.10
     Davidson diagonalization with overlap

---- Real-time Memory Report at c_bands before calling an iterative solver
          3996 MiB given to the printing process from OS
          -719 MiB allocation reported by mallinfo(arena+hblkhd)
         53232 MiB available memory on the node where the printing process lives
     GPU memory used/free/total (MiB): 6538 / 9742 / 16280
------------------
     ethr =  1.30E-07,  avg # of iterations =  1.5

     negative rho (up, down):  2.241E-01 1.820E-01

     total cpu time spent up to now is      137.2 secs

     total energy              =    -602.90365195 Ry
     estimated scf accuracy    <       0.00013127 Ry

     total magnetization       =    14.16 Bohr mag/cell
     absolute magnetization    =    14.32 Bohr mag/cell
[tb_dev] Currently allocated     5.07E+00 Mbytes, locked:    0 /   6
[tb_pin] Currently allocated     0.00E+00 Mbytes, locked:    0 /   0

     iteration #  8     ecut=    60.00 Ry     beta= 0.10
     Davidson diagonalization with overlap

---- Real-time Memory Report at c_bands before calling an iterative solver
          4067 MiB given to the printing process from OS
          -713 MiB allocation reported by mallinfo(arena+hblkhd)
         53227 MiB available memory on the node where the printing process lives
     GPU memory used/free/total (MiB): 6538 / 9742 / 16280
------------------
     ethr =  1.30E-07,  avg # of iterations =  3.8

     negative rho (up, down):  2.169E-01 1.893E-01

     total cpu time spent up to now is      158.5 secs

     total energy              =    -602.90290685 Ry
     estimated scf accuracy    <       0.00019758 Ry

     total magnetization       =    14.62 Bohr mag/cell
     absolute magnetization    =    14.81 Bohr mag/cell
[tb_dev] Currently allocated     5.07E+00 Mbytes, locked:    0 /   6
[tb_pin] Currently allocated     0.00E+00 Mbytes, locked:    0 /   0

     iteration #  9     ecut=    60.00 Ry     beta= 0.10
     Davidson diagonalization with overlap

---- Real-time Memory Report at c_bands before calling an iterative solver
          4135 MiB given to the printing process from OS
          -686 MiB allocation reported by mallinfo(arena+hblkhd)
         53200 MiB available memory on the node where the printing process lives
     GPU memory used/free/total (MiB): 6538 / 9742 / 16280
------------------
     ethr =  1.30E-07,  avg # of iterations =  4.6

     negative rho (up, down):  2.257E-01 1.805E-01

     total cpu time spent up to now is      183.3 secs

     total energy              =    -602.89882566 Ry
     estimated scf accuracy    <       0.00060514 Ry

     total magnetization       =    13.68 Bohr mag/cell
     absolute magnetization    =    13.82 Bohr mag/cell
[tb_dev] Currently allocated     5.07E+00 Mbytes, locked:    0 /   6
[tb_pin] Currently allocated     0.00E+00 Mbytes, locked:    0 /   0

     iteration # 10     ecut=    60.00 Ry     beta= 0.10
     Davidson diagonalization with overlap

---- Real-time Memory Report at c_bands before calling an iterative solver
          4178 MiB given to the printing process from OS
          -672 MiB allocation reported by mallinfo(arena+hblkhd)
         53186 MiB available memory on the node where the printing process lives
     GPU memory used/free/total (MiB): 6538 / 9742 / 16280
------------------
     ethr =  1.30E-07,  avg # of iterations =  5.5

     negative rho (up, down):  2.318E-01 1.745E-01

     total cpu time spent up to now is      209.3 secs

     total energy              =    -602.90006731 Ry
     estimated scf accuracy    <       0.00094897 Ry

     total magnetization       =    14.82 Bohr mag/cell
     absolute magnetization    =    15.01 Bohr mag/cell
[tb_dev] Currently allocated     5.07E+00 Mbytes, locked:    0 /   6
[tb_pin] Currently allocated     0.00E+00 Mbytes, locked:    0 /   0

     iteration # 11     ecut=    60.00 Ry     beta= 0.10
     Davidson diagonalization with overlap

---- Real-time Memory Report at c_bands before calling an iterative solver
          4211 MiB given to the printing process from OS
          -667 MiB allocation reported by mallinfo(arena+hblkhd)
         53182 MiB available memory on the node where the printing process lives
     GPU memory used/free/total (MiB): 6538 / 9742 / 16280
------------------
     ethr =  1.30E-07,  avg # of iterations =  5.4

     negative rho (up, down):  2.280E-01 1.782E-01

     total cpu time spent up to now is      234.8 secs

     total energy              =    -602.90291904 Ry
     estimated scf accuracy    <       0.00302695 Ry

     total magnetization       =    15.40 Bohr mag/cell
     absolute magnetization    =    15.63 Bohr mag/cell
[tb_dev] Currently allocated     5.07E+00 Mbytes, locked:    0 /   6
[tb_pin] Currently allocated     0.00E+00 Mbytes, locked:    0 /   0

     iteration # 12     ecut=    60.00 Ry     beta= 0.10
     Davidson diagonalization with overlap

---- Real-time Memory Report at c_bands before calling an iterative solver
          4237 MiB given to the printing process from OS
          -662 MiB allocation reported by mallinfo(arena+hblkhd)
         53175 MiB available memory on the node where the printing process lives
     GPU memory used/free/total (MiB): 6538 / 9742 / 16280
------------------
     ethr =  1.30E-07,  avg # of iterations =  3.0

     negative rho (up, down):  2.236E-01 1.826E-01

     total cpu time spent up to now is      255.3 secs

     total energy              =    -602.90374197 Ry
     estimated scf accuracy    <       0.00112474 Ry

     total magnetization       =    15.05 Bohr mag/cell
     absolute magnetization    =    15.26 Bohr mag/cell
[tb_dev] Currently allocated     5.07E+00 Mbytes, locked:    0 /   6
[tb_pin] Currently allocated     0.00E+00 Mbytes, locked:    0 /   0

     iteration # 13     ecut=    60.00 Ry     beta= 0.10
     Davidson diagonalization with overlap

---- Real-time Memory Report at c_bands before calling an iterative solver
          4263 MiB given to the printing process from OS
          -657 MiB allocation reported by mallinfo(arena+hblkhd)
         53172 MiB available memory on the node where the printing process lives
     GPU memory used/free/total (MiB): 6538 / 9742 / 16280
------------------
     ethr =  1.30E-07,  avg # of iterations =  4.7

     negative rho (up, down):  2.219E-01 1.842E-01

     total cpu time spent up to now is      278.3 secs

     total energy              =    -602.90491787 Ry
     estimated scf accuracy    <       0.00041279 Ry

     total magnetization       =    14.57 Bohr mag/cell
     absolute magnetization    =    14.75 Bohr mag/cell
[tb_dev] Currently allocated     5.07E+00 Mbytes, locked:    0 /   6
[tb_pin] Currently allocated     0.00E+00 Mbytes, locked:    0 /   0

     iteration # 14     ecut=    60.00 Ry     beta= 0.10
     Davidson diagonalization with overlap

---- Real-time Memory Report at c_bands before calling an iterative solver
          4288 MiB given to the printing process from OS
          -652 MiB allocation reported by mallinfo(arena+hblkhd)
         53166 MiB available memory on the node where the printing process lives
     GPU memory used/free/total (MiB): 6538 / 9742 / 16280
------------------
     ethr =  1.30E-07,  avg # of iterations =  2.2

     negative rho (up, down):  2.144E-01 1.918E-01

     total cpu time spent up to now is      296.6 secs

     total energy              =    -602.90292161 Ry
     estimated scf accuracy    <       0.00040061 Ry

     total magnetization       =    14.37 Bohr mag/cell
     absolute magnetization    =    14.54 Bohr mag/cell
[tb_dev] Currently allocated     5.07E+00 Mbytes, locked:    0 /   6
[tb_pin] Currently allocated     0.00E+00 Mbytes, locked:    0 /   0

     iteration # 15     ecut=    60.00 Ry     beta= 0.10
     Davidson diagonalization with overlap

---- Real-time Memory Report at c_bands before calling an iterative solver
          4314 MiB given to the printing process from OS
          -647 MiB allocation reported by mallinfo(arena+hblkhd)
         53162 MiB available memory on the node where the printing process lives
     GPU memory used/free/total (MiB): 6538 / 9742 / 16280
------------------
     ethr =  1.30E-07,  avg # of iterations =  6.1

     negative rho (up, down):  2.206E-01 1.855E-01

     total cpu time spent up to now is      323.2 secs

     total energy              =    -602.90230866 Ry
     estimated scf accuracy    <       0.00114497 Ry

     total magnetization       =    13.30 Bohr mag/cell
     absolute magnetization    =    13.42 Bohr mag/cell
[tb_dev] Currently allocated     5.07E+00 Mbytes, locked:    0 /   6
[tb_pin] Currently allocated     0.00E+00 Mbytes, locked:    0 /   0

     iteration # 16     ecut=    60.00 Ry     beta= 0.10
     Davidson diagonalization with overlap

---- Real-time Memory Report at c_bands before calling an iterative solver
          4339 MiB given to the printing process from OS
          -642 MiB allocation reported by mallinfo(arena+hblkhd)
         53157 MiB available memory on the node where the printing process lives
     GPU memory used/free/total (MiB): 6538 / 9742 / 16280
------------------
     ethr =  1.30E-07,  avg # of iterations =  4.6

     negative rho (up, down):  2.241E-01 1.821E-01

     total cpu time spent up to now is      347.1 secs

     total energy              =    -602.90382071 Ry
     estimated scf accuracy    <       0.00041983 Ry

     total magnetization       =    14.20 Bohr mag/cell
     absolute magnetization    =    14.36 Bohr mag/cell
[tb_dev] Currently allocated     5.07E+00 Mbytes, locked:    0 /   6
[tb_pin] Currently allocated     0.00E+00 Mbytes, locked:    0 /   0

     iteration # 17     ecut=    60.00 Ry     beta= 0.10
     Davidson diagonalization with overlap

---- Real-time Memory Report at c_bands before calling an iterative solver
          4363 MiB given to the printing process from OS
          -637 MiB allocation reported by mallinfo(arena+hblkhd)
         53154 MiB available memory on the node where the printing process lives
     GPU memory used/free/total (MiB): 6538 / 9742 / 16280
------------------
     ethr =  1.30E-07,  avg # of iterations =  3.5

     negative rho (up, down):  2.240E-01 1.821E-01

     total cpu time spent up to now is      368.0 secs

     total energy              =    -602.90462495 Ry
     estimated scf accuracy    <       0.00058276 Ry

     total magnetization       =    14.64 Bohr mag/cell
     absolute magnetization    =    14.82 Bohr mag/cell
[tb_dev] Currently allocated     5.07E+00 Mbytes, locked:    0 /   6
[tb_pin] Currently allocated     0.00E+00 Mbytes, locked:    0 /   0

     iteration # 18     ecut=    60.00 Ry     beta= 0.10
     Davidson diagonalization with overlap

---- Real-time Memory Report at c_bands before calling an iterative solver
          4373 MiB given to the printing process from OS
          -632 MiB allocation reported by mallinfo(arena+hblkhd)
         53148 MiB available memory on the node where the printing process lives
     GPU memory used/free/total (MiB): 6538 / 9742 / 16280
------------------
     ethr =  1.30E-07,  avg # of iterations =  1.0

     negative rho (up, down):  2.240E-01 1.822E-01

     total cpu time spent up to now is      383.1 secs

     total energy              =    -602.90464596 Ry
     estimated scf accuracy    <       0.00057501 Ry

     total magnetization       =    14.63 Bohr mag/cell
     absolute magnetization    =    14.81 Bohr mag/cell
[tb_dev] Currently allocated     5.07E+00 Mbytes, locked:    0 /   6
[tb_pin] Currently allocated     0.00E+00 Mbytes, locked:    0 /   0

     iteration # 19     ecut=    60.00 Ry     beta= 0.10
     Davidson diagonalization with overlap

---- Real-time Memory Report at c_bands before calling an iterative solver
          4383 MiB given to the printing process from OS
          -627 MiB allocation reported by mallinfo(arena+hblkhd)
         53144 MiB available memory on the node where the printing process lives
     GPU memory used/free/total (MiB): 6538 / 9742 / 16280
------------------
     ethr =  1.30E-07,  avg # of iterations =  1.0

     negative rho (up, down):  2.299E-01 1.763E-01

     total cpu time spent up to now is      398.4 secs

     total energy              =    -602.90092047 Ry
     estimated scf accuracy    <       0.00057571 Ry

     total magnetization       =    14.62 Bohr mag/cell
     absolute magnetization    =    14.81 Bohr mag/cell
[tb_dev] Currently allocated     5.07E+00 Mbytes, locked:    0 /   6
[tb_pin] Currently allocated     0.00E+00 Mbytes, locked:    0 /   0

     iteration # 20     ecut=    60.00 Ry     beta= 0.10
     Davidson diagonalization with overlap

---- Real-time Memory Report at c_bands before calling an iterative solver
          4392 MiB given to the printing process from OS
          -622 MiB allocation reported by mallinfo(arena+hblkhd)
         53136 MiB available memory on the node where the printing process lives
     GPU memory used/free/total (MiB): 6538 / 9742 / 16280
------------------
     ethr =  1.30E-07,  avg # of iterations =  5.0

     negative rho (up, down):  2.248E-01 1.813E-01

     total cpu time spent up to now is      423.1 secs

     total energy              =    -602.90325613 Ry
     estimated scf accuracy    <       0.00201432 Ry

     total magnetization       =    15.26 Bohr mag/cell
     absolute magnetization    =    15.48 Bohr mag/cell
[tb_dev] Currently allocated     5.07E+00 Mbytes, locked:    0 /   6
[tb_pin] Currently allocated     0.00E+00 Mbytes, locked:    0 /   0

     iteration # 21     ecut=    60.00 Ry     beta= 0.10
     Davidson diagonalization with overlap

---- Real-time Memory Report at c_bands before calling an iterative solver
          4402 MiB given to the printing process from OS
          -617 MiB allocation reported by mallinfo(arena+hblkhd)
         53134 MiB available memory on the node where the printing process lives
     GPU memory used/free/total (MiB): 6538 / 9742 / 16280
------------------
     ethr =  1.30E-07,  avg # of iterations =  4.5

     negative rho (up, down):  2.240E-01 1.822E-01

     total cpu time spent up to now is      445.7 secs

     total energy              =    -602.90460275 Ry
     estimated scf accuracy    <       0.00067275 Ry

     total magnetization       =    14.73 Bohr mag/cell
     absolute magnetization    =    14.92 Bohr mag/cell
[tb_dev] Currently allocated     5.07E+00 Mbytes, locked:    0 /   6
[tb_pin] Currently allocated     0.00E+00 Mbytes, locked:    0 /   0

     iteration # 22     ecut=    60.00 Ry     beta= 0.10
     Davidson diagonalization with overlap

---- Real-time Memory Report at c_bands before calling an iterative solver
          4412 MiB given to the printing process from OS
          -612 MiB allocation reported by mallinfo(arena+hblkhd)
         53130 MiB available memory on the node where the printing process lives
     GPU memory used/free/total (MiB): 6538 / 9742 / 16280
------------------
     ethr =  1.30E-07,  avg # of iterations =  2.0

     negative rho (up, down):  2.241E-01 1.820E-01

     total cpu time spent up to now is      462.1 secs

     total energy              =    -602.90460984 Ry
     estimated scf accuracy    <       0.00058894 Ry

     total magnetization       =    14.62 Bohr mag/cell
     absolute magnetization    =    14.81 Bohr mag/cell
[tb_dev] Currently allocated     5.07E+00 Mbytes, locked:    0 /   6
[tb_pin] Currently allocated     0.00E+00 Mbytes, locked:    0 /   0

     iteration # 23     ecut=    60.00 Ry     beta= 0.10
     Davidson diagonalization with overlap

---- Real-time Memory Report at c_bands before calling an iterative solver
          4419 MiB given to the printing process from OS
          -606 MiB allocation reported by mallinfo(arena+hblkhd)
         53124 MiB available memory on the node where the printing process lives
     GPU memory used/free/total (MiB): 6538 / 9742 / 16280
------------------
     ethr =  1.30E-07,  avg # of iterations =  1.0

     negative rho (up, down):  2.244E-01 1.817E-01

     total cpu time spent up to now is      477.1 secs

     total energy              =    -602.90453545 Ry
     estimated scf accuracy    <       0.00060950 Ry

     total magnetization       =    14.64 Bohr mag/cell
     absolute magnetization    =    14.83 Bohr mag/cell
[tb_dev] Currently allocated     5.07E+00 Mbytes, locked:    0 /   6
[tb_pin] Currently allocated     0.00E+00 Mbytes, locked:    0 /   0

     iteration # 24     ecut=    60.00 Ry     beta= 0.10
     Davidson diagonalization with overlap

---- Real-time Memory Report at c_bands before calling an iterative solver
          4424 MiB given to the printing process from OS
          -601 MiB allocation reported by mallinfo(arena+hblkhd)
         53115 MiB available memory on the node where the printing process lives
     GPU memory used/free/total (MiB): 6538 / 9742 / 16280
------------------
     ethr =  1.30E-07,  avg # of iterations =  1.0

     negative rho (up, down):  2.151E-01 1.910E-01

     total cpu time spent up to now is      492.1 secs

     total energy              =    -602.90111964 Ry
     estimated scf accuracy    <       0.00063910 Ry

     total magnetization       =    14.68 Bohr mag/cell
     absolute magnetization    =    14.87 Bohr mag/cell
[tb_dev] Currently allocated     5.07E+00 Mbytes, locked:    0 /   6
[tb_pin] Currently allocated     0.00E+00 Mbytes, locked:    0 /   0

     iteration # 25     ecut=    60.00 Ry     beta= 0.10
     Davidson diagonalization with overlap

---- Real-time Memory Report at c_bands before calling an iterative solver
          4429 MiB given to the printing process from OS
          -595 MiB allocation reported by mallinfo(arena+hblkhd)
         53113 MiB available memory on the node where the printing process lives
     GPU memory used/free/total (MiB): 6538 / 9742 / 16280
------------------
     ethr =  1.30E-07,  avg # of iterations =  6.4

     negative rho (up, down):  2.151E-01 1.911E-01

     total cpu time spent up to now is      519.9 secs

     total energy              =    -602.90673174 Ry
     estimated scf accuracy    <       0.00096094 Ry

     total magnetization       =    13.42 Bohr mag/cell
     absolute magnetization    =    13.54 Bohr mag/cell
[tb_dev] Currently allocated     5.07E+00 Mbytes, locked:    0 /   6
[tb_pin] Currently allocated     0.00E+00 Mbytes, locked:    0 /   0

     iteration # 26     ecut=    60.00 Ry     beta= 0.10
     Davidson diagonalization with overlap

---- Real-time Memory Report at c_bands before calling an iterative solver
          4435 MiB given to the printing process from OS
          -590 MiB allocation reported by mallinfo(arena+hblkhd)
         53106 MiB available memory on the node where the printing process lives
     GPU memory used/free/total (MiB): 6538 / 9742 / 16280
------------------
     ethr =  1.30E-07,  avg # of iterations =  1.1

     negative rho (up, down):  2.226E-01 1.835E-01

     total cpu time spent up to now is      535.1 secs

     total energy              =    -602.90068680 Ry
     estimated scf accuracy    <       0.00093687 Ry

     total magnetization       =    13.41 Bohr mag/cell
     absolute magnetization    =    13.54 Bohr mag/cell
[tb_dev] Currently allocated     5.07E+00 Mbytes, locked:    0 /   6
[tb_pin] Currently allocated     0.00E+00 Mbytes, locked:    0 /   0

     iteration # 27     ecut=    60.00 Ry     beta= 0.10
     Davidson diagonalization with overlap

---- Real-time Memory Report at c_bands before calling an iterative solver
          4440 MiB given to the printing process from OS
          -584 MiB allocation reported by mallinfo(arena+hblkhd)
         53102 MiB available memory on the node where the printing process lives
     GPU memory used/free/total (MiB): 6538 / 9742 / 16280
------------------
     ethr =  1.30E-07,  avg # of iterations =  4.8

     negative rho (up, down):  2.252E-01 1.810E-01

     total cpu time spent up to now is      560.2 secs

     total energy              =    -602.90394366 Ry
     estimated scf accuracy    <       0.00044829 Ry

     total magnetization       =    14.45 Bohr mag/cell
     absolute magnetization    =    14.63 Bohr mag/cell
[tb_dev] Currently allocated     5.07E+00 Mbytes, locked:    0 /   6
[tb_pin] Currently allocated     0.00E+00 Mbytes, locked:    0 /   0

     iteration # 28     ecut=    60.00 Ry     beta= 0.10
     Davidson diagonalization with overlap

---- Real-time Memory Report at c_bands before calling an iterative solver
          4446 MiB given to the printing process from OS
          -579 MiB allocation reported by mallinfo(arena+hblkhd)
         53094 MiB available memory on the node where the printing process lives
     GPU memory used/free/total (MiB): 6538 / 9742 / 16280
------------------
     ethr =  1.30E-07,  avg # of iterations =  3.1

     negative rho (up, down):  2.208E-01 1.853E-01

     total cpu time spent up to now is      580.8 secs

     total energy              =    -602.90421344 Ry
     estimated scf accuracy    <       0.00069128 Ry

     total magnetization       =    14.76 Bohr mag/cell
     absolute magnetization    =    14.95 Bohr mag/cell
[tb_dev] Currently allocated     5.07E+00 Mbytes, locked:    0 /   6
[tb_pin] Currently allocated     0.00E+00 Mbytes, locked:    0 /   0

     iteration # 29     ecut=    60.00 Ry     beta= 0.10
     Davidson diagonalization with overlap

---- Real-time Memory Report at c_bands before calling an iterative solver
          4451 MiB given to the printing process from OS
          -573 MiB allocation reported by mallinfo(arena+hblkhd)
         53090 MiB available memory on the node where the printing process lives
     GPU memory used/free/total (MiB): 6538 / 9742 / 16280
------------------
     ethr =  1.30E-07,  avg # of iterations =  3.3

     negative rho (up, down):  2.316E-01 1.746E-01

     total cpu time spent up to now is      601.7 secs

     total energy              =    -602.89533529 Ry
     estimated scf accuracy    <       0.00038912 Ry

     total magnetization       =    14.22 Bohr mag/cell
     absolute magnetization    =    14.39 Bohr mag/cell
[tb_dev] Currently allocated     5.07E+00 Mbytes, locked:    0 /   6
[tb_pin] Currently allocated     0.00E+00 Mbytes, locked:    0 /   0

     iteration # 30     ecut=    60.00 Ry     beta= 0.10
     Davidson diagonalization with overlap

---- Real-time Memory Report at c_bands before calling an iterative solver
          4456 MiB given to the printing process from OS
          -568 MiB allocation reported by mallinfo(arena+hblkhd)
         53086 MiB available memory on the node where the printing process lives
     GPU memory used/free/total (MiB): 6538 / 9742 / 16280
------------------
     ethr =  1.30E-07,  avg # of iterations =  6.4

     negative rho (up, down):  2.210E-01 1.851E-01

     total cpu time spent up to now is      629.7 secs

     total energy              =    -602.90007499 Ry
     estimated scf accuracy    <       0.00275539 Ry

     total magnetization       =    15.40 Bohr mag/cell
     absolute magnetization    =    15.63 Bohr mag/cell
[tb_dev] Currently allocated     5.07E+00 Mbytes, locked:    0 /   6
[tb_pin] Currently allocated     0.00E+00 Mbytes, locked:    0 /   0

     iteration # 31     ecut=    60.00 Ry     beta= 0.10
     Davidson diagonalization with overlap

---- Real-time Memory Report at c_bands before calling an iterative solver
          4466 MiB given to the printing process from OS
          -562 MiB allocation reported by mallinfo(arena+hblkhd)
         53078 MiB available memory on the node where the printing process lives
     GPU memory used/free/total (MiB): 6538 / 9742 / 16280
------------------
     ethr =  1.30E-07,  avg # of iterations =  6.5

     negative rho (up, down):  2.214E-01 1.848E-01

     total cpu time spent up to now is      657.6 secs

     total energy              =    -602.90520904 Ry
     estimated scf accuracy    <       0.00038459 Ry

     total magnetization       =    14.25 Bohr mag/cell
     absolute magnetization    =    14.41 Bohr mag/cell
[tb_dev] Currently allocated     5.07E+00 Mbytes, locked:    0 /   6
[tb_pin] Currently allocated     0.00E+00 Mbytes, locked:    0 /   0

     iteration # 32     ecut=    60.00 Ry     beta= 0.10
     Davidson diagonalization with overlap

---- Real-time Memory Report at c_bands before calling an iterative solver
          4467 MiB given to the printing process from OS
          -557 MiB allocation reported by mallinfo(arena+hblkhd)
         53070 MiB available memory on the node where the printing process lives
     GPU memory used/free/total (MiB): 6538 / 9742 / 16280
------------------
     ethr =  1.30E-07,  avg # of iterations =  1.1

     negative rho (up, down):  2.222E-01 1.840E-01

     total cpu time spent up to now is      672.6 secs

     total energy              =    -602.90500180 Ry
     estimated scf accuracy    <       0.00039864 Ry

     total magnetization       =    14.30 Bohr mag/cell
     absolute magnetization    =    14.46 Bohr mag/cell
[tb_dev] Currently allocated     5.07E+00 Mbytes, locked:    0 /   6
[tb_pin] Currently allocated     0.00E+00 Mbytes, locked:    0 /   0

     iteration # 33     ecut=    60.00 Ry     beta= 0.10
     Davidson diagonalization with overlap

---- Real-time Memory Report at c_bands before calling an iterative solver
          4477 MiB given to the printing process from OS
          -551 MiB allocation reported by mallinfo(arena+hblkhd)
         53069 MiB available memory on the node where the printing process lives
     GPU memory used/free/total (MiB): 6538 / 9742 / 16280
------------------
     ethr =  1.30E-07,  avg # of iterations =  1.6

     negative rho (up, down):  2.209E-01 1.852E-01

     total cpu time spent up to now is      688.7 secs

     total energy              =    -602.90520903 Ry
     estimated scf accuracy    <       0.00044114 Ry

     total magnetization       =    14.40 Bohr mag/cell
     absolute magnetization    =    14.58 Bohr mag/cell
[tb_dev] Currently allocated     5.07E+00 Mbytes, locked:    0 /   6
[tb_pin] Currently allocated     0.00E+00 Mbytes, locked:    0 /   0

     iteration # 34     ecut=    60.00 Ry     beta= 0.10
     Davidson diagonalization with overlap

---- Real-time Memory Report at c_bands before calling an iterative solver
          4483 MiB given to the printing process from OS
          -546 MiB allocation reported by mallinfo(arena+hblkhd)
         53063 MiB available memory on the node where the printing process lives
     GPU memory used/free/total (MiB): 6538 / 9742 / 16280
------------------
     ethr =  1.30E-07,  avg # of iterations =  2.0

     negative rho (up, down):  2.210E-01 1.851E-01

     total cpu time spent up to now is      705.1 secs

     total energy              =    -602.90528432 Ry
     estimated scf accuracy    <       0.00040149 Ry

     total magnetization       =    14.24 Bohr mag/cell
     absolute magnetization    =    14.41 Bohr mag/cell
[tb_dev] Currently allocated     5.07E+00 Mbytes, locked:    0 /   6
[tb_pin] Currently allocated     0.00E+00 Mbytes, locked:    0 /   0

     iteration # 35     ecut=    60.00 Ry     beta= 0.10
     Davidson diagonalization with overlap

---- Real-time Memory Report at c_bands before calling an iterative solver
          4484 MiB given to the printing process from OS
          -540 MiB allocation reported by mallinfo(arena+hblkhd)
         53056 MiB available memory on the node where the printing process lives
     GPU memory used/free/total (MiB): 6538 / 9742 / 16280
------------------
     ethr =  1.30E-07,  avg # of iterations =  1.0

     negative rho (up, down):  2.151E-01 1.911E-01

     total cpu time spent up to now is      720.2 secs

     total energy              =    -602.90423624 Ry
     estimated scf accuracy    <       0.00040604 Ry

     total magnetization       =    14.26 Bohr mag/cell
     absolute magnetization    =    14.42 Bohr mag/cell
[tb_dev] Currently allocated     5.07E+00 Mbytes, locked:    0 /   6
[tb_pin] Currently allocated     0.00E+00 Mbytes, locked:    0 /   0

     iteration # 36     ecut=    60.00 Ry     beta= 0.10
     Davidson diagonalization with overlap

---- Real-time Memory Report at c_bands before calling an iterative solver
          4494 MiB given to the printing process from OS
          -535 MiB allocation reported by mallinfo(arena+hblkhd)
         53049 MiB available memory on the node where the printing process lives
     GPU memory used/free/total (MiB): 6538 / 9742 / 16280
------------------
     ethr =  1.30E-07,  avg # of iterations =  4.9

     negative rho (up, down):  2.239E-01 1.822E-01

     total cpu time spent up to now is      744.5 secs

     total energy              =    -602.89888229 Ry
     estimated scf accuracy    <       0.00094348 Ry

     total magnetization       =    13.42 Bohr mag/cell
     absolute magnetization    =    13.54 Bohr mag/cell
[tb_dev] Currently allocated     5.07E+00 Mbytes, locked:    0 /   6
[tb_pin] Currently allocated     0.00E+00 Mbytes, locked:    0 /   0

     iteration # 37     ecut=    60.00 Ry     beta= 0.10
     Davidson diagonalization with overlap

---- Real-time Memory Report at c_bands before calling an iterative solver
          4499 MiB given to the printing process from OS
          -529 MiB allocation reported by mallinfo(arena+hblkhd)
         53043 MiB available memory on the node where the printing process lives
     GPU memory used/free/total (MiB): 6538 / 9742 / 16280
------------------
     ethr =  1.30E-07,  avg # of iterations =  6.0

     negative rho (up, down):  2.239E-01 1.823E-01

     total cpu time spent up to now is      770.9 secs

     total energy              =    -602.90466961 Ry
     estimated scf accuracy    <       0.00056170 Ry

     total magnetization       =    14.62 Bohr mag/cell
     absolute magnetization    =    14.80 Bohr mag/cell
[tb_dev] Currently allocated     5.07E+00 Mbytes, locked:    0 /   6
[tb_pin] Currently allocated     0.00E+00 Mbytes, locked:    0 /   0

     iteration # 38     ecut=    60.00 Ry     beta= 0.10
     Davidson diagonalization with overlap

---- Real-time Memory Report at c_bands before calling an iterative solver
          4501 MiB given to the printing process from OS
          -523 MiB allocation reported by mallinfo(arena+hblkhd)
         53036 MiB available memory on the node where the printing process lives
     GPU memory used/free/total (MiB): 6538 / 9742 / 16280
------------------
     ethr =  1.30E-07,  avg # of iterations =  1.0

     negative rho (up, down):  2.258E-01 1.804E-01

     total cpu time spent up to now is      786.3 secs

     total energy              =    -602.90398863 Ry
     estimated scf accuracy    <       0.00055102 Ry

     total magnetization       =    14.61 Bohr mag/cell
     absolute magnetization    =    14.79 Bohr mag/cell
[tb_dev] Currently allocated     5.07E+00 Mbytes, locked:    0 /   6
[tb_pin] Currently allocated     0.00E+00 Mbytes, locked:    0 /   0

     iteration # 39     ecut=    60.00 Ry     beta= 0.10
     Davidson diagonalization with overlap

---- Real-time Memory Report at c_bands before calling an iterative solver
          4511 MiB given to the printing process from OS
          -518 MiB allocation reported by mallinfo(arena+hblkhd)
         53034 MiB available memory on the node where the printing process lives
     GPU memory used/free/total (MiB): 6538 / 9742 / 16280
------------------
     ethr =  1.30E-07,  avg # of iterations =  2.4

     negative rho (up, down):  2.290E-01 1.772E-01

     total cpu time spent up to now is      805.0 secs

     total energy              =    -602.90263452 Ry
     estimated scf accuracy    <       0.00078137 Ry

     total magnetization       =    14.83 Bohr mag/cell
     absolute magnetization    =    15.02 Bohr mag/cell
[tb_dev] Currently allocated     5.07E+00 Mbytes, locked:    0 /   6
[tb_pin] Currently allocated     0.00E+00 Mbytes, locked:    0 /   0

     iteration # 40     ecut=    60.00 Ry     beta= 0.10
     Davidson diagonalization with overlap

---- Real-time Memory Report at c_bands before calling an iterative solver
          4516 MiB given to the printing process from OS
          -512 MiB allocation reported by mallinfo(arena+hblkhd)
         53027 MiB available memory on the node where the printing process lives
     GPU memory used/free/total (MiB): 6538 / 9742 / 16280
------------------
     ethr =  1.30E-07,  avg # of iterations =  4.1

     negative rho (up, down):  2.292E-01 1.771E-01

     total cpu time spent up to now is      826.6 secs

     total energy              =    -602.90307275 Ry
     estimated scf accuracy    <       0.00165465 Ry

     total magnetization       =    15.17 Bohr mag/cell
     absolute magnetization    =    15.39 Bohr mag/cell
[tb_dev] Currently allocated     5.07E+00 Mbytes, locked:    0 /   6
[tb_pin] Currently allocated     0.00E+00 Mbytes, locked:    0 /   0

     iteration # 41     ecut=    60.00 Ry     beta= 0.10
     Davidson diagonalization with overlap

---- Real-time Memory Report at c_bands before calling an iterative solver
          4522 MiB given to the printing process from OS
          -507 MiB allocation reported by mallinfo(arena+hblkhd)
         53024 MiB available memory on the node where the printing process lives
     GPU memory used/free/total (MiB): 6538 / 9742 / 16280
------------------
     ethr =  1.30E-07,  avg # of iterations =  1.0

     negative rho (up, down):  2.254E-01 1.807E-01

     total cpu time spent up to now is      841.8 secs

     total energy              =    -602.90363156 Ry
     estimated scf accuracy    <       0.00161858 Ry

     total magnetization       =    15.19 Bohr mag/cell
     absolute magnetization    =    15.40 Bohr mag/cell
[tb_dev] Currently allocated     5.07E+00 Mbytes, locked:    0 /   6
[tb_pin] Currently allocated     0.00E+00 Mbytes, locked:    0 /   0

     iteration # 42     ecut=    60.00 Ry     beta= 0.10
     Davidson diagonalization with overlap

---- Real-time Memory Report at c_bands before calling an iterative solver
          4528 MiB given to the printing process from OS
          -501 MiB allocation reported by mallinfo(arena+hblkhd)
         53017 MiB available memory on the node where the printing process lives
     GPU memory used/free/total (MiB): 6538 / 9742 / 16280
------------------
     ethr =  1.30E-07,  avg # of iterations =  3.2

     negative rho (up, down):  2.241E-01 1.820E-01

     total cpu time spent up to now is      862.6 secs

     total energy              =    -602.90450808 Ry
     estimated scf accuracy    <       0.00073076 Ry

     total magnetization       =    14.79 Bohr mag/cell
     absolute magnetization    =    14.99 Bohr mag/cell
[tb_dev] Currently allocated     5.07E+00 Mbytes, locked:    0 /   6
[tb_pin] Currently allocated     0.00E+00 Mbytes, locked:    0 /   0

     iteration # 43     ecut=    60.00 Ry     beta= 0.10
     Davidson diagonalization with overlap

---- Real-time Memory Report at c_bands before calling an iterative solver
          4533 MiB given to the printing process from OS
          -496 MiB allocation reported by mallinfo(arena+hblkhd)
         53014 MiB available memory on the node where the printing process lives
     GPU memory used/free/total (MiB): 6538 / 9742 / 16280
------------------
     ethr =  1.30E-07,  avg # of iterations =  2.0

     negative rho (up, down):  2.226E-01 1.835E-01

     total cpu time spent up to now is      880.0 secs

     total energy              =    -602.90480690 Ry
     estimated scf accuracy    <       0.00057770 Ry

     total magnetization       =    14.64 Bohr mag/cell
     absolute magnetization    =    14.83 Bohr mag/cell
[tb_dev] Currently allocated     5.07E+00 Mbytes, locked:    0 /   6
[tb_pin] Currently allocated     0.00E+00 Mbytes, locked:    0 /   0

     iteration # 44     ecut=    60.00 Ry     beta= 0.10
     Davidson diagonalization with overlap

---- Real-time Memory Report at c_bands before calling an iterative solver
          4543 MiB given to the printing process from OS
          -490 MiB allocation reported by mallinfo(arena+hblkhd)
         53005 MiB available memory on the node where the printing process lives
     GPU memory used/free/total (MiB): 6538 / 9742 / 16280
------------------
     ethr =  1.30E-07,  avg # of iterations =  2.5

     negative rho (up, down):  2.217E-01 1.844E-01

     total cpu time spent up to now is      898.4 secs

     total energy              =    -602.90508541 Ry
     estimated scf accuracy    <       0.00047265 Ry

     total magnetization       =    14.45 Bohr mag/cell
     absolute magnetization    =    14.63 Bohr mag/cell
[tb_dev] Currently allocated     5.07E+00 Mbytes, locked:    0 /   6
[tb_pin] Currently allocated     0.00E+00 Mbytes, locked:    0 /   0

     iteration # 45     ecut=    60.00 Ry     beta= 0.10
     Davidson diagonalization with overlap

---- Real-time Memory Report at c_bands before calling an iterative solver
          4544 MiB given to the printing process from OS
          -485 MiB allocation reported by mallinfo(arena+hblkhd)
         53003 MiB available memory on the node where the printing process lives
     GPU memory used/free/total (MiB): 6538 / 9742 / 16280
------------------
     ethr =  1.30E-07,  avg # of iterations =  2.0

     negative rho (up, down):  2.160E-01 1.902E-01

     total cpu time spent up to now is      914.7 secs

     total energy              =    -602.90415451 Ry
     estimated scf accuracy    <       0.00042782 Ry

     total magnetization       =    14.34 Bohr mag/cell
     absolute magnetization    =    14.51 Bohr mag/cell
[tb_dev] Currently allocated     5.07E+00 Mbytes, locked:    0 /   6
[tb_pin] Currently allocated     0.00E+00 Mbytes, locked:    0 /   0

     iteration # 46     ecut=    60.00 Ry     beta= 0.10
     Davidson diagonalization with overlap

---- Real-time Memory Report at c_bands before calling an iterative solver
          4554 MiB given to the printing process from OS
          -479 MiB allocation reported by mallinfo(arena+hblkhd)
         52997 MiB available memory on the node where the printing process lives
     GPU memory used/free/total (MiB): 6538 / 9742 / 16280
------------------
     ethr =  1.30E-07,  avg # of iterations =  5.5

     negative rho (up, down):  2.161E-01 1.901E-01

     total cpu time spent up to now is      939.8 secs

     total energy              =    -602.90645264 Ry
     estimated scf accuracy    <       0.00083824 Ry

     total magnetization       =    13.54 Bohr mag/cell
     absolute magnetization    =    13.67 Bohr mag/cell
[tb_dev] Currently allocated     5.07E+00 Mbytes, locked:    0 /   6
[tb_pin] Currently allocated     0.00E+00 Mbytes, locked:    0 /   0

     iteration # 47     ecut=    60.00 Ry     beta= 0.10
     Davidson diagonalization with overlap

---- Real-time Memory Report at c_bands before calling an iterative solver
          4555 MiB given to the printing process from OS
          -474 MiB allocation reported by mallinfo(arena+hblkhd)
         52989 MiB available memory on the node where the printing process lives
     GPU memory used/free/total (MiB): 6538 / 9742 / 16280
------------------
     ethr =  1.30E-07,  avg # of iterations =  1.0

     negative rho (up, down):  2.140E-01 1.922E-01

     total cpu time spent up to now is      954.9 secs

     total energy              =    -602.90675664 Ry
     estimated scf accuracy    <       0.00082342 Ry

     total magnetization       =    13.55 Bohr mag/cell
     absolute magnetization    =    13.68 Bohr mag/cell
[tb_dev] Currently allocated     5.07E+00 Mbytes, locked:    0 /   6
[tb_pin] Currently allocated     0.00E+00 Mbytes, locked:    0 /   0

     iteration # 48     ecut=    60.00 Ry     beta= 0.10
     Davidson diagonalization with overlap

---- Real-time Memory Report at c_bands before calling an iterative solver
          4570 MiB given to the printing process from OS
          -468 MiB allocation reported by mallinfo(arena+hblkhd)
         52967 MiB available memory on the node where the printing process lives
     GPU memory used/free/total (MiB): 6538 / 9742 / 16280
------------------
     ethr =  1.30E-07,  avg # of iterations =  2.4

     negative rho (up, down):  2.147E-01 1.915E-01

     total cpu time spent up to now is      974.0 secs

     total energy              =    -602.90683547 Ry
     estimated scf accuracy    <       0.00142655 Ry

     total magnetization       =    13.23 Bohr mag/cell
     absolute magnetization    =    13.35 Bohr mag/cell
[tb_dev] Currently allocated     5.07E+00 Mbytes, locked:    0 /   6
[tb_pin] Currently allocated     0.00E+00 Mbytes, locked:    0 /   0

     iteration # 49     ecut=    60.00 Ry     beta= 0.10
     Davidson diagonalization with overlap

---- Real-time Memory Report at c_bands before calling an iterative solver
          4575 MiB given to the printing process from OS
          -463 MiB allocation reported by mallinfo(arena+hblkhd)
         52971 MiB available memory on the node where the printing process lives
     GPU memory used/free/total (MiB): 6538 / 9742 / 16280
------------------
     ethr =  1.30E-07,  avg # of iterations =  1.5

     negative rho (up, down):  2.154E-01 1.908E-01

     total cpu time spent up to now is      989.8 secs

     total energy              =    -602.90662884 Ry
     estimated scf accuracy    <       0.00122368 Ry

     total magnetization       =    13.35 Bohr mag/cell
     absolute magnetization    =    13.47 Bohr mag/cell
[tb_dev] Currently allocated     5.07E+00 Mbytes, locked:    0 /   6
[tb_pin] Currently allocated     0.00E+00 Mbytes, locked:    0 /   0

     iteration # 50     ecut=    60.00 Ry     beta= 0.10
     Davidson diagonalization with overlap

---- Real-time Memory Report at c_bands before calling an iterative solver
          4580 MiB given to the printing process from OS
          -457 MiB allocation reported by mallinfo(arena+hblkhd)
         52965 MiB available memory on the node where the printing process lives
     GPU memory used/free/total (MiB): 6538 / 9742 / 16280
------------------
     ethr =  1.30E-07,  avg # of iterations =  1.5

     negative rho (up, down):  2.239E-01 1.822E-01

     total cpu time spent up to now is     1005.3 secs

     total energy              =    -602.89923422 Ry
     estimated scf accuracy    <       0.00101119 Ry

     total magnetization       =    13.45 Bohr mag/cell
     absolute magnetization    =    13.58 Bohr mag/cell
[tb_dev] Currently allocated     5.07E+00 Mbytes, locked:    0 /   6
[tb_pin] Currently allocated     0.00E+00 Mbytes, locked:    0 /   0

     iteration # 51     ecut=    60.00 Ry     beta= 0.10
     Davidson diagonalization with overlap

---- Real-time Memory Report at c_bands before calling an iterative solver
          4585 MiB given to the printing process from OS
          -452 MiB allocation reported by mallinfo(arena+hblkhd)
         52954 MiB available memory on the node where the printing process lives
     GPU memory used/free/total (MiB): 6538 / 9742 / 16280
------------------
     ethr =  1.30E-07,  avg # of iterations =  5.6

     negative rho (up, down):  2.332E-01 1.731E-01

     total cpu time spent up to now is     1031.3 secs

     total energy              =    -602.89674256 Ry
     estimated scf accuracy    <       0.00065976 Ry

     total magnetization       =    14.62 Bohr mag/cell
     absolute magnetization    =    14.80 Bohr mag/cell
[tb_dev] Currently allocated     5.07E+00 Mbytes, locked:    0 /   6
[tb_pin] Currently allocated     0.00E+00 Mbytes, locked:    0 /   0

     iteration # 52     ecut=    60.00 Ry     beta= 0.10
     Davidson diagonalization with overlap

---- Real-time Memory Report at c_bands before calling an iterative solver
          4591 MiB given to the printing process from OS
          -446 MiB allocation reported by mallinfo(arena+hblkhd)
         52952 MiB available memory on the node where the printing process lives
     GPU memory used/free/total (MiB): 6538 / 9742 / 16280
------------------
     ethr =  1.30E-07,  avg # of iterations =  6.5

     negative rho (up, down):  2.185E-01 1.876E-01

     total cpu time spent up to now is     1059.7 secs

     total energy              =    -602.89595681 Ry
     estimated scf accuracy    <       0.00370416 Ry

     total magnetization       =    15.54 Bohr mag/cell
     absolute magnetization    =    15.78 Bohr mag/cell
[tb_dev] Currently allocated     5.07E+00 Mbytes, locked:    0 /   6
[tb_pin] Currently allocated     0.00E+00 Mbytes, locked:    0 /   0

     iteration # 53     ecut=    60.00 Ry     beta= 0.10
     Davidson diagonalization with overlap

---- Real-time Memory Report at c_bands before calling an iterative solver
          4596 MiB given to the printing process from OS
          -440 MiB allocation reported by mallinfo(arena+hblkhd)
         52952 MiB available memory on the node where the printing process lives
     GPU memory used/free/total (MiB): 6538 / 9742 / 16280
------------------
     ethr =  1.30E-07,  avg # of iterations =  6.5

     negative rho (up, down):  2.182E-01 1.879E-01

     total cpu time spent up to now is     1089.8 secs

     total energy              =    -602.90589724 Ry
     estimated scf accuracy    <       0.00050210 Ry

     total magnetization       =    13.92 Bohr mag/cell
     absolute magnetization    =    14.06 Bohr mag/cell
[tb_dev] Currently allocated     5.07E+00 Mbytes, locked:    0 /   6
[tb_pin] Currently allocated     0.00E+00 Mbytes, locked:    0 /   0

     iteration # 54     ecut=    60.00 Ry     beta= 0.10
     Davidson diagonalization with overlap

---- Real-time Memory Report at c_bands before calling an iterative solver
          4602 MiB given to the printing process from OS
          -435 MiB allocation reported by mallinfo(arena+hblkhd)
         52948 MiB available memory on the node where the printing process lives
     GPU memory used/free/total (MiB): 6538 / 9742 / 16280
------------------
     ethr =  1.30E-07,  avg # of iterations =  1.1

     negative rho (up, down):  2.146E-01 1.916E-01

     total cpu time spent up to now is     1104.9 secs

     total energy              =    -602.90590011 Ry
     estimated scf accuracy    <       0.00052744 Ry

     total magnetization       =    13.87 Bohr mag/cell
     absolute magnetization    =    14.01 Bohr mag/cell
[tb_dev] Currently allocated     5.07E+00 Mbytes, locked:    0 /   6
[tb_pin] Currently allocated     0.00E+00 Mbytes, locked:    0 /   0

     iteration # 55     ecut=    60.00 Ry     beta= 0.10
     Davidson diagonalization with overlap

---- Real-time Memory Report at c_bands before calling an iterative solver
          4607 MiB given to the printing process from OS
          -429 MiB allocation reported by mallinfo(arena+hblkhd)
         52944 MiB available memory on the node where the printing process lives
     GPU memory used/free/total (MiB): 6538 / 9742 / 16280
------------------
     ethr =  1.30E-07,  avg # of iterations =  3.4

     negative rho (up, down):  2.158E-01 1.904E-01

     total cpu time spent up to now is     1126.1 secs

     total energy              =    -602.90642775 Ry
     estimated scf accuracy    <       0.00114214 Ry

     total magnetization       =    13.33 Bohr mag/cell
     absolute magnetization    =    13.45 Bohr mag/cell
[tb_dev] Currently allocated     5.07E+00 Mbytes, locked:    0 /   6
[tb_pin] Currently allocated     0.00E+00 Mbytes, locked:    0 /   0

     iteration # 56     ecut=    60.00 Ry     beta= 0.10
     Davidson diagonalization with overlap

---- Real-time Memory Report at c_bands before calling an iterative solver
          4609 MiB given to the printing process from OS
          -424 MiB allocation reported by mallinfo(arena+hblkhd)
         52938 MiB available memory on the node where the printing process lives
     GPU memory used/free/total (MiB): 6538 / 9742 / 16280
------------------
     ethr =  1.30E-07,  avg # of iterations =  2.0

     negative rho (up, down):  2.146E-01 1.916E-01

     total cpu time spent up to now is     1142.8 secs

     total energy              =    -602.90680011 Ry
     estimated scf accuracy    <       0.00088595 Ry

     total magnetization       =    13.51 Bohr mag/cell
     absolute magnetization    =    13.64 Bohr mag/cell
[tb_dev] Currently allocated     5.07E+00 Mbytes, locked:    0 /   6
[tb_pin] Currently allocated     0.00E+00 Mbytes, locked:    0 /   0

     iteration # 57     ecut=    60.00 Ry     beta= 0.10
     Davidson diagonalization with overlap

---- Real-time Memory Report at c_bands before calling an iterative solver
          4619 MiB given to the printing process from OS
          -418 MiB allocation reported by mallinfo(arena+hblkhd)
         52934 MiB available memory on the node where the printing process lives
     GPU memory used/free/total (MiB): 6538 / 9742 / 16280
------------------
     ethr =  1.30E-07,  avg # of iterations =  2.0

     negative rho (up, down):  2.154E-01 1.907E-01

     total cpu time spent up to now is     1159.0 secs

     total energy              =    -602.90657447 Ry
     estimated scf accuracy    <       0.00115810 Ry

     total magnetization       =    13.33 Bohr mag/cell
     absolute magnetization    =    13.45 Bohr mag/cell
[tb_dev] Currently allocated     5.07E+00 Mbytes, locked:    0 /   6
[tb_pin] Currently allocated     0.00E+00 Mbytes, locked:    0 /   0

     iteration # 58     ecut=    60.00 Ry     beta= 0.10
     Davidson diagonalization with overlap

---- Real-time Memory Report at c_bands before calling an iterative solver
          4620 MiB given to the printing process from OS
          -413 MiB allocation reported by mallinfo(arena+hblkhd)
         52930 MiB available memory on the node where the printing process lives
     GPU memory used/free/total (MiB): 6538 / 9742 / 16280
------------------
     ethr =  1.30E-07,  avg # of iterations =  1.5

[...]
     GPU memory used/free/total (MiB): 6538 / 9742 / 16280
------------------
     ethr =  1.30E-07,  avg # of iterations =  2.8

     negative rho (up, down):  2.148E-01 1.913E-01

     total cpu time spent up to now is     1335.0 secs

     total energy              =    -602.90538222 Ry
     estimated scf accuracy    <       0.00360354 Ry

     total magnetization       =    12.73 Bohr mag/cell
     absolute magnetization    =    12.84 Bohr mag/cell
[tb_dev] Currently allocated     5.07E+00 Mbytes, locked:    0 /   6
[tb_pin] Currently allocated     0.00E+00 Mbytes, locked:    0 /   0

     iteration # 66     ecut=    60.00 Ry     beta= 0.10
     Davidson diagonalization with overlap

---- Real-time Memory Report at c_bands before calling an iterative solver
          4678 MiB given to the printing process from OS
          -369 MiB allocation reported by mallinfo(arena+hblkhd)
         52886 MiB available memory on the node where the printing process lives
     GPU memory used/free/total (MiB): 6538 / 9742 / 16280
------------------
     ethr =  1.30E-07,  avg # of iterations =  4.7

     negative rho (up, down):  2.180E-01 1.880E-01

     total cpu time spent up to now is     1357.5 secs

     total energy              =    -602.90505681 Ry
     estimated scf accuracy    <       0.00131660 Ry

     total magnetization       =    13.37 Bohr mag/cell
     absolute magnetization    =    13.49 Bohr mag/cell
[tb_dev] Currently allocated     5.07E+00 Mbytes, locked:    0 /   6
[tb_pin] Currently allocated     0.00E+00 Mbytes, locked:    0 /   0

     iteration # 67     ecut=    60.00 Ry     beta= 0.10
     Davidson diagonalization with overlap

---- Real-time Memory Report at c_bands before calling an iterative solver
          4684 MiB given to the printing process from OS
          -363 MiB allocation reported by mallinfo(arena+hblkhd)
         52876 MiB available memory on the node where the printing process lives
     GPU memory used/free/total (MiB): 6538 / 9742 / 16280
------------------
     ethr =  1.30E-07,  avg # of iterations =  3.0

     negative rho (up, down):  2.181E-01 1.879E-01

     total cpu time spent up to now is     1378.0 secs

     total energy              =    -602.90592550 Ry
     estimated scf accuracy    <       0.00065116 Ry

     total magnetization       =    13.86 Bohr mag/cell
     absolute magnetization    =    14.00 Bohr mag/cell
[tb_dev] Currently allocated     5.07E+00 Mbytes, locked:    0 /   6
[tb_pin] Currently allocated     0.00E+00 Mbytes, locked:    0 /   0

     iteration # 68     ecut=    60.00 Ry     beta= 0.10
     Davidson diagonalization with overlap

---- Real-time Memory Report at c_bands before calling an iterative solver
          4689 MiB given to the printing process from OS
          -358 MiB allocation reported by mallinfo(arena+hblkhd)
         52875 MiB available memory on the node where the printing process lives
     GPU memory used/free/total (MiB): 6538 / 9742 / 16280
------------------
     ethr =  1.30E-07,  avg # of iterations =  1.0

     negative rho (up, down):  2.286E-01 1.775E-01

     total cpu time spent up to now is     1393.0 secs

     total energy              =    -602.89611131 Ry
     estimated scf accuracy    <       0.00066375 Ry

     total magnetization       =    13.86 Bohr mag/cell
     absolute magnetization    =    14.00 Bohr mag/cell
[tb_dev] Currently allocated     5.07E+00 Mbytes, locked:    0 /   6
[tb_pin] Currently allocated     0.00E+00 Mbytes, locked:    0 /   0

     iteration # 69     ecut=    60.00 Ry     beta= 0.10
     Davidson diagonalization with overlap

---- Real-time Memory Report at c_bands before calling an iterative solver
          4694 MiB given to the printing process from OS
          -352 MiB allocation reported by mallinfo(arena+hblkhd)
         52869 MiB available memory on the node where the printing process lives
     GPU memory used/free/total (MiB): 6538 / 9742 / 16280
------------------
     ethr =  1.30E-07,  avg # of iterations =  6.5

     negative rho (up, down):  2.183E-01 1.878E-01

     total cpu time spent up to now is     1421.9 secs

     total energy              =    -602.90012659 Ry
     estimated scf accuracy    <       0.00157019 Ry

     total magnetization       =    15.13 Bohr mag/cell
     absolute magnetization    =    15.35 Bohr mag/cell
[tb_dev] Currently allocated     5.07E+00 Mbytes, locked:    0 /   6
[tb_pin] Currently allocated     0.00E+00 Mbytes, locked:    0 /   0

     iteration # 70     ecut=    60.00 Ry     beta= 0.10
     Davidson diagonalization with overlap

---- Real-time Memory Report at c_bands before calling an iterative solver
          4695 MiB given to the printing process from OS
          -346 MiB allocation reported by mallinfo(arena+hblkhd)
         52861 MiB available memory on the node where the printing process lives
     GPU memory used/free/total (MiB): 6538 / 9742 / 16280
------------------
     ethr =  1.30E-07,  avg # of iterations =  6.4

     negative rho (up, down):  2.126E-01 1.936E-01

     total cpu time spent up to now is     1449.5 secs

     total energy              =    -602.90506197 Ry
     estimated scf accuracy    <       0.00053095 Ry

     total magnetization       =    13.89 Bohr mag/cell
     absolute magnetization    =    14.03 Bohr mag/cell
[tb_dev] Currently allocated     5.07E+00 Mbytes, locked:    0 /   6
[tb_pin] Currently allocated     0.00E+00 Mbytes, locked:    0 /   0

     iteration # 71     ecut=    60.00 Ry     beta= 0.10
     Davidson diagonalization with overlap

---- Real-time Memory Report at c_bands before calling an iterative solver
          4705 MiB given to the printing process from OS
          -341 MiB allocation reported by mallinfo(arena+hblkhd)
         52826 MiB available memory on the node where the printing process lives
     GPU memory used/free/total (MiB): 6538 / 9742 / 16280
------------------
     ethr =  1.30E-07,  avg # of iterations =  5.0

     negative rho (up, down):  2.094E-01 1.970E-01

     total cpu time spent up to now is     1474.2 secs

     total energy              =    -602.90830077 Ry
     estimated scf accuracy    <       0.00199059 Ry

     total magnetization       =    13.03 Bohr mag/cell
     absolute magnetization    =    13.14 Bohr mag/cell
[tb_dev] Currently allocated     5.07E+00 Mbytes, locked:    0 /   6
[tb_pin] Currently allocated     0.00E+00 Mbytes, locked:    0 /   0

     iteration # 72     ecut=    60.00 Ry     beta= 0.10
     Davidson diagonalization with overlap

---- Real-time Memory Report at c_bands before calling an iterative solver
          4710 MiB given to the printing process from OS
          -335 MiB allocation reported by mallinfo(arena+hblkhd)
         52839 MiB available memory on the node where the printing process lives
     GPU memory used/free/total (MiB): 6538 / 9742 / 16280
------------------
     ethr =  1.30E-07,  avg # of iterations =  2.9

     negative rho (up, down):  2.059E-01 2.006E-01

     total cpu time spent up to now is     1494.6 secs

     total energy              =    -602.91052637 Ry
     estimated scf accuracy    <       0.00457814 Ry

     total magnetization       =    12.50 Bohr mag/cell
     absolute magnetization    =    12.66 Bohr mag/cell
[tb_dev] Currently allocated     5.07E+00 Mbytes, locked:    0 /   6
[tb_pin] Currently allocated     0.00E+00 Mbytes, locked:    0 /   0

     iteration # 73     ecut=    60.00 Ry     beta= 0.10
     Davidson diagonalization with overlap

---- Real-time Memory Report at c_bands before calling an iterative solver
          4720 MiB given to the printing process from OS
          -330 MiB allocation reported by mallinfo(arena+hblkhd)
         52836 MiB available memory on the node where the printing process lives
     GPU memory used/free/total (MiB): 6538 / 9742 / 16280
------------------
     ethr =  1.30E-07,  avg # of iterations =  4.4

     negative rho (up, down):  2.073E-01 1.991E-01

     total cpu time spent up to now is     1516.8 secs

     total energy              =    -602.91044020 Ry
     estimated scf accuracy    <       0.01003675 Ry

     total magnetization       =    11.94 Bohr mag/cell
     absolute magnetization    =    12.61 Bohr mag/cell
[tb_dev] Currently allocated     5.07E+00 Mbytes, locked:    0 /   6
[tb_pin] Currently allocated     0.00E+00 Mbytes, locked:    0 /   0

     iteration # 74     ecut=    60.00 Ry     beta= 0.10
     Davidson diagonalization with overlap

---- Real-time Memory Report at c_bands before calling an iterative solver
          4726 MiB given to the printing process from OS
          -324 MiB allocation reported by mallinfo(arena+hblkhd)
         52829 MiB available memory on the node where the printing process lives
     GPU memory used/free/total (MiB): 6538 / 9742 / 16280
------------------
     ethr =  1.30E-07,  avg # of iterations =  2.0

     negative rho (up, down):  2.105E-01 1.958E-01

     total cpu time spent up to now is     1533.2 secs

     total energy              =    -602.90765964 Ry
     estimated scf accuracy    <       0.00750148 Ry

     total magnetization       =    12.16 Bohr mag/cell
     absolute magnetization    =    12.54 Bohr mag/cell
[tb_dev] Currently allocated     5.07E+00 Mbytes, locked:    0 /   6
[tb_pin] Currently allocated     0.00E+00 Mbytes, locked:    0 /   0

     iteration # 75     ecut=    60.00 Ry     beta= 0.10
     Davidson diagonalization with overlap

---- Real-time Memory Report at c_bands before calling an iterative solver
          4731 MiB given to the printing process from OS
          -319 MiB allocation reported by mallinfo(arena+hblkhd)
         52823 MiB available memory on the node where the printing process lives
     GPU memory used/free/total (MiB): 6538 / 9742 / 16280
------------------
     ethr =  1.30E-07,  avg # of iterations =  3.3

     negative rho (up, down):  2.011E-01 2.055E-01

     total cpu time spent up to now is     1553.9 secs

     total energy              =    -602.90788147 Ry
     estimated scf accuracy    <       0.00358721 Ry

     total magnetization       =    12.68 Bohr mag/cell
     absolute magnetization    =    12.79 Bohr mag/cell
[tb_dev] Currently allocated     5.07E+00 Mbytes, locked:    0 /   6
[tb_pin] Currently allocated     0.00E+00 Mbytes, locked:    0 /   0

     iteration # 76     ecut=    60.00 Ry     beta= 0.10
     Davidson diagonalization with overlap

---- Real-time Memory Report at c_bands before calling an iterative solver
          4737 MiB given to the printing process from OS
          -313 MiB allocation reported by mallinfo(arena+hblkhd)
         52820 MiB available memory on the node where the printing process lives
     GPU memory used/free/total (MiB): 6538 / 9742 / 16280
------------------
     ethr =  1.30E-07,  avg # of iterations =  6.5

     negative rho (up, down):  1.972E-01 2.095E-01

     total cpu time spent up to now is     1581.2 secs

     total energy              =    -602.91976823 Ry
     estimated scf accuracy    <       0.02551703 Ry

     total magnetization       =    11.24 Bohr mag/cell
     absolute magnetization    =    13.21 Bohr mag/cell
[tb_dev] Currently allocated     5.07E+00 Mbytes, locked:    0 /   6
[tb_pin] Currently allocated     0.00E+00 Mbytes, locked:    0 /   0

     iteration # 77     ecut=    60.00 Ry     beta= 0.10
     Davidson diagonalization with overlap

---- Real-time Memory Report at c_bands before calling an iterative solver
          4743 MiB given to the printing process from OS
          -308 MiB allocation reported by mallinfo(arena+hblkhd)
         52819 MiB available memory on the node where the printing process lives
     GPU memory used/free/total (MiB): 6538 / 9742 / 16280
------------------
     ethr =  1.30E-07,  avg # of iterations =  4.2

     negative rho (up, down):  2.058E-01 2.007E-01

     total cpu time spent up to now is     1603.4 secs

     total energy              =    -602.90472451 Ry
     estimated scf accuracy    <       0.04779021 Ry

     total magnetization       =    10.76 Bohr mag/cell
     absolute magnetization    =    13.73 Bohr mag/cell
[tb_dev] Currently allocated     5.07E+00 Mbytes, locked:    0 /   6
[tb_pin] Currently allocated     0.00E+00 Mbytes, locked:    0 /   0

     iteration # 78     ecut=    60.00 Ry     beta= 0.10
     Davidson diagonalization with overlap

---- Real-time Memory Report at c_bands before calling an iterative solver
          4748 MiB given to the printing process from OS
          -302 MiB allocation reported by mallinfo(arena+hblkhd)
         52814 MiB available memory on the node where the printing process lives
     GPU memory used/free/total (MiB): 6538 / 9742 / 16280
------------------
     ethr =  1.30E-07,  avg # of iterations =  5.0

     negative rho (up, down):  2.263E-01 1.798E-01

     total cpu time spent up to now is     1628.8 secs

     total energy              =    -602.86725832 Ry
     estimated scf accuracy    <       0.00971777 Ry

     total magnetization       =    11.93 Bohr mag/cell
     absolute magnetization    =    12.62 Bohr mag/cell
[tb_dev] Currently allocated     5.07E+00 Mbytes, locked:    0 /   6
[tb_pin] Currently allocated     0.00E+00 Mbytes, locked:    0 /   0

     iteration # 79     ecut=    60.00 Ry     beta= 0.10
     Davidson diagonalization with overlap

---- Real-time Memory Report at c_bands before calling an iterative solver
          4750 MiB given to the printing process from OS
          -297 MiB allocation reported by mallinfo(arena+hblkhd)
         52804 MiB available memory on the node where the printing process lives
     GPU memory used/free/total (MiB): 6538 / 9742 / 16280
------------------
     ethr =  1.30E-07,  avg # of iterations =  7.8

     negative rho (up, down):  2.419E-01 1.644E-01

     total cpu time spent up to now is     1663.4 secs

     total energy              =    -602.88315526 Ry
     estimated scf accuracy    <       0.00098940 Ry

     total magnetization       =    14.90 Bohr mag/cell
     absolute magnetization    =    15.10 Bohr mag/cell
[tb_dev] Currently allocated     5.07E+00 Mbytes, locked:    0 /   6
[tb_pin] Currently allocated     0.00E+00 Mbytes, locked:    0 /   0

     iteration # 80     ecut=    60.00 Ry     beta= 0.10
     Davidson diagonalization with overlap

---- Real-time Memory Report at c_bands before calling an iterative solver
          4760 MiB given to the printing process from OS
          -291 MiB allocation reported by mallinfo(arena+hblkhd)
         52804 MiB available memory on the node where the printing process lives
     GPU memory used/free/total (MiB): 6538 / 9742 / 16280
------------------
     ethr =  1.30E-07,  avg # of iterations =  7.5

     negative rho (up, down):  2.440E-01 1.622E-01

     total cpu time spent up to now is     1695.4 secs

     total energy              =    -602.88943071 Ry
     estimated scf accuracy    <       0.01341787 Ry

     total magnetization       =    16.05 Bohr mag/cell
     absolute magnetization    =    16.35 Bohr mag/cell

     End of self-consistent calculation

     convergence NOT achieved after  80 iterations: stopping

     Writing config to output data dir ./out/aiida.save/
 
     init_run     :     23.60s CPU      5.91s WALL (       1 calls)
     electrons    :   2148.79s CPU   1688.61s WALL (       1 calls)

     Called by init_run:
     wfcinit      :      0.66s CPU      0.66s WALL (       1 calls)
                                        0.66s GPU  (       1 calls)
     potinit      :      7.14s CPU      0.91s WALL (       1 calls)
     hinit0       :      9.17s CPU      3.23s WALL (       1 calls)

     Called by electrons:
     c_bands      :   1325.26s CPU   1384.56s WALL (      81 calls)
     sum_band     :    239.02s CPU    249.11s WALL (      81 calls)
     v_of_rho     :    113.01s CPU     10.32s WALL (      81 calls)
     v_h          :     14.91s CPU      1.34s WALL (      81 calls)
     v_xc         :     98.09s CPU      8.98s WALL (      81 calls)
     newd         :    138.88s CPU     13.13s WALL (      81 calls)
                                       13.13s GPU  (      81 calls)
     PAW_pot      :    204.32s CPU     19.05s WALL (      81 calls)
     mix_rho      :     83.27s CPU      8.26s WALL (      81 calls)

     Called by c_bands:
     init_us_2    :     40.44s CPU     53.08s WALL (   21060 calls)
     init_us_2:gp :     40.03s CPU     52.69s WALL (   21060 calls)
     cegterg      :   1165.53s CPU   1208.26s WALL (   10530 calls)

     Called by sum_band:
     sum_band:wei :      0.69s CPU      0.69s WALL (      81 calls)
                                        0.69s GPU  (      81 calls)
     sum_band:loo :    220.90s CPU    230.81s WALL (      81 calls)
                                      230.81s GPU  (      81 calls)
     sum_band:buf :     52.72s CPU     53.89s WALL (   10530 calls)
                                       53.82s GPU  (   10530 calls)
     sum_band:ini :     18.67s CPU     22.74s WALL (   10530 calls)
                                       22.67s GPU  (   10530 calls)
     sum_band:cal :      0.40s CPU     10.85s WALL (   10530 calls)
                                        5.57s GPU  (   10530 calls)
     sum_band:bec :      4.26s CPU      4.51s WALL (   10530 calls)
                                        4.43s GPU  (   10530 calls)
     addusdens    :     12.43s CPU     12.60s WALL (      81 calls)
                                       12.60s GPU  (      81 calls)
     addusd:skk   :      0.07s CPU      0.07s WALL (     324 calls)
                                        0.07s GPU  (     324 calls)

     Called by *egterg:
     cdiaghg      :    212.04s CPU    246.64s WALL (   46121 calls)
                                      246.32s GPU  (   46121 calls)
     cegterg:over :     18.94s CPU     19.60s WALL (   35851 calls)
     cegterg:upda :     27.01s CPU     28.61s WALL (   35851 calls)
     cegterg:last :     17.57s CPU     18.00s WALL (   24316 calls)
     h_psi        :    835.53s CPU    840.42s WALL (   46381 calls)
                                      839.52s GPU  (   46381 calls)
     s_psi        :      9.75s CPU     29.29s WALL (   46381 calls)
                                       27.00s GPU  (   46381 calls)
     g_psi        :      0.26s CPU      2.82s WALL (   35851 calls)
                                        2.59s GPU  (   35851 calls)

     Called by h_psi:
     h_psi:calbec :      1.68s CPU     21.05s WALL (   46381 calls)
                                       20.75s GPU  (   46381 calls)
     vloc_psi     :    774.60s CPU    780.22s WALL (   46381 calls)
                                      779.93s GPU  (   46381 calls)
     add_vuspsi   :     16.07s CPU     33.46s WALL (   46381 calls)
                                       33.16s GPU  (   46381 calls)

     General routines
     calbec       :      1.54s CPU      1.59s WALL (   56911 calls)
     fft          :      6.63s CPU      1.44s WALL (    2025 calls)
                                        1.03s GPU  (    1863 calls)
     ffts         :      0.48s CPU      0.17s WALL (     324 calls)
                                        0.03s GPU  (     162 calls)
     fftw         :      6.09s CPU    674.18s WALL (  307640 calls)
                                      670.82s GPU  (  307640 calls)
     interpolate  :     19.13s CPU      1.66s WALL (     162 calls)
     davcio       :      0.18s CPU      2.99s WALL (     278 calls)
 
     Parallel routines

     PAW routines
     PAW_pot      :    204.32s CPU     19.05s WALL (      81 calls)
     PAW_symme    :      0.05s CPU      0.01s WALL (     161 calls)
 
     PWSCF        :  36m15.64s CPU  28m17.82s WALL

 
   This run was terminated on:  20:17:21  23Oct2023            

=------------------------------------------------------------------------------=
   JOB DONE.
=------------------------------------------------------------------------------=
