
     Program PWSCF v.7.2 starts on 23Oct2023 at 20:36:44 

     This program is part of the open-source Quantum ESPRESSO suite
     for quantum simulation of materials; please cite
         "P. Giannozzi et al., J. Phys.:Condens. Matter 21 395502 (2009);
         "P. Giannozzi et al., J. Phys.:Condens. Matter 29 465901 (2017);
         "P. Giannozzi et al., J. Chem. Phys. 152 154105 (2020);
          URL http://www.quantum-espresso.org", 
     in publications or presentations arising from this work. More details at
     http://www.quantum-espresso.org/quote

     Parallel version (MPI & OpenMP), running on      12 processor cores
     Number of MPI processes:                 1
     Threads/MPI process:                    12

     MPI processes distributed on     1 nodes
     60505 MiB available memory on the printing compute node when the environment starts
 
     Reading input from aiida.in

     Current dimensions of program PWSCF are:
     Max number of different atomic species (ntypx) = 10
     Max number of k-points (npk) =  40000
     Max angular momentum in pseudopotentials (lmaxx) =  4
     file Ba.pbesol-spn-kjpaw_psl.1.0.0.UPF: wavefunction(s)  5S 6S renormalized
     file Cd.pbesol-dn-rrkjus_psl.0.3.1.UPF: wavefunction(s)  4D renormalized
     Message from routine setup:
     using ibrav=0 with symmetry is DISCOURAGED, use correct ibrav instead
 
     Subspace diagonalization in iterative solution of the eigenvalue problem:
     a serial algorithm will be used

 
     G-vector sticks info
     --------------------
     sticks:   dense  smooth     PW     G-vecs:    dense   smooth      PW
     Sum        5457    2725    819               385727   136307   22463
 
     Using Slab Decomposition
 


     bravais-lattice index     =            0
     lattice parameter (alat)  =      17.0078  a.u.
     unit-cell volume          =    2171.6512 (a.u.)^3
     number of atoms/cell      =           10
     number of atomic types    =            3
     number of electrons       =        84.00
     number of Kohn-Sham states=           50
     kinetic-energy cutoff     =      60.0000  Ry
     charge density cutoff     =     480.0000  Ry
     scf convergence threshold =      2.0E-09
     mixing beta               =       0.4000
     number of iterations used =            8  plain     mixing
     Exchange-correlation= PBESOL
                           (   1   4  10   8   0   0   0)

     GPU acceleration is ACTIVE.


     GPU used by master process:

        Device Number: 0
        Device name: Tesla P100-PCIE-16GB
        Compute capability : 60
        Ratio of single to double precision performance  : 2
        Memory Clock Rate (KHz): 715000
        Memory Bus Width (bits): 4096
        Peak Memory Bandwidth (GB/s): 732.16

     celldm(1)=  17.007847  celldm(2)=   0.000000  celldm(3)=   0.000000
     celldm(4)=   0.000000  celldm(5)=   0.000000  celldm(6)=   0.000000

     crystal axes: (cart. coord. in units of alat)
               a(1) = (   0.255118  -0.966910   0.000000 )  
               a(2) = (   0.255118   0.966910   0.000000 )  
               a(3) = (   0.000000   0.000000   0.894717 )  

     reciprocal axes: (cart. coord. in units 2 pi/alat)
               b(1) = (  1.959881 -0.517111  0.000000 )  
               b(2) = (  1.959881  0.517111 -0.000000 )  
               b(3) = ( -0.000000  0.000000  1.117672 )  


     PseudoPot. # 1 for As read from file:
     ./pseudo/As.pbesol-n-rrkjus_psl.0.2.UPF
     MD5 check sum: 1aa86e6aa4f77befd3aa87cac6788838
     Pseudo is Ultrasoft + core correction, Zval =  5.0
     Generated using "atomic" code by A. Dal Corso  v.6.0 svn rev. 13079
     Using radial grid of 1209 points,  4 beta functions with: 
                l(1) =   0
                l(2) =   0
                l(3) =   1
                l(4) =   1
     Q(r) pseudized with 0 coefficients 


     PseudoPot. # 2 for Ba read from file:
     ./pseudo/Ba.pbesol-spn-kjpaw_psl.1.0.0.UPF
     MD5 check sum: f28c4a63d325c1a0d00fd3a4f19b8d73
     Pseudo is Projector augmented-wave + core cor, Zval = 10.0
     Generated using "atomic" code by A. Dal Corso  v.6.0 svn rev. 13079
     Shape of augmentation charge: PSQ
     Using radial grid of 1251 points,  7 beta functions with: 
                l(1) =   0
                l(2) =   0
                l(3) =   0
                l(4) =   1
                l(5) =   1
                l(6) =   2
                l(7) =   2
     Q(r) pseudized with 0 coefficients 


     PseudoPot. # 3 for Cd read from file:
     ./pseudo/Cd.pbesol-dn-rrkjus_psl.0.3.1.UPF
     MD5 check sum: 1f02951eb1ebb2be2329879281757063
     Pseudo is Ultrasoft + core correction, Zval = 12.0
     Generated using "atomic" code by A. Dal Corso  v.6.0 svn rev. 13079
     Using radial grid of 1239 points,  6 beta functions with: 
                l(1) =   0
                l(2) =   0
                l(3) =   1
                l(4) =   1
                l(5) =   2
                l(6) =   2
     Q(r) pseudized with 0 coefficients 


     atomic species   valence    mass     pseudopotential
        As             5.00    74.92160     As( 1.00)
        Ba            10.00   137.32700     Ba( 1.00)
        Cd            12.00   112.41100     Cd( 1.00)

     Starting magnetic structure 
     atomic species   magnetization
        As           0.100
        Ba           0.100
        Cd           0.100

      4 Sym. Ops. (no inversion) found ( 2 have fractional translation)


                                    s                        frac. trans.

      isym =  1     identity                                     

 cryst.   s( 1) = (     1          0          0      )
                  (     0          1          0      )
                  (     0          0          1      )

 cart.    s( 1) = (  1.0000000 -0.0000000  0.0000000 )
                  (  0.0000000  1.0000000  0.0000000 )
                  (  0.0000000  0.0000000  1.0000000 )


      isym =  2     180 deg rotation - cart. axis [0,0,1]        

 cryst.   s( 2) = (    -1          0          0      )    f =(  0.0000000 )
                  (     0         -1          0      )       ( -0.0000000 )
                  (     0          0          1      )       ( -0.5000000 )

 cart.    s( 2) = ( -1.0000000  0.0000000  0.0000000 )    f =( -0.0000000 )
                  ( -0.0000000 -1.0000000  0.0000000 )       ( -0.0000000 )
                  (  0.0000000  0.0000000  1.0000000 )       ( -0.4473585 )


      isym =  3     inv. 180 deg rotation - cart. axis [0,1,0]   

 cryst.   s( 3) = (     0          1          0      )    f =(  0.0000000 )
                  (     1          0          0      )       ( -0.0000000 )
                  (     0          0          1      )       ( -0.5000000 )

 cart.    s( 3) = (  1.0000000  0.0000000  0.0000000 )    f =(  0.0000000 )
                  (  0.0000000 -1.0000000  0.0000000 )       ( -0.0000000 )
                  (  0.0000000  0.0000000  1.0000000 )       ( -0.4473585 )


      isym =  4     inv. 180 deg rotation - cart. axis [1,0,0]   

 cryst.   s( 4) = (     0         -1          0      )
                  (    -1          0          0      )
                  (     0          0          1      )

 cart.    s( 4) = ( -1.0000000 -0.0000000  0.0000000 )
                  ( -0.0000000  1.0000000  0.0000000 )
                  (  0.0000000  0.0000000  1.0000000 )


   Cartesian axes

     site n.     atom                  positions (alat units)
         1           Ba  tau(   1) = (  -0.0000000   1.3619895   0.8632229  )
         2           Ba  tau(   2) = (   0.2551175   1.5387406   0.4158644  )
         3           Ba  tau(   3) = (   0.0000000   1.0403952   0.2680572  )
         4           Ba  tau(   4) = (   0.2551175   1.8603349   0.7154157  )
         5           Cd  tau(   5) = (   0.0000000   1.7516542   0.1346549  )
         6           Cd  tau(   6) = (   0.2551175   1.1490759   0.5820134  )
         7           As  tau(   7) = (  -0.0000000   1.8174041   0.4473585  )
         8           As  tau(   8) = (   0.2551175   1.0833260   0.0000000  )
         9           As  tau(   9) = (   0.0000000   1.2975933   0.5100781  )
        10           As  tau(  10) = (   0.2551175   1.6031369   0.0627197  )

   Crystallographic axes

     site n.     atom                  positions (cryst. coord.)
         1           Ba  tau(   1) = ( -0.7043000  0.7043000  0.9648000  )
         2           Ba  tau(   2) = ( -0.2957000  1.2957000  0.4648000  )
         3           Ba  tau(   3) = ( -0.5380000  0.5380000  0.2996000  )
         4           Ba  tau(   4) = ( -0.4620000  1.4620000  0.7996000  )
         5           Cd  tau(   5) = ( -0.9058000  0.9058000  0.1505000  )
         6           Cd  tau(   6) = ( -0.0942000  1.0942000  0.6505000  )
         7           As  tau(   7) = ( -0.9398000  0.9398000  0.5000000  )
         8           As  tau(   8) = ( -0.0602000  1.0602000  0.0000000  )
         9           As  tau(   9) = ( -0.6710000  0.6710000  0.5701000  )
        10           As  tau(  10) = ( -0.3290000  1.3290000  0.0701000  )

     number of k points=   124  Marzari-Vanderbilt smearing, width (Ry)=  0.0100
                       cart. coord. in units 2pi/alat
        k(    1) = (   0.0000000   0.0000000   0.0000000), wk =   0.0016667
        k(    2) = (   0.0000000   0.0000000   0.1862787), wk =   0.0033333
        k(    3) = (   0.0000000   0.0000000   0.3725573), wk =   0.0033333
        k(    4) = (   0.0000000   0.0000000  -0.5588360), wk =   0.0016667
        k(    5) = (   0.1959881   0.0517111   0.0000000), wk =   0.0066667
        k(    6) = (   0.1959881   0.0517111   0.1862787), wk =   0.0133333
        k(    7) = (   0.1959881   0.0517111   0.3725573), wk =   0.0133333
        k(    8) = (   0.1959881   0.0517111  -0.5588360), wk =   0.0066667
        k(    9) = (   0.3919762   0.1034222   0.0000000), wk =   0.0066667
        k(   10) = (   0.3919762   0.1034222   0.1862787), wk =   0.0133333
        k(   11) = (   0.3919762   0.1034222   0.3725573), wk =   0.0133333
        k(   12) = (   0.3919762   0.1034222  -0.5588360), wk =   0.0066667
        k(   13) = (   0.5879643   0.1551334   0.0000000), wk =   0.0066667
        k(   14) = (   0.5879643   0.1551334   0.1862787), wk =   0.0133333
        k(   15) = (   0.5879643   0.1551334   0.3725573), wk =   0.0133333
        k(   16) = (   0.5879643   0.1551334  -0.5588360), wk =   0.0066667
        k(   17) = (   0.7839524   0.2068445   0.0000000), wk =   0.0066667
        k(   18) = (   0.7839524   0.2068445   0.1862787), wk =   0.0133333
        k(   19) = (   0.7839524   0.2068445   0.3725573), wk =   0.0133333
        k(   20) = (   0.7839524   0.2068445  -0.5588360), wk =   0.0066667
        k(   21) = (  -0.9799404  -0.2585556   0.0000000), wk =   0.0033333
        k(   22) = (  -0.9799404  -0.2585556   0.1862787), wk =   0.0066667
        k(   23) = (  -0.9799404  -0.2585556   0.3725573), wk =   0.0066667
        k(   24) = (  -0.9799404  -0.2585556  -0.5588360), wk =   0.0033333
        k(   25) = (   0.3919762   0.0000000   0.0000000), wk =   0.0033333
        k(   26) = (   0.3919762   0.0000000   0.1862787), wk =   0.0066667
        k(   27) = (   0.3919762   0.0000000   0.3725573), wk =   0.0066667
        k(   28) = (   0.3919762   0.0000000  -0.5588360), wk =   0.0033333
        k(   29) = (   0.5879643   0.0517111   0.0000000), wk =   0.0066667
        k(   30) = (   0.5879643   0.0517111   0.1862787), wk =   0.0133333
        k(   31) = (   0.5879643   0.0517111   0.3725573), wk =   0.0133333
        k(   32) = (   0.5879643   0.0517111  -0.5588360), wk =   0.0066667
        k(   33) = (   0.7839524   0.1034222   0.0000000), wk =   0.0066667
        k(   34) = (   0.7839524   0.1034222   0.1862787), wk =   0.0133333
        k(   35) = (   0.7839524   0.1034222   0.3725573), wk =   0.0133333
        k(   36) = (   0.7839524   0.1034222  -0.5588360), wk =   0.0066667
        k(   37) = (   0.9799404   0.1551334   0.0000000), wk =   0.0066667
        k(   38) = (   0.9799404   0.1551334   0.1862787), wk =   0.0133333
        k(   39) = (   0.9799404   0.1551334   0.3725573), wk =   0.0133333
        k(   40) = (   0.9799404   0.1551334  -0.5588360), wk =   0.0066667
        k(   41) = (  -0.7839524  -0.3102667   0.0000000), wk =   0.0066667
        k(   42) = (  -0.7839524  -0.3102667   0.1862787), wk =   0.0133333
        k(   43) = (  -0.7839524  -0.3102667   0.3725573), wk =   0.0133333
        k(   44) = (  -0.7839524  -0.3102667  -0.5588360), wk =   0.0066667
        k(   45) = (  -0.5879643  -0.2585556   0.0000000), wk =   0.0066667
        k(   46) = (  -0.5879643  -0.2585556   0.1862787), wk =   0.0133333
        k(   47) = (  -0.5879643  -0.2585556   0.3725573), wk =   0.0133333
        k(   48) = (  -0.5879643  -0.2585556  -0.5588360), wk =   0.0066667
        k(   49) = (  -0.3919762  -0.2068445   0.0000000), wk =   0.0066667
        k(   50) = (  -0.3919762  -0.2068445   0.1862787), wk =   0.0133333
        k(   51) = (  -0.3919762  -0.2068445   0.3725573), wk =   0.0133333
        k(   52) = (  -0.3919762  -0.2068445  -0.5588360), wk =   0.0066667
        k(   53) = (  -0.1959881  -0.1551334   0.0000000), wk =   0.0066667
        k(   54) = (  -0.1959881  -0.1551334   0.1862787), wk =   0.0133333
        k(   55) = (  -0.1959881  -0.1551334   0.3725573), wk =   0.0133333
        k(   56) = (  -0.1959881  -0.1551334  -0.5588360), wk =   0.0066667
        k(   57) = (   0.0000000  -0.1034222   0.0000000), wk =   0.0033333
        k(   58) = (   0.0000000  -0.1034222   0.1862787), wk =   0.0066667
        k(   59) = (   0.0000000  -0.1034222   0.3725573), wk =   0.0066667
        k(   60) = (   0.0000000  -0.1034222  -0.5588360), wk =   0.0033333
        k(   61) = (   0.7839524   0.0000000   0.0000000), wk =   0.0033333
        k(   62) = (   0.7839524   0.0000000   0.1862787), wk =   0.0066667
        k(   63) = (   0.7839524   0.0000000   0.3725573), wk =   0.0066667
        k(   64) = (   0.7839524   0.0000000  -0.5588360), wk =   0.0033333
        k(   65) = (   0.9799404   0.0517111   0.0000000), wk =   0.0066667
        k(   66) = (   0.9799404   0.0517111   0.1862787), wk =   0.0133333
        k(   67) = (   0.9799404   0.0517111   0.3725573), wk =   0.0133333
        k(   68) = (   0.9799404   0.0517111  -0.5588360), wk =   0.0066667
        k(   69) = (   1.1759285   0.1034222   0.0000000), wk =   0.0066667
        k(   70) = (   1.1759285   0.1034222   0.1862787), wk =   0.0133333
        k(   71) = (   1.1759285   0.1034222   0.3725573), wk =   0.0133333
        k(   72) = (   1.1759285   0.1034222  -0.5588360), wk =   0.0066667
        k(   73) = (  -0.5879643  -0.3619778   0.0000000), wk =   0.0066667
        k(   74) = (  -0.5879643  -0.3619778   0.1862787), wk =   0.0133333
        k(   75) = (  -0.5879643  -0.3619778   0.3725573), wk =   0.0133333
        k(   76) = (  -0.5879643  -0.3619778  -0.5588360), wk =   0.0066667
        k(   77) = (  -0.3919762  -0.3102667   0.0000000), wk =   0.0066667
        k(   78) = (  -0.3919762  -0.3102667   0.1862787), wk =   0.0133333
        k(   79) = (  -0.3919762  -0.3102667   0.3725573), wk =   0.0133333
        k(   80) = (  -0.3919762  -0.3102667  -0.5588360), wk =   0.0066667
        k(   81) = (  -0.1959881  -0.2585556   0.0000000), wk =   0.0066667
        k(   82) = (  -0.1959881  -0.2585556   0.1862787), wk =   0.0133333
        k(   83) = (  -0.1959881  -0.2585556   0.3725573), wk =   0.0133333
        k(   84) = (  -0.1959881  -0.2585556  -0.5588360), wk =   0.0066667
        k(   85) = (   0.0000000  -0.2068445   0.0000000), wk =   0.0033333
        k(   86) = (   0.0000000  -0.2068445   0.1862787), wk =   0.0066667
        k(   87) = (   0.0000000  -0.2068445   0.3725573), wk =   0.0066667
        k(   88) = (   0.0000000  -0.2068445  -0.5588360), wk =   0.0033333
        k(   89) = (   1.1759285   0.0000000   0.0000000), wk =   0.0033333
        k(   90) = (   1.1759285   0.0000000   0.1862787), wk =   0.0066667
        k(   91) = (   1.1759285   0.0000000   0.3725573), wk =   0.0066667
        k(   92) = (   1.1759285   0.0000000  -0.5588360), wk =   0.0033333
        k(   93) = (   1.3719166   0.0517111   0.0000000), wk =   0.0066667
        k(   94) = (   1.3719166   0.0517111   0.1862787), wk =   0.0133333
        k(   95) = (   1.3719166   0.0517111   0.3725573), wk =   0.0133333
        k(   96) = (   1.3719166   0.0517111  -0.5588360), wk =   0.0066667
        k(   97) = (  -0.3919762  -0.4136889   0.0000000), wk =   0.0066667
        k(   98) = (  -0.3919762  -0.4136889   0.1862787), wk =   0.0133333
        k(   99) = (  -0.3919762  -0.4136889   0.3725573), wk =   0.0133333
        k(  100) = (  -0.3919762  -0.4136889  -0.5588360), wk =   0.0066667
        k(  101) = (  -0.1959881  -0.3619778   0.0000000), wk =   0.0066667
        k(  102) = (  -0.1959881  -0.3619778   0.1862787), wk =   0.0133333
        k(  103) = (  -0.1959881  -0.3619778   0.3725573), wk =   0.0133333
        k(  104) = (  -0.1959881  -0.3619778  -0.5588360), wk =   0.0066667
        k(  105) = (  -0.0000000  -0.3102667   0.0000000), wk =   0.0033333
        k(  106) = (  -0.0000000  -0.3102667   0.1862787), wk =   0.0066667
        k(  107) = (  -0.0000000  -0.3102667   0.3725573), wk =   0.0066667
        k(  108) = (  -0.0000000  -0.3102667  -0.5588360), wk =   0.0033333
        k(  109) = (   1.5679047   0.0000000   0.0000000), wk =   0.0033333
        k(  110) = (   1.5679047   0.0000000   0.1862787), wk =   0.0066667
        k(  111) = (   1.5679047   0.0000000   0.3725573), wk =   0.0066667
        k(  112) = (   1.5679047   0.0000000  -0.5588360), wk =   0.0033333
        k(  113) = (  -0.1959881  -0.4654001   0.0000000), wk =   0.0066667
        k(  114) = (  -0.1959881  -0.4654001   0.1862787), wk =   0.0133333
        k(  115) = (  -0.1959881  -0.4654001   0.3725573), wk =   0.0133333
        k(  116) = (  -0.1959881  -0.4654001  -0.5588360), wk =   0.0066667
        k(  117) = (  -0.0000000  -0.4136889   0.0000000), wk =   0.0033333
        k(  118) = (  -0.0000000  -0.4136889   0.1862787), wk =   0.0066667
        k(  119) = (  -0.0000000  -0.4136889   0.3725573), wk =   0.0066667
        k(  120) = (  -0.0000000  -0.4136889  -0.5588360), wk =   0.0033333
        k(  121) = (  -1.9598809   0.0000000   0.0000000), wk =   0.0016667
        k(  122) = (  -1.9598809   0.0000000   0.1862787), wk =   0.0033333
        k(  123) = (  -1.9598809   0.0000000   0.3725573), wk =   0.0033333
        k(  124) = (  -1.9598809   0.0000000  -0.5588360), wk =   0.0016667

                       cryst. coord.
        k(    1) = (   0.0000000   0.0000000   0.0000000), wk =   0.0016667
        k(    2) = (   0.0000000   0.0000000   0.1666667), wk =   0.0033333
        k(    3) = (   0.0000000   0.0000000   0.3333333), wk =   0.0033333
        k(    4) = (   0.0000000   0.0000000  -0.5000000), wk =   0.0016667
        k(    5) = (  -0.0000000   0.1000000   0.0000000), wk =   0.0066667
        k(    6) = (  -0.0000000   0.1000000   0.1666667), wk =   0.0133333
        k(    7) = (  -0.0000000   0.1000000   0.3333333), wk =   0.0133333
        k(    8) = (  -0.0000000   0.1000000  -0.5000000), wk =   0.0066667
        k(    9) = (  -0.0000000   0.2000000   0.0000000), wk =   0.0066667
        k(   10) = (  -0.0000000   0.2000000   0.1666667), wk =   0.0133333
        k(   11) = (  -0.0000000   0.2000000   0.3333333), wk =   0.0133333
        k(   12) = (  -0.0000000   0.2000000  -0.5000000), wk =   0.0066667
        k(   13) = (  -0.0000000   0.3000000   0.0000000), wk =   0.0066667
        k(   14) = (  -0.0000000   0.3000000   0.1666667), wk =   0.0133333
        k(   15) = (  -0.0000000   0.3000000   0.3333333), wk =   0.0133333
        k(   16) = (  -0.0000000   0.3000000  -0.5000000), wk =   0.0066667
        k(   17) = (  -0.0000000   0.4000000   0.0000000), wk =   0.0066667
        k(   18) = (  -0.0000000   0.4000000   0.1666667), wk =   0.0133333
        k(   19) = (  -0.0000000   0.4000000   0.3333333), wk =   0.0133333
        k(   20) = (  -0.0000000   0.4000000  -0.5000000), wk =   0.0066667
        k(   21) = (   0.0000000  -0.5000000   0.0000000), wk =   0.0033333
        k(   22) = (   0.0000000  -0.5000000   0.1666667), wk =   0.0066667
        k(   23) = (   0.0000000  -0.5000000   0.3333333), wk =   0.0066667
        k(   24) = (   0.0000000  -0.5000000  -0.5000000), wk =   0.0033333
        k(   25) = (   0.1000000   0.1000000   0.0000000), wk =   0.0033333
        k(   26) = (   0.1000000   0.1000000   0.1666667), wk =   0.0066667
        k(   27) = (   0.1000000   0.1000000   0.3333333), wk =   0.0066667
        k(   28) = (   0.1000000   0.1000000  -0.5000000), wk =   0.0033333
        k(   29) = (   0.1000000   0.2000000   0.0000000), wk =   0.0066667
        k(   30) = (   0.1000000   0.2000000   0.1666667), wk =   0.0133333
        k(   31) = (   0.1000000   0.2000000   0.3333333), wk =   0.0133333
        k(   32) = (   0.1000000   0.2000000  -0.5000000), wk =   0.0066667
        k(   33) = (   0.1000000   0.3000000   0.0000000), wk =   0.0066667
        k(   34) = (   0.1000000   0.3000000   0.1666667), wk =   0.0133333
        k(   35) = (   0.1000000   0.3000000   0.3333333), wk =   0.0133333
        k(   36) = (   0.1000000   0.3000000  -0.5000000), wk =   0.0066667
        k(   37) = (   0.1000000   0.4000000   0.0000000), wk =   0.0066667
        k(   38) = (   0.1000000   0.4000000   0.1666667), wk =   0.0133333
        k(   39) = (   0.1000000   0.4000000   0.3333333), wk =   0.0133333
        k(   40) = (   0.1000000   0.4000000  -0.5000000), wk =   0.0066667
        k(   41) = (   0.1000000  -0.5000000   0.0000000), wk =   0.0066667
        k(   42) = (   0.1000000  -0.5000000   0.1666667), wk =   0.0133333
        k(   43) = (   0.1000000  -0.5000000   0.3333333), wk =   0.0133333
        k(   44) = (   0.1000000  -0.5000000  -0.5000000), wk =   0.0066667
        k(   45) = (   0.1000000  -0.4000000   0.0000000), wk =   0.0066667
        k(   46) = (   0.1000000  -0.4000000   0.1666667), wk =   0.0133333
        k(   47) = (   0.1000000  -0.4000000   0.3333333), wk =   0.0133333
        k(   48) = (   0.1000000  -0.4000000  -0.5000000), wk =   0.0066667
        k(   49) = (   0.1000000  -0.3000000   0.0000000), wk =   0.0066667
        k(   50) = (   0.1000000  -0.3000000   0.1666667), wk =   0.0133333
        k(   51) = (   0.1000000  -0.3000000   0.3333333), wk =   0.0133333
        k(   52) = (   0.1000000  -0.3000000  -0.5000000), wk =   0.0066667
        k(   53) = (   0.1000000  -0.2000000   0.0000000), wk =   0.0066667
        k(   54) = (   0.1000000  -0.2000000   0.1666667), wk =   0.0133333
        k(   55) = (   0.1000000  -0.2000000   0.3333333), wk =   0.0133333
        k(   56) = (   0.1000000  -0.2000000  -0.5000000), wk =   0.0066667
        k(   57) = (   0.1000000  -0.1000000   0.0000000), wk =   0.0033333
        k(   58) = (   0.1000000  -0.1000000   0.1666667), wk =   0.0066667
        k(   59) = (   0.1000000  -0.1000000   0.3333333), wk =   0.0066667
        k(   60) = (   0.1000000  -0.1000000  -0.5000000), wk =   0.0033333
        k(   61) = (   0.2000000   0.2000000   0.0000000), wk =   0.0033333
        k(   62) = (   0.2000000   0.2000000   0.1666667), wk =   0.0066667
        k(   63) = (   0.2000000   0.2000000   0.3333333), wk =   0.0066667
        k(   64) = (   0.2000000   0.2000000  -0.5000000), wk =   0.0033333
        k(   65) = (   0.2000000   0.3000000   0.0000000), wk =   0.0066667
        k(   66) = (   0.2000000   0.3000000   0.1666667), wk =   0.0133333
        k(   67) = (   0.2000000   0.3000000   0.3333333), wk =   0.0133333
        k(   68) = (   0.2000000   0.3000000  -0.5000000), wk =   0.0066667
        k(   69) = (   0.2000000   0.4000000   0.0000000), wk =   0.0066667
        k(   70) = (   0.2000000   0.4000000   0.1666667), wk =   0.0133333
        k(   71) = (   0.2000000   0.4000000   0.3333333), wk =   0.0133333
        k(   72) = (   0.2000000   0.4000000  -0.5000000), wk =   0.0066667
        k(   73) = (   0.2000000  -0.5000000   0.0000000), wk =   0.0066667
        k(   74) = (   0.2000000  -0.5000000   0.1666667), wk =   0.0133333
        k(   75) = (   0.2000000  -0.5000000   0.3333333), wk =   0.0133333
        k(   76) = (   0.2000000  -0.5000000  -0.5000000), wk =   0.0066667
        k(   77) = (   0.2000000  -0.4000000   0.0000000), wk =   0.0066667
        k(   78) = (   0.2000000  -0.4000000   0.1666667), wk =   0.0133333
        k(   79) = (   0.2000000  -0.4000000   0.3333333), wk =   0.0133333
        k(   80) = (   0.2000000  -0.4000000  -0.5000000), wk =   0.0066667
        k(   81) = (   0.2000000  -0.3000000   0.0000000), wk =   0.0066667
        k(   82) = (   0.2000000  -0.3000000   0.1666667), wk =   0.0133333
        k(   83) = (   0.2000000  -0.3000000   0.3333333), wk =   0.0133333
        k(   84) = (   0.2000000  -0.3000000  -0.5000000), wk =   0.0066667
        k(   85) = (   0.2000000  -0.2000000   0.0000000), wk =   0.0033333
        k(   86) = (   0.2000000  -0.2000000   0.1666667), wk =   0.0066667
        k(   87) = (   0.2000000  -0.2000000   0.3333333), wk =   0.0066667
        k(   88) = (   0.2000000  -0.2000000  -0.5000000), wk =   0.0033333
        k(   89) = (   0.3000000   0.3000000   0.0000000), wk =   0.0033333
        k(   90) = (   0.3000000   0.3000000   0.1666667), wk =   0.0066667
        k(   91) = (   0.3000000   0.3000000   0.3333333), wk =   0.0066667
        k(   92) = (   0.3000000   0.3000000  -0.5000000), wk =   0.0033333
        k(   93) = (   0.3000000   0.4000000   0.0000000), wk =   0.0066667
        k(   94) = (   0.3000000   0.4000000   0.1666667), wk =   0.0133333
        k(   95) = (   0.3000000   0.4000000   0.3333333), wk =   0.0133333
        k(   96) = (   0.3000000   0.4000000  -0.5000000), wk =   0.0066667
        k(   97) = (   0.3000000  -0.5000000   0.0000000), wk =   0.0066667
        k(   98) = (   0.3000000  -0.5000000   0.1666667), wk =   0.0133333
        k(   99) = (   0.3000000  -0.5000000   0.3333333), wk =   0.0133333
        k(  100) = (   0.3000000  -0.5000000  -0.5000000), wk =   0.0066667
        k(  101) = (   0.3000000  -0.4000000   0.0000000), wk =   0.0066667
        k(  102) = (   0.3000000  -0.4000000   0.1666667), wk =   0.0133333
        k(  103) = (   0.3000000  -0.4000000   0.3333333), wk =   0.0133333
        k(  104) = (   0.3000000  -0.4000000  -0.5000000), wk =   0.0066667
        k(  105) = (   0.3000000  -0.3000000   0.0000000), wk =   0.0033333
        k(  106) = (   0.3000000  -0.3000000   0.1666667), wk =   0.0066667
        k(  107) = (   0.3000000  -0.3000000   0.3333333), wk =   0.0066667
        k(  108) = (   0.3000000  -0.3000000  -0.5000000), wk =   0.0033333
        k(  109) = (   0.4000000   0.4000000   0.0000000), wk =   0.0033333
        k(  110) = (   0.4000000   0.4000000   0.1666667), wk =   0.0066667
        k(  111) = (   0.4000000   0.4000000   0.3333333), wk =   0.0066667
        k(  112) = (   0.4000000   0.4000000  -0.5000000), wk =   0.0033333
        k(  113) = (   0.4000000  -0.5000000   0.0000000), wk =   0.0066667
        k(  114) = (   0.4000000  -0.5000000   0.1666667), wk =   0.0133333
        k(  115) = (   0.4000000  -0.5000000   0.3333333), wk =   0.0133333
        k(  116) = (   0.4000000  -0.5000000  -0.5000000), wk =   0.0066667
        k(  117) = (   0.4000000  -0.4000000   0.0000000), wk =   0.0033333
        k(  118) = (   0.4000000  -0.4000000   0.1666667), wk =   0.0066667
        k(  119) = (   0.4000000  -0.4000000   0.3333333), wk =   0.0066667
        k(  120) = (   0.4000000  -0.4000000  -0.5000000), wk =   0.0033333
        k(  121) = (  -0.5000000  -0.5000000   0.0000000), wk =   0.0016667
        k(  122) = (  -0.5000000  -0.5000000   0.1666667), wk =   0.0033333
        k(  123) = (  -0.5000000  -0.5000000   0.3333333), wk =   0.0033333
        k(  124) = (  -0.5000000  -0.5000000  -0.5000000), wk =   0.0016667

     Dense  grid:   385727 G-vectors     FFT dimensions: ( 120, 120, 108)

     Smooth grid:   136307 G-vectors     FFT dimensions: (  90,  90,  80)

     Dynamical RAM for                 wfc:      13.00 MB

     Dynamical RAM for     wfc (w. buffer):    3237.88 MB

     Dynamical RAM for           str. fact:      17.66 MB

     Dynamical RAM for           local pot:       0.00 MB

     Dynamical RAM for          nlocal pot:      37.45 MB

     Dynamical RAM for                qrad:       7.03 MB

     Dynamical RAM for          rho,v,vnew:     106.51 MB

     Dynamical RAM for               rhoin:      35.50 MB

     Dynamical RAM for            rho*nmix:     188.34 MB

     Dynamical RAM for           G-vectors:      23.11 MB

     Dynamical RAM for          h,s,v(r/c):       0.46 MB

     Dynamical RAM for          <psi|beta>:       0.11 MB

     Dynamical RAM for                 psi:      26.01 MB

     Dynamical RAM for                hpsi:      26.01 MB

     Dynamical RAM for                spsi:      26.01 MB

     Dynamical RAM for      wfcinit/wfcrot:      28.15 MB

     Dynamical RAM for           addusdens:    1236.00 MB

     Dynamical RAM for          addusforce:    1271.35 MB

     Dynamical RAM for         addusstress:    1303.69 MB

     Estimated static dynamical RAM per process >       3.48 GB

     Estimated max dynamical RAM per process >       4.93 GB
     Generating pointlists ...
     new r_m :   0.1253 (alat units)  2.1316 (a.u.) for type    1
     new r_m :   0.1457 (alat units)  2.4777 (a.u.) for type    2
     new r_m :   0.1253 (alat units)  2.1316 (a.u.) for type    3

     Initial potential from superposition of free atoms

     starting charge      83.9275, renormalised to      84.0000
     Starting wfcs are   54 randomized atomic wfcs
     Checking if some PAW data can be deallocated... 

     total cpu time spent up to now is       22.6 secs

     per-process dynamical memory:    80.4 Mb

     Self-consistent Calculation
[tb_dev] Currently allocated     2.97E+01 Mbytes, locked:    0 /  19
[tb_pin] Currently allocated     0.00E+00 Mbytes, locked:    0 /   0

     iteration #  1     ecut=    60.00 Ry     beta= 0.40
     Davidson diagonalization with overlap

---- Real-time Memory Report at c_bands before calling an iterative solver
          4675 MiB given to the printing process from OS
           117 MiB allocation reported by mallinfo(arena+hblkhd)
         54882 MiB available memory on the node where the printing process lives
     GPU memory used/free/total (MiB): 2762 / 13518 / 16280
------------------
     ethr =  1.00E-02,  avg # of iterations =  6.2

     negative rho (up, down):  3.475E-01 1.341E+00

     total cpu time spent up to now is       58.1 secs

     WARNING: integrated charge=    84.00001013, expected=    84.00000000

     total energy              =   -2035.20998520 Ry
     estimated scf accuracy    <      15.51284192 Ry

     total magnetization       =     0.00 Bohr mag/cell
     absolute magnetization    =    11.51 Bohr mag/cell
[tb_dev] Currently allocated     2.97E+01 Mbytes, locked:    0 /  17
[tb_pin] Currently allocated     0.00E+00 Mbytes, locked:    0 /   0

     iteration #  2     ecut=    60.00 Ry     beta= 0.40
     Davidson diagonalization with overlap

---- Real-time Memory Report at c_bands before calling an iterative solver
          5018 MiB given to the printing process from OS
           208 MiB allocation reported by mallinfo(arena+hblkhd)
         54784 MiB available memory on the node where the printing process lives
     GPU memory used/free/total (MiB): 5174 / 11106 / 16280
------------------
     ethr =  1.00E-02,  avg # of iterations =  1.9

     negative rho (up, down):  1.020E+00 1.731E+00

     total cpu time spent up to now is       81.9 secs

     total energy              =   -2035.36416283 Ry
     estimated scf accuracy    <       2.87550654 Ry

     total magnetization       =     0.00 Bohr mag/cell
     absolute magnetization    =     7.64 Bohr mag/cell
[tb_dev] Currently allocated     2.97E+01 Mbytes, locked:    0 /  17
[tb_pin] Currently allocated     0.00E+00 Mbytes, locked:    0 /   0

     iteration #  3     ecut=    60.00 Ry     beta= 0.40
     Davidson diagonalization with overlap

---- Real-time Memory Report at c_bands before calling an iterative solver
          5122 MiB given to the printing process from OS
           252 MiB allocation reported by mallinfo(arena+hblkhd)
         54763 MiB available memory on the node where the printing process lives
     GPU memory used/free/total (MiB): 5174 / 11106 / 16280
------------------
     ethr =  3.42E-03,  avg # of iterations =  1.7

     negative rho (up, down):  1.278E+00 2.010E+00

     total cpu time spent up to now is      105.1 secs

     WARNING: integrated charge=    84.00046295, expected=    84.00000000

     total energy              =   -2035.41555787 Ry
     estimated scf accuracy    <       0.93922515 Ry

     total magnetization       =     0.00 Bohr mag/cell
     absolute magnetization    =     5.33 Bohr mag/cell
[tb_dev] Currently allocated     2.97E+01 Mbytes, locked:    0 /  17
[tb_pin] Currently allocated     0.00E+00 Mbytes, locked:    0 /   0

     iteration #  4     ecut=    60.00 Ry     beta= 0.40
     Davidson diagonalization with overlap

---- Real-time Memory Report at c_bands before calling an iterative solver
          5227 MiB given to the printing process from OS
           272 MiB allocation reported by mallinfo(arena+hblkhd)
         54745 MiB available memory on the node where the printing process lives
     GPU memory used/free/total (MiB): 5174 / 11106 / 16280
------------------
     ethr =  1.12E-03,  avg # of iterations =  3.9

     negative rho (up, down):  1.123E+00 1.961E+00

     total cpu time spent up to now is      132.1 secs

     WARNING: integrated charge=    84.00055579, expected=    84.00000000

     total energy              =   -2035.38154922 Ry
     estimated scf accuracy    <       2.98237391 Ry

     total magnetization       =    -0.00 Bohr mag/cell
     absolute magnetization    =     5.23 Bohr mag/cell
[tb_dev] Currently allocated     2.97E+01 Mbytes, locked:    0 /  17
[tb_pin] Currently allocated     0.00E+00 Mbytes, locked:    0 /   0

     iteration #  5     ecut=    60.00 Ry     beta= 0.40
     Davidson diagonalization with overlap

---- Real-time Memory Report at c_bands before calling an iterative solver
          5299 MiB given to the printing process from OS
           293 MiB allocation reported by mallinfo(arena+hblkhd)
         54725 MiB available memory on the node where the printing process lives
     GPU memory used/free/total (MiB): 5174 / 11106 / 16280
------------------
     ethr =  1.12E-03,  avg # of iterations =  4.2

     negative rho (up, down):  1.025E+00 1.933E+00

     total cpu time spent up to now is      159.5 secs

     WARNING: integrated charge=    84.00076167, expected=    84.00000000

     total energy              =   -2035.45443105 Ry
     estimated scf accuracy    <       1.38301842 Ry

     total magnetization       =    -0.00 Bohr mag/cell
     absolute magnetization    =     4.99 Bohr mag/cell
[tb_dev] Currently allocated     2.97E+01 Mbytes, locked:    0 /  17
[tb_pin] Currently allocated     0.00E+00 Mbytes, locked:    0 /   0

     iteration #  6     ecut=    60.00 Ry     beta= 0.40
     Davidson diagonalization with overlap

---- Real-time Memory Report at c_bands before calling an iterative solver
          5335 MiB given to the printing process from OS
           313 MiB allocation reported by mallinfo(arena+hblkhd)
         54708 MiB available memory on the node where the printing process lives
     GPU memory used/free/total (MiB): 5174 / 11106 / 16280
------------------
     ethr =  1.12E-03,  avg # of iterations =  1.8

     negative rho (up, down):  9.899E-01 1.945E+00

     total cpu time spent up to now is      182.9 secs

     WARNING: integrated charge=    84.00077675, expected=    84.00000000

     total energy              =   -2035.46815913 Ry
     estimated scf accuracy    <       0.37592839 Ry

     total magnetization       =    -0.00 Bohr mag/cell
     absolute magnetization    =     4.72 Bohr mag/cell
[tb_dev] Currently allocated     2.97E+01 Mbytes, locked:    0 /  17
[tb_pin] Currently allocated     0.00E+00 Mbytes, locked:    0 /   0

     iteration #  7     ecut=    60.00 Ry     beta= 0.40
     Davidson diagonalization with overlap

---- Real-time Memory Report at c_bands before calling an iterative solver
          5355 MiB given to the printing process from OS
           333 MiB allocation reported by mallinfo(arena+hblkhd)
         54687 MiB available memory on the node where the printing process lives
     GPU memory used/free/total (MiB): 5174 / 11106 / 16280
------------------
     ethr =  4.48E-04,  avg # of iterations =  3.3

     negative rho (up, down):  9.869E-01 1.735E+00

     total cpu time spent up to now is      208.7 secs

     WARNING: integrated charge=    84.00078326, expected=    84.00000000

     total energy              =   -2035.47658447 Ry
     estimated scf accuracy    <       0.15979525 Ry

     total magnetization       =    -0.00 Bohr mag/cell
     absolute magnetization    =     4.31 Bohr mag/cell
[tb_dev] Currently allocated     2.97E+01 Mbytes, locked:    0 /  17
[tb_pin] Currently allocated     0.00E+00 Mbytes, locked:    0 /   0

     iteration #  8     ecut=    60.00 Ry     beta= 0.40
     Davidson diagonalization with overlap

---- Real-time Memory Report at c_bands before calling an iterative solver
          5371 MiB given to the printing process from OS
           349 MiB allocation reported by mallinfo(arena+hblkhd)
         54669 MiB available memory on the node where the printing process lives
     GPU memory used/free/total (MiB): 5174 / 11106 / 16280
------------------
     ethr =  1.90E-04,  avg # of iterations =  5.9

     negative rho (up, down):  8.635E-01 1.638E+00

     total cpu time spent up to now is      239.9 secs

     WARNING: integrated charge=    84.00081113, expected=    84.00000000

     total energy              =   -2035.48889281 Ry
     estimated scf accuracy    <       1.23513450 Ry

     total magnetization       =    -0.00 Bohr mag/cell
     absolute magnetization    =     4.72 Bohr mag/cell
[tb_dev] Currently allocated     2.97E+01 Mbytes, locked:    0 /  17
[tb_pin] Currently allocated     0.00E+00 Mbytes, locked:    0 /   0

     iteration #  9     ecut=    60.00 Ry     beta= 0.40
     Davidson diagonalization with overlap

---- Real-time Memory Report at c_bands before calling an iterative solver
          5387 MiB given to the printing process from OS
           365 MiB allocation reported by mallinfo(arena+hblkhd)
         54662 MiB available memory on the node where the printing process lives
     GPU memory used/free/total (MiB): 5174 / 11106 / 16280
------------------
     ethr =  1.90E-04,  avg # of iterations =  4.3

     negative rho (up, down):  8.410E-01 1.680E+00

     total cpu time spent up to now is      268.6 secs

     WARNING: integrated charge=    84.00073097, expected=    84.00000000

     total energy              =   -2035.52268352 Ry
     estimated scf accuracy    <       2.70190288 Ry

     total magnetization       =    -0.00 Bohr mag/cell
     absolute magnetization    =     4.57 Bohr mag/cell
[tb_dev] Currently allocated     2.97E+01 Mbytes, locked:    0 /  17
[tb_pin] Currently allocated     0.00E+00 Mbytes, locked:    0 /   0

     iteration # 10     ecut=    60.00 Ry     beta= 0.40
     Davidson diagonalization with overlap

---- Real-time Memory Report at c_bands before calling an iterative solver
          5403 MiB given to the printing process from OS
           381 MiB allocation reported by mallinfo(arena+hblkhd)
         54648 MiB available memory on the node where the printing process lives
     GPU memory used/free/total (MiB): 5174 / 11106 / 16280
------------------
     ethr =  1.90E-04,  avg # of iterations =  2.0

     negative rho (up, down):  9.274E-01 1.752E+00

     total cpu time spent up to now is      292.3 secs

     WARNING: integrated charge=    84.00076356, expected=    84.00000000

     total energy              =   -2035.48226666 Ry
     estimated scf accuracy    <       2.80708815 Ry

     total magnetization       =    -0.00 Bohr mag/cell
     absolute magnetization    =     4.79 Bohr mag/cell
[tb_dev] Currently allocated     2.97E+01 Mbytes, locked:    0 /  17
[tb_pin] Currently allocated     0.00E+00 Mbytes, locked:    0 /   0

     iteration # 11     ecut=    60.00 Ry     beta= 0.40
     Davidson diagonalization with overlap

---- Real-time Memory Report at c_bands before calling an iterative solver
          5415 MiB given to the printing process from OS
           389 MiB allocation reported by mallinfo(arena+hblkhd)
         54641 MiB available memory on the node where the printing process lives
     GPU memory used/free/total (MiB): 5174 / 11106 / 16280
------------------
     ethr =  1.90E-04,  avg # of iterations =  2.8

     negative rho (up, down):  9.530E-01 1.658E+00

     total cpu time spent up to now is      317.9 secs

     WARNING: integrated charge=    84.00074796, expected=    84.00000000

     total energy              =   -2035.47282979 Ry
     estimated scf accuracy    <       1.29135083 Ry

     total magnetization       =    -0.00 Bohr mag/cell
     absolute magnetization    =     4.96 Bohr mag/cell
[tb_dev] Currently allocated     2.97E+01 Mbytes, locked:    0 /  17
[tb_pin] Currently allocated     0.00E+00 Mbytes, locked:    0 /   0

     iteration # 12     ecut=    60.00 Ry     beta= 0.40
     Davidson diagonalization with overlap

---- Real-time Memory Report at c_bands before calling an iterative solver
          5423 MiB given to the printing process from OS
           397 MiB allocation reported by mallinfo(arena+hblkhd)
         54634 MiB available memory on the node where the printing process lives
     GPU memory used/free/total (MiB): 5174 / 11106 / 16280
------------------
     ethr =  1.90E-04,  avg # of iterations =  5.1

     negative rho (up, down):  9.973E-01 1.583E+00

     total cpu time spent up to now is      347.7 secs

     WARNING: integrated charge=    84.00082492, expected=    84.00000000

     total energy              =   -2035.51017360 Ry
     estimated scf accuracy    <       1.93238670 Ry

     total magnetization       =    -0.00 Bohr mag/cell
     absolute magnetization    =     3.95 Bohr mag/cell
[tb_dev] Currently allocated     2.97E+01 Mbytes, locked:    0 /  17
[tb_pin] Currently allocated     0.00E+00 Mbytes, locked:    0 /   0

     iteration # 13     ecut=    60.00 Ry     beta= 0.40
     Davidson diagonalization with overlap

---- Real-time Memory Report at c_bands before calling an iterative solver
          5430 MiB given to the printing process from OS
           404 MiB allocation reported by mallinfo(arena+hblkhd)
         54627 MiB available memory on the node where the printing process lives
     GPU memory used/free/total (MiB): 5174 / 11106 / 16280
------------------
     ethr =  1.90E-04,  avg # of iterations =  3.4

     negative rho (up, down):  9.625E-01 1.689E+00

     total cpu time spent up to now is      374.7 secs

     WARNING: integrated charge=    84.00075956, expected=    84.00000000

     total energy              =   -2035.50181233 Ry
     estimated scf accuracy    <       2.59666499 Ry

     total magnetization       =    -0.00 Bohr mag/cell
     absolute magnetization    =     3.83 Bohr mag/cell
[tb_dev] Currently allocated     2.97E+01 Mbytes, locked:    0 /  17
[tb_pin] Currently allocated     0.00E+00 Mbytes, locked:    0 /   0

     iteration # 14     ecut=    60.00 Ry     beta= 0.40
     Davidson diagonalization with overlap

---- Real-time Memory Report at c_bands before calling an iterative solver
          5438 MiB given to the printing process from OS
           412 MiB allocation reported by mallinfo(arena+hblkhd)
         54619 MiB available memory on the node where the printing process lives
     GPU memory used/free/total (MiB): 5174 / 11106 / 16280
------------------
     ethr =  1.90E-04,  avg # of iterations =  3.0

     negative rho (up, down):  9.462E-01 1.647E+00

     total cpu time spent up to now is      400.0 secs

     WARNING: integrated charge=    84.00071874, expected=    84.00000000

     total energy              =   -2035.50433825 Ry
     estimated scf accuracy    <       1.51458727 Ry

     total magnetization       =    -0.00 Bohr mag/cell
     absolute magnetization    =     2.65 Bohr mag/cell
[tb_dev] Currently allocated     2.97E+01 Mbytes, locked:    0 /  17
[tb_pin] Currently allocated     0.00E+00 Mbytes, locked:    0 /   0

     iteration # 15     ecut=    60.00 Ry     beta= 0.40
     Davidson diagonalization with overlap

---- Real-time Memory Report at c_bands before calling an iterative solver
          5446 MiB given to the printing process from OS
           421 MiB allocation reported by mallinfo(arena+hblkhd)
         54599 MiB available memory on the node where the printing process lives
     GPU memory used/free/total (MiB): 5174 / 11106 / 16280
------------------
     ethr =  1.90E-04,  avg # of iterations =  1.5

     negative rho (up, down):  9.547E-01 1.661E+00

     total cpu time spent up to now is      423.1 secs

     WARNING: integrated charge=    84.00074724, expected=    84.00000000

     total energy              =   -2035.50857137 Ry
     estimated scf accuracy    <       1.25203999 Ry

     total magnetization       =    -0.00 Bohr mag/cell
     absolute magnetization    =     2.26 Bohr mag/cell
[tb_dev] Currently allocated     2.97E+01 Mbytes, locked:    0 /  17
[tb_pin] Currently allocated     0.00E+00 Mbytes, locked:    0 /   0

     iteration # 16     ecut=    60.00 Ry     beta= 0.40
     Davidson diagonalization with overlap

---- Real-time Memory Report at c_bands before calling an iterative solver
          5454 MiB given to the printing process from OS
           429 MiB allocation reported by mallinfo(arena+hblkhd)
         54593 MiB available memory on the node where the printing process lives
     GPU memory used/free/total (MiB): 5174 / 11106 / 16280
------------------
     ethr =  1.90E-04,  avg # of iterations =  1.9

     negative rho (up, down):  9.160E-01 1.717E+00

     total cpu time spent up to now is      446.6 secs

     WARNING: integrated charge=    84.00084793, expected=    84.00000000

     total energy              =   -2035.48281213 Ry
     estimated scf accuracy    <       1.30181469 Ry

     total magnetization       =    -0.00 Bohr mag/cell
     absolute magnetization    =     1.91 Bohr mag/cell
[tb_dev] Currently allocated     2.97E+01 Mbytes, locked:    0 /  17
[tb_pin] Currently allocated     0.00E+00 Mbytes, locked:    0 /   0

     iteration # 17     ecut=    60.00 Ry     beta= 0.40
     Davidson diagonalization with overlap

---- Real-time Memory Report at c_bands before calling an iterative solver
          5463 MiB given to the printing process from OS
           438 MiB allocation reported by mallinfo(arena+hblkhd)
         54587 MiB available memory on the node where the printing process lives
     GPU memory used/free/total (MiB): 5174 / 11106 / 16280
------------------
     ethr =  1.90E-04,  avg # of iterations =  3.1

     negative rho (up, down):  8.546E-01 1.458E+00

     total cpu time spent up to now is      472.6 secs

     WARNING: integrated charge=    84.00081467, expected=    84.00000000

     total energy              =   -2035.50971444 Ry
     estimated scf accuracy    <       0.74063907 Ry

     total magnetization       =    -0.00 Bohr mag/cell
     absolute magnetization    =     1.74 Bohr mag/cell
[tb_dev] Currently allocated     2.97E+01 Mbytes, locked:    0 /  17
[tb_pin] Currently allocated     0.00E+00 Mbytes, locked:    0 /   0

     iteration # 18     ecut=    60.00 Ry     beta= 0.40
     Davidson diagonalization with overlap

---- Real-time Memory Report at c_bands before calling an iterative solver
          5471 MiB given to the printing process from OS
           446 MiB allocation reported by mallinfo(arena+hblkhd)
         54580 MiB available memory on the node where the printing process lives
     GPU memory used/free/total (MiB): 5174 / 11106 / 16280
------------------
     ethr =  1.90E-04,  avg # of iterations =  4.9

     negative rho (up, down):  8.496E-01 1.512E+00

     total cpu time spent up to now is      502.1 secs

     WARNING: integrated charge=    84.00074553, expected=    84.00000000

     total energy              =   -2035.47918935 Ry
     estimated scf accuracy    <       2.96484671 Ry

     total magnetization       =    -0.00 Bohr mag/cell
     absolute magnetization    =     0.94 Bohr mag/cell
[tb_dev] Currently allocated     2.97E+01 Mbytes, locked:    0 /  17
[tb_pin] Currently allocated     0.00E+00 Mbytes, locked:    0 /   0

     iteration # 19     ecut=    60.00 Ry     beta= 0.40
     Davidson diagonalization with overlap

---- Real-time Memory Report at c_bands before calling an iterative solver
          5480 MiB given to the printing process from OS
           454 MiB allocation reported by mallinfo(arena+hblkhd)
         54573 MiB available memory on the node where the printing process lives
     GPU memory used/free/total (MiB): 5174 / 11106 / 16280
------------------
     ethr =  1.90E-04,  avg # of iterations =  4.4

     negative rho (up, down):  8.755E-01 1.506E+00

     total cpu time spent up to now is      530.3 secs

     WARNING: integrated charge=    84.00074636, expected=    84.00000000

     total energy              =   -2035.50500796 Ry
     estimated scf accuracy    <       0.84816448 Ry

     total magnetization       =    -0.00 Bohr mag/cell
     absolute magnetization    =     2.44 Bohr mag/cell
[tb_dev] Currently allocated     2.97E+01 Mbytes, locked:    0 /  17
[tb_pin] Currently allocated     0.00E+00 Mbytes, locked:    0 /   0

     iteration # 20     ecut=    60.00 Ry     beta= 0.40
     Davidson diagonalization with overlap

---- Real-time Memory Report at c_bands before calling an iterative solver
          5488 MiB given to the printing process from OS
           463 MiB allocation reported by mallinfo(arena+hblkhd)
         54567 MiB available memory on the node where the printing process lives
     GPU memory used/free/total (MiB): 5174 / 11106 / 16280
------------------
     ethr =  1.90E-04,  avg # of iterations =  1.0

     negative rho (up, down):  8.985E-01 1.410E+00

     total cpu time spent up to now is      552.3 secs

     WARNING: integrated charge=    84.00082463, expected=    84.00000000

     total energy              =   -2035.50726718 Ry
     estimated scf accuracy    <       0.74021445 Ry

     total magnetization       =    -0.00 Bohr mag/cell
     absolute magnetization    =     2.43 Bohr mag/cell
[tb_dev] Currently allocated     2.97E+01 Mbytes, locked:    0 /  17
[tb_pin] Currently allocated     0.00E+00 Mbytes, locked:    0 /   0

     iteration # 21     ecut=    60.00 Ry     beta= 0.40
     Davidson diagonalization with overlap

---- Real-time Memory Report at c_bands before calling an iterative solver
          5497 MiB given to the printing process from OS
           471 MiB allocation reported by mallinfo(arena+hblkhd)
         54558 MiB available memory on the node where the printing process lives
     GPU memory used/free/total (MiB): 5174 / 11106 / 16280
------------------
     ethr =  1.90E-04,  avg # of iterations =  2.6

     negative rho (up, down):  9.047E-01 1.353E+00

     total cpu time spent up to now is      577.3 secs

     WARNING: integrated charge=    84.00078045, expected=    84.00000000

     total energy              =   -2035.50720389 Ry
     estimated scf accuracy    <       1.12600489 Ry

     total magnetization       =    -0.00 Bohr mag/cell
     absolute magnetization    =     1.58 Bohr mag/cell
[tb_dev] Currently allocated     2.97E+01 Mbytes, locked:    0 /  17
[tb_pin] Currently allocated     0.00E+00 Mbytes, locked:    0 /   0

     iteration # 22     ecut=    60.00 Ry     beta= 0.40
     Davidson diagonalization with overlap

---- Real-time Memory Report at c_bands before calling an iterative solver
          5505 MiB given to the printing process from OS
           480 MiB allocation reported by mallinfo(arena+hblkhd)
         54552 MiB available memory on the node where the printing process lives
     GPU memory used/free/total (MiB): 5174 / 11106 / 16280
------------------
     ethr =  1.90E-04,  avg # of iterations =  3.3

     negative rho (up, down):  1.022E+00 1.239E+00

     total cpu time spent up to now is      603.4 secs

     WARNING: integrated charge=    84.00073282, expected=    84.00000000

     total energy              =   -2035.52633841 Ry
     estimated scf accuracy    <       1.37536478 Ry

     total magnetization       =    -0.00 Bohr mag/cell
     absolute magnetization    =     2.60 Bohr mag/cell
[tb_dev] Currently allocated     2.97E+01 Mbytes, locked:    0 /  17
[tb_pin] Currently allocated     0.00E+00 Mbytes, locked:    0 /   0

     iteration # 23     ecut=    60.00 Ry     beta= 0.40
     Davidson diagonalization with overlap

---- Real-time Memory Report at c_bands before calling an iterative solver
          5514 MiB given to the printing process from OS
           488 MiB allocation reported by mallinfo(arena+hblkhd)
         54543 MiB available memory on the node where the printing process lives
     GPU memory used/free/total (MiB): 5174 / 11106 / 16280
------------------
     ethr =  1.90E-04,  avg # of iterations =  3.0

     negative rho (up, down):  1.022E+00 1.389E+00

     total cpu time spent up to now is      629.0 secs

     WARNING: integrated charge=    84.00078242, expected=    84.00000000

     total energy              =   -2035.50733791 Ry
     estimated scf accuracy    <       2.66353642 Ry

     total magnetization       =    -0.00 Bohr mag/cell
     absolute magnetization    =     0.79 Bohr mag/cell
[tb_dev] Currently allocated     2.97E+01 Mbytes, locked:    0 /  17
[tb_pin] Currently allocated     0.00E+00 Mbytes, locked:    0 /   0

     iteration # 24     ecut=    60.00 Ry     beta= 0.40
     Davidson diagonalization with overlap

---- Real-time Memory Report at c_bands before calling an iterative solver
          5522 MiB given to the printing process from OS
           497 MiB allocation reported by mallinfo(arena+hblkhd)
         54530 MiB available memory on the node where the printing process lives
     GPU memory used/free/total (MiB): 5174 / 11106 / 16280
------------------
     ethr =  1.90E-04,  avg # of iterations =  4.2

     negative rho (up, down):  9.444E-01 1.442E+00

     total cpu time spent up to now is      656.8 secs

     WARNING: integrated charge=    84.00079431, expected=    84.00000000

     total energy              =   -2035.49190982 Ry
     estimated scf accuracy    <       1.60072904 Ry

     total magnetization       =    -0.00 Bohr mag/cell
     absolute magnetization    =     0.76 Bohr mag/cell
[tb_dev] Currently allocated     2.97E+01 Mbytes, locked:    0 /  17
[tb_pin] Currently allocated     0.00E+00 Mbytes, locked:    0 /   0

     iteration # 25     ecut=    60.00 Ry     beta= 0.40
     Davidson diagonalization with overlap

---- Real-time Memory Report at c_bands before calling an iterative solver
          5531 MiB given to the printing process from OS
           505 MiB allocation reported by mallinfo(arena+hblkhd)
         54524 MiB available memory on the node where the printing process lives
     GPU memory used/free/total (MiB): 5174 / 11106 / 16280
------------------
     ethr =  1.90E-04,  avg # of iterations =  2.6

     negative rho (up, down):  8.773E-01 1.493E+00

     total cpu time spent up to now is      681.7 secs

     WARNING: integrated charge=    84.00075780, expected=    84.00000000

     total energy              =   -2035.49934381 Ry
     estimated scf accuracy    <       0.30833568 Ry

     total magnetization       =    -0.00 Bohr mag/cell
     absolute magnetization    =     1.45 Bohr mag/cell
[tb_dev] Currently allocated     2.97E+01 Mbytes, locked:    0 /  17
[tb_pin] Currently allocated     0.00E+00 Mbytes, locked:    0 /   0

     iteration # 26     ecut=    60.00 Ry     beta= 0.40
     Davidson diagonalization with overlap

---- Real-time Memory Report at c_bands before calling an iterative solver
          5539 MiB given to the printing process from OS
           513 MiB allocation reported by mallinfo(arena+hblkhd)
         54515 MiB available memory on the node where the printing process lives
     GPU memory used/free/total (MiB): 5174 / 11106 / 16280
------------------
     ethr =  1.90E-04,  avg # of iterations =  1.5

     negative rho (up, down):  8.694E-01 1.502E+00

     total cpu time spent up to now is      704.6 secs

     WARNING: integrated charge=    84.00074572, expected=    84.00000000

     total energy              =   -2035.50248786 Ry
     estimated scf accuracy    <       0.42495090 Ry

     total magnetization       =    -0.00 Bohr mag/cell
     absolute magnetization    =     1.46 Bohr mag/cell
[tb_dev] Currently allocated     2.97E+01 Mbytes, locked:    0 /  17
[tb_pin] Currently allocated     0.00E+00 Mbytes, locked:    0 /   0

     iteration # 27     ecut=    60.00 Ry     beta= 0.40
     Davidson diagonalization with overlap

---- Real-time Memory Report at c_bands before calling an iterative solver
          5548 MiB given to the printing process from OS
           522 MiB allocation reported by mallinfo(arena+hblkhd)
         54507 MiB available memory on the node where the printing process lives
     GPU memory used/free/total (MiB): 5174 / 11106 / 16280
------------------
     ethr =  1.90E-04,  avg # of iterations =  1.0

     negative rho (up, down):  7.928E-01 1.633E+00

     total cpu time spent up to now is      726.6 secs

     WARNING: integrated charge=    84.00078606, expected=    84.00000000

     total energy              =   -2035.49858874 Ry
     estimated scf accuracy    <       0.49664951 Ry

     total magnetization       =    -0.00 Bohr mag/cell
     absolute magnetization    =     1.42 Bohr mag/cell
[tb_dev] Currently allocated     2.97E+01 Mbytes, locked:    0 /  17
[tb_pin] Currently allocated     0.00E+00 Mbytes, locked:    0 /   0

     iteration # 28     ecut=    60.00 Ry     beta= 0.40
     Davidson diagonalization with overlap

---- Real-time Memory Report at c_bands before calling an iterative solver
          5560 MiB given to the printing process from OS
           530 MiB allocation reported by mallinfo(arena+hblkhd)
         54499 MiB available memory on the node where the printing process lives
     GPU memory used/free/total (MiB): 5174 / 11106 / 16280
------------------
     ethr =  1.90E-04,  avg # of iterations =  3.2

     negative rho (up, down):  8.520E-01 1.510E+00

     total cpu time spent up to now is      752.2 secs

     WARNING: integrated charge=    84.00073768, expected=    84.00000000

     total energy              =   -2035.50232173 Ry
     estimated scf accuracy    <       1.07713130 Ry

     total magnetization       =    -0.00 Bohr mag/cell
     absolute magnetization    =     1.76 Bohr mag/cell
[tb_dev] Currently allocated     2.97E+01 Mbytes, locked:    0 /  17
[tb_pin] Currently allocated     0.00E+00 Mbytes, locked:    0 /   0

     iteration # 29     ecut=    60.00 Ry     beta= 0.40
     Davidson diagonalization with overlap

---- Real-time Memory Report at c_bands before calling an iterative solver
          5569 MiB given to the printing process from OS
           539 MiB allocation reported by mallinfo(arena+hblkhd)
         54490 MiB available memory on the node where the printing process lives
     GPU memory used/free/total (MiB): 5174 / 11106 / 16280
------------------
     ethr =  1.90E-04,  avg # of iterations =  1.5

     negative rho (up, down):  8.683E-01 1.470E+00

     total cpu time spent up to now is      775.3 secs

     WARNING: integrated charge=    84.00075458, expected=    84.00000000

     total energy              =   -2035.50917679 Ry
     estimated scf accuracy    <       0.84627369 Ry

     total magnetization       =    -0.00 Bohr mag/cell
     absolute magnetization    =     1.45 Bohr mag/cell
[tb_dev] Currently allocated     2.97E+01 Mbytes, locked:    0 /  17
[tb_pin] Currently allocated     0.00E+00 Mbytes, locked:    0 /   0

     iteration # 30     ecut=    60.00 Ry     beta= 0.40
     Davidson diagonalization with overlap

---- Real-time Memory Report at c_bands before calling an iterative solver
          5577 MiB given to the printing process from OS
           547 MiB allocation reported by mallinfo(arena+hblkhd)
         54484 MiB available memory on the node where the printing process lives
     GPU memory used/free/total (MiB): 5174 / 11106 / 16280
------------------
     ethr =  1.90E-04,  avg # of iterations =  1.0

     negative rho (up, down):  8.655E-01 1.443E+00

     total cpu time spent up to now is      797.4 secs

     WARNING: integrated charge=    84.00074471, expected=    84.00000000

     total energy              =   -2035.52003504 Ry
     estimated scf accuracy    <       0.87070605 Ry

     total magnetization       =    -0.00 Bohr mag/cell
     absolute magnetization    =     1.36 Bohr mag/cell
[tb_dev] Currently allocated     2.97E+01 Mbytes, locked:    0 /  17
[tb_pin] Currently allocated     0.00E+00 Mbytes, locked:    0 /   0

     iteration # 31     ecut=    60.00 Ry     beta= 0.40
     Davidson diagonalization with overlap

---- Real-time Memory Report at c_bands before calling an iterative solver
          5585 MiB given to the printing process from OS
           555 MiB allocation reported by mallinfo(arena+hblkhd)
         54473 MiB available memory on the node where the printing process lives
     GPU memory used/free/total (MiB): 5174 / 11106 / 16280
------------------
     ethr =  1.90E-04,  avg # of iterations =  1.5

     negative rho (up, down):  8.585E-01 1.472E+00

     total cpu time spent up to now is      820.5 secs

     WARNING: integrated charge=    84.00075561, expected=    84.00000000

     total energy              =   -2035.51496128 Ry
     estimated scf accuracy    <       1.43851709 Ry

     total magnetization       =    -0.00 Bohr mag/cell
     absolute magnetization    =     1.52 Bohr mag/cell
[tb_dev] Currently allocated     2.97E+01 Mbytes, locked:    0 /  17
[tb_pin] Currently allocated     0.00E+00 Mbytes, locked:    0 /   0

     iteration # 32     ecut=    60.00 Ry     beta= 0.40
     Davidson diagonalization with overlap

---- Real-time Memory Report at c_bands before calling an iterative solver
          5598 MiB given to the printing process from OS
           564 MiB allocation reported by mallinfo(arena+hblkhd)
         54467 MiB available memory on the node where the printing process lives
     GPU memory used/free/total (MiB): 5174 / 11106 / 16280
------------------
     ethr =  1.90E-04,  avg # of iterations =  1.0

     negative rho (up, down):  8.674E-01 1.463E+00

     total cpu time spent up to now is      843.0 secs

     WARNING: integrated charge=    84.00074531, expected=    84.00000000

     total energy              =   -2035.51205803 Ry
     estimated scf accuracy    <       1.32137205 Ry

     total magnetization       =    -0.00 Bohr mag/cell
     absolute magnetization    =     1.40 Bohr mag/cell
[tb_dev] Currently allocated     2.97E+01 Mbytes, locked:    0 /  17
[tb_pin] Currently allocated     0.00E+00 Mbytes, locked:    0 /   0

     iteration # 33     ecut=    60.00 Ry     beta= 0.40
     Davidson diagonalization with overlap

---- Real-time Memory Report at c_bands before calling an iterative solver
          5606 MiB given to the printing process from OS
           572 MiB allocation reported by mallinfo(arena+hblkhd)
         54456 MiB available memory on the node where the printing process lives
     GPU memory used/free/total (MiB): 5174 / 11106 / 16280
------------------
     ethr =  1.90E-04,  avg # of iterations =  1.0

     negative rho (up, down):  9.572E-01 1.426E+00

     total cpu time spent up to now is      865.2 secs

     WARNING: integrated charge=    84.00076947, expected=    84.00000000

     total energy              =   -2035.49860471 Ry
     estimated scf accuracy    <       1.13293398 Ry

     total magnetization       =    -0.00 Bohr mag/cell
     absolute magnetization    =     1.29 Bohr mag/cell
[tb_dev] Currently allocated     2.97E+01 Mbytes, locked:    0 /  17
[tb_pin] Currently allocated     0.00E+00 Mbytes, locked:    0 /   0

     iteration # 34     ecut=    60.00 Ry     beta= 0.40
     Davidson diagonalization with overlap

---- Real-time Memory Report at c_bands before calling an iterative solver
          5614 MiB given to the printing process from OS
           581 MiB allocation reported by mallinfo(arena+hblkhd)
         54448 MiB available memory on the node where the printing process lives
     GPU memory used/free/total (MiB): 5174 / 11106 / 16280
------------------
     ethr =  1.90E-04,  avg # of iterations =  3.2

     negative rho (up, down):  9.506E-01 1.457E+00

     total cpu time spent up to now is      891.2 secs

     WARNING: integrated charge=    84.00077216, expected=    84.00000000

     total energy              =   -2035.51036931 Ry
     estimated scf accuracy    <       0.48875793 Ry

     total magnetization       =    -0.00 Bohr mag/cell
     absolute magnetization    =     1.31 Bohr mag/cell
[tb_dev] Currently allocated     2.97E+01 Mbytes, locked:    0 /  17
[tb_pin] Currently allocated     0.00E+00 Mbytes, locked:    0 /   0

     iteration # 35     ecut=    60.00 Ry     beta= 0.40
     Davidson diagonalization with overlap

---- Real-time Memory Report at c_bands before calling an iterative solver
          5623 MiB given to the printing process from OS
           589 MiB allocation reported by mallinfo(arena+hblkhd)
         54441 MiB available memory on the node where the printing process lives
     GPU memory used/free/total (MiB): 5174 / 11106 / 16280
------------------
     ethr =  1.90E-04,  avg # of iterations =  1.2

     negative rho (up, down):  1.001E+00 1.357E+00

     total cpu time spent up to now is      913.6 secs

     WARNING: integrated charge=    84.00076660, expected=    84.00000000

     total energy              =   -2035.52907600 Ry
     estimated scf accuracy    <       0.57857612 Ry

     total magnetization       =    -0.00 Bohr mag/cell
     absolute magnetization    =     1.44 Bohr mag/cell
[tb_dev] Currently allocated     2.97E+01 Mbytes, locked:    0 /  17
[tb_pin] Currently allocated     0.00E+00 Mbytes, locked:    0 /   0

     iteration # 36     ecut=    60.00 Ry     beta= 0.40
     Davidson diagonalization with overlap

---- Real-time Memory Report at c_bands before calling an iterative solver
          5635 MiB given to the printing process from OS
           598 MiB allocation reported by mallinfo(arena+hblkhd)
         54432 MiB available memory on the node where the printing process lives
     GPU memory used/free/total (MiB): 5174 / 11106 / 16280
------------------
     ethr =  1.90E-04,  avg # of iterations =  2.7

     negative rho (up, down):  9.123E-01 1.478E+00

     total cpu time spent up to now is      938.7 secs

     WARNING: integrated charge=    84.00074952, expected=    84.00000000

     total energy              =   -2035.49649010 Ry
     estimated scf accuracy    <       2.22939324 Ry

     total magnetization       =    -0.00 Bohr mag/cell
     absolute magnetization    =     1.46 Bohr mag/cell
[tb_dev] Currently allocated     2.97E+01 Mbytes, locked:    0 /  17
[tb_pin] Currently allocated     0.00E+00 Mbytes, locked:    0 /   0

     iteration # 37     ecut=    60.00 Ry     beta= 0.40
     Davidson diagonalization with overlap

---- Real-time Memory Report at c_bands before calling an iterative solver
          5643 MiB given to the printing process from OS
           606 MiB allocation reported by mallinfo(arena+hblkhd)
         54421 MiB available memory on the node where the printing process lives
     GPU memory used/free/total (MiB): 5174 / 11106 / 16280
------------------
     ethr =  1.90E-04,  avg # of iterations =  2.6

     negative rho (up, down):  8.284E-01 1.641E+00

     total cpu time spent up to now is      963.4 secs

     WARNING: integrated charge=    84.00073359, expected=    84.00000000

     total energy              =   -2035.48259040 Ry
     estimated scf accuracy    <       0.74390725 Ry

     total magnetization       =    -0.00 Bohr mag/cell
     absolute magnetization    =     1.04 Bohr mag/cell
[tb_dev] Currently allocated     2.97E+01 Mbytes, locked:    0 /  17
[tb_pin] Currently allocated     0.00E+00 Mbytes, locked:    0 /   0

     iteration # 38     ecut=    60.00 Ry     beta= 0.40
     Davidson diagonalization with overlap

---- Real-time Memory Report at c_bands before calling an iterative solver
          5652 MiB given to the printing process from OS
           614 MiB allocation reported by mallinfo(arena+hblkhd)
         54417 MiB available memory on the node where the printing process lives
     GPU memory used/free/total (MiB): 5174 / 11106 / 16280
------------------
     ethr =  1.90E-04,  avg # of iterations =  3.8

     negative rho (up, down):  8.678E-01 1.538E+00

     total cpu time spent up to now is      990.4 secs

     WARNING: integrated charge=    84.00071712, expected=    84.00000000

     total energy              =   -2035.49537067 Ry
     estimated scf accuracy    <       0.48731181 Ry

     total magnetization       =    -0.00 Bohr mag/cell
     absolute magnetization    =     2.29 Bohr mag/cell
[tb_dev] Currently allocated     2.97E+01 Mbytes, locked:    0 /  17
[tb_pin] Currently allocated     0.00E+00 Mbytes, locked:    0 /   0

     iteration # 39     ecut=    60.00 Ry     beta= 0.40
     Davidson diagonalization with overlap

---- Real-time Memory Report at c_bands before calling an iterative solver
          5660 MiB given to the printing process from OS
           623 MiB allocation reported by mallinfo(arena+hblkhd)
         54406 MiB available memory on the node where the printing process lives
     GPU memory used/free/total (MiB): 5174 / 11106 / 16280
------------------
     ethr =  1.90E-04,  avg # of iterations =  1.8

     negative rho (up, down):  8.731E-01 1.528E+00

     total cpu time spent up to now is     1013.9 secs

     WARNING: integrated charge=    84.00071943, expected=    84.00000000

     total energy              =   -2035.49967801 Ry
     estimated scf accuracy    <       0.35726077 Ry

     total magnetization       =    -0.00 Bohr mag/cell
     absolute magnetization    =     1.92 Bohr mag/cell
[tb_dev] Currently allocated     2.97E+01 Mbytes, locked:    0 /  17
[tb_pin] Currently allocated     0.00E+00 Mbytes, locked:    0 /   0

     iteration # 40     ecut=    60.00 Ry     beta= 0.40
     Davidson diagonalization with overlap

---- Real-time Memory Report at c_bands before calling an iterative solver
          5669 MiB given to the printing process from OS
           631 MiB allocation reported by mallinfo(arena+hblkhd)
         54398 MiB available memory on the node where the printing process lives
     GPU memory used/free/total (MiB): 5174 / 11106 / 16280
------------------
     ethr =  1.90E-04,  avg # of iterations =  1.1

     negative rho (up, down):  8.745E-01 1.534E+00

     total cpu time spent up to now is     1036.4 secs

     WARNING: integrated charge=    84.00072162, expected=    84.00000000

     total energy              =   -2035.50018647 Ry
     estimated scf accuracy    <       0.36358383 Ry

     total magnetization       =    -0.00 Bohr mag/cell
     absolute magnetization    =     1.69 Bohr mag/cell
[tb_dev] Currently allocated     2.97E+01 Mbytes, locked:    0 /  17
[tb_pin] Currently allocated     0.00E+00 Mbytes, locked:    0 /   0

     iteration # 41     ecut=    60.00 Ry     beta= 0.40
     Davidson diagonalization with overlap

---- Real-time Memory Report at c_bands before calling an iterative solver
          5677 MiB given to the printing process from OS
           640 MiB allocation reported by mallinfo(arena+hblkhd)
         54392 MiB available memory on the node where the printing process lives
     GPU memory used/free/total (MiB): 5174 / 11106 / 16280
------------------
     ethr =  1.90E-04,  avg # of iterations =  1.0

     negative rho (up, down):  8.537E-01 1.575E+00

     total cpu time spent up to now is     1058.5 secs

     WARNING: integrated charge=    84.00071515, expected=    84.00000000

     total energy              =   -2035.49544605 Ry
     estimated scf accuracy    <       0.34993213 Ry

     total magnetization       =    -0.00 Bohr mag/cell
     absolute magnetization    =     1.69 Bohr mag/cell
[tb_dev] Currently allocated     2.97E+01 Mbytes, locked:    0 /  17
[tb_pin] Currently allocated     0.00E+00 Mbytes, locked:    0 /   0

     iteration # 42     ecut=    60.00 Ry     beta= 0.40
     Davidson diagonalization with overlap

---- Real-time Memory Report at c_bands before calling an iterative solver
          5686 MiB given to the printing process from OS
           648 MiB allocation reported by mallinfo(arena+hblkhd)
         54382 MiB available memory on the node where the printing process lives
     GPU memory used/free/total (MiB): 5174 / 11106 / 16280
------------------
     ethr =  1.90E-04,  avg # of iterations =  1.4

     negative rho (up, down):  8.454E-01 1.590E+00

     total cpu time spent up to now is     1081.4 secs

     WARNING: integrated charge=    84.00071894, expected=    84.00000000

     total energy              =   -2035.49763553 Ry
     estimated scf accuracy    <       0.23987163 Ry

     total magnetization       =    -0.00 Bohr mag/cell
     absolute magnetization    =     2.00 Bohr mag/cell
[tb_dev] Currently allocated     2.97E+01 Mbytes, locked:    0 /  17
[tb_pin] Currently allocated     0.00E+00 Mbytes, locked:    0 /   0

     iteration # 43     ecut=    60.00 Ry     beta= 0.40
     Davidson diagonalization with overlap

---- Real-time Memory Report at c_bands before calling an iterative solver
          5698 MiB given to the printing process from OS
           657 MiB allocation reported by mallinfo(arena+hblkhd)
         54375 MiB available memory on the node where the printing process lives
     GPU memory used/free/total (MiB): 5174 / 11106 / 16280
------------------
     ethr =  1.90E-04,  avg # of iterations =  1.0

     negative rho (up, down):  8.360E-01 1.606E+00

     total cpu time spent up to now is     1103.5 secs

     WARNING: integrated charge=    84.00071215, expected=    84.00000000

     total energy              =   -2035.49777503 Ry
     estimated scf accuracy    <       0.28205839 Ry

     total magnetization       =    -0.00 Bohr mag/cell
     absolute magnetization    =     2.02 Bohr mag/cell
[tb_dev] Currently allocated     2.97E+01 Mbytes, locked:    0 /  17
[tb_pin] Currently allocated     0.00E+00 Mbytes, locked:    0 /   0

     iteration # 44     ecut=    60.00 Ry     beta= 0.40
     Davidson diagonalization with overlap

---- Real-time Memory Report at c_bands before calling an iterative solver
          5707 MiB given to the printing process from OS
           665 MiB allocation reported by mallinfo(arena+hblkhd)
         54364 MiB available memory on the node where the printing process lives
     GPU memory used/free/total (MiB): 5174 / 11106 / 16280
------------------
     ethr =  1.90E-04,  avg # of iterations =  1.0

     negative rho (up, down):  8.190E-01 1.635E+00

     total cpu time spent up to now is     1125.7 secs

     WARNING: integrated charge=    84.00073554, expected=    84.00000000

     total energy              =   -2035.49974374 Ry
     estimated scf accuracy    <       0.33416097 Ry

     total magnetization       =    -0.00 Bohr mag/cell
     absolute magnetization    =     2.16 Bohr mag/cell
[tb_dev] Currently allocated     2.97E+01 Mbytes, locked:    0 /  17
[tb_pin] Currently allocated     0.00E+00 Mbytes, locked:    0 /   0

     iteration # 45     ecut=    60.00 Ry     beta= 0.40
     Davidson diagonalization with overlap

---- Real-time Memory Report at c_bands before calling an iterative solver
          5715 MiB given to the printing process from OS
           673 MiB allocation reported by mallinfo(arena+hblkhd)
         54356 MiB available memory on the node where the printing process lives
     GPU memory used/free/total (MiB): 5174 / 11106 / 16280
------------------
     ethr =  1.90E-04,  avg # of iterations =  1.0

     negative rho (up, down):  8.323E-01 1.654E+00

     total cpu time spent up to now is     1148.0 secs

     WARNING: integrated charge=    84.00074982, expected=    84.00000000

     total energy              =   -2035.50114420 Ry
     estimated scf accuracy    <       0.56606868 Ry

     total magnetization       =    -0.00 Bohr mag/cell
     absolute magnetization    =     1.96 Bohr mag/cell
[tb_dev] Currently allocated     2.97E+01 Mbytes, locked:    0 /  17
[tb_pin] Currently allocated     0.00E+00 Mbytes, locked:    0 /   0

     iteration # 46     ecut=    60.00 Ry     beta= 0.40
     Davidson diagonalization with overlap

---- Real-time Memory Report at c_bands before calling an iterative solver
          5724 MiB given to the printing process from OS
           682 MiB allocation reported by mallinfo(arena+hblkhd)
         54346 MiB available memory on the node where the printing process lives
     GPU memory used/free/total (MiB): 5174 / 11106 / 16280
------------------
     ethr =  1.90E-04,  avg # of iterations =  1.4

     negative rho (up, down):  8.360E-01 1.661E+00

     total cpu time spent up to now is     1170.7 secs

     WARNING: integrated charge=    84.00073621, expected=    84.00000000

     total energy              =   -2035.50248167 Ry
     estimated scf accuracy    <       0.75378517 Ry

     total magnetization       =    -0.00 Bohr mag/cell
     absolute magnetization    =     2.31 Bohr mag/cell
[tb_dev] Currently allocated     2.97E+01 Mbytes, locked:    0 /  17
[tb_pin] Currently allocated     0.00E+00 Mbytes, locked:    0 /   0

     iteration # 47     ecut=    60.00 Ry     beta= 0.40
     Davidson diagonalization with overlap

---- Real-time Memory Report at c_bands before calling an iterative solver
          5732 MiB given to the printing process from OS
           690 MiB allocation reported by mallinfo(arena+hblkhd)
         54338 MiB available memory on the node where the printing process lives
     GPU memory used/free/total (MiB): 5174 / 11106 / 16280
------------------
     ethr =  1.90E-04,  avg # of iterations =  1.0

     negative rho (up, down):  8.144E-01 1.765E+00

     total cpu time spent up to now is     1192.8 secs

     WARNING: integrated charge=    84.00077657, expected=    84.00000000

     total energy              =   -2035.51060527 Ry
     estimated scf accuracy    <       0.81684855 Ry

     total magnetization       =    -0.00 Bohr mag/cell
     absolute magnetization    =     2.31 Bohr mag/cell
[tb_dev] Currently allocated     2.97E+01 Mbytes, locked:    0 /  17
[tb_pin] Currently allocated     0.00E+00 Mbytes, locked:    0 /   0

     iteration # 48     ecut=    60.00 Ry     beta= 0.40
     Davidson diagonalization with overlap

---- Real-time Memory Report at c_bands before calling an iterative solver
          5740 MiB given to the printing process from OS
           699 MiB allocation reported by mallinfo(arena+hblkhd)
         54331 MiB available memory on the node where the printing process lives
[...]

     total magnetization       =    -0.00 Bohr mag/cell
     absolute magnetization    =     3.66 Bohr mag/cell
[tb_dev] Currently allocated     2.97E+01 Mbytes, locked:    0 /  17
[tb_pin] Currently allocated     0.00E+00 Mbytes, locked:    0 /   0

     iteration # 67     ecut=    60.00 Ry     beta= 0.40
     Davidson diagonalization with overlap

---- Real-time Memory Report at c_bands before calling an iterative solver
          5880 MiB given to the printing process from OS
           871 MiB allocation reported by mallinfo(arena+hblkhd)
         54155 MiB available memory on the node where the printing process lives
     GPU memory used/free/total (MiB): 5174 / 11106 / 16280
------------------
     ethr =  1.90E-04,  avg # of iterations =  3.7

     negative rho (up, down):  8.490E-01 1.607E+00

     total cpu time spent up to now is     1683.4 secs

     WARNING: integrated charge=    84.00066988, expected=    84.00000000

     total energy              =   -2035.48269702 Ry
     estimated scf accuracy    <       1.06985411 Ry

     total magnetization       =    -0.00 Bohr mag/cell
     absolute magnetization    =     1.01 Bohr mag/cell
[tb_dev] Currently allocated     2.97E+01 Mbytes, locked:    0 /  17
[tb_pin] Currently allocated     0.00E+00 Mbytes, locked:    0 /   0

     iteration # 68     ecut=    60.00 Ry     beta= 0.40
     Davidson diagonalization with overlap

---- Real-time Memory Report at c_bands before calling an iterative solver
          5888 MiB given to the printing process from OS
           879 MiB allocation reported by mallinfo(arena+hblkhd)
         54145 MiB available memory on the node where the printing process lives
     GPU memory used/free/total (MiB): 5174 / 11106 / 16280
------------------
     ethr =  1.90E-04,  avg # of iterations =  4.0

     negative rho (up, down):  8.271E-01 1.770E+00

     total cpu time spent up to now is     1711.0 secs

     WARNING: integrated charge=    84.00075296, expected=    84.00000000

     total energy              =   -2035.49302425 Ry
     estimated scf accuracy    <       0.77580463 Ry

     total magnetization       =    -0.00 Bohr mag/cell
     absolute magnetization    =     2.00 Bohr mag/cell
[tb_dev] Currently allocated     2.97E+01 Mbytes, locked:    0 /  17
[tb_pin] Currently allocated     0.00E+00 Mbytes, locked:    0 /   0

     iteration # 69     ecut=    60.00 Ry     beta= 0.40
     Davidson diagonalization with overlap

---- Real-time Memory Report at c_bands before calling an iterative solver
          5896 MiB given to the printing process from OS
           887 MiB allocation reported by mallinfo(arena+hblkhd)
         54136 MiB available memory on the node where the printing process lives
     GPU memory used/free/total (MiB): 5174 / 11106 / 16280
------------------
     ethr =  1.90E-04,  avg # of iterations =  1.4

     negative rho (up, down):  8.194E-01 1.921E+00

     total cpu time spent up to now is     1733.7 secs

     WARNING: integrated charge=    84.00073476, expected=    84.00000000

     total energy              =   -2035.47191190 Ry
     estimated scf accuracy    <       0.70450384 Ry

     total magnetization       =    -0.00 Bohr mag/cell
     absolute magnetization    =     2.19 Bohr mag/cell
[tb_dev] Currently allocated     2.97E+01 Mbytes, locked:    0 /  17
[tb_pin] Currently allocated     0.00E+00 Mbytes, locked:    0 /   0

     iteration # 70     ecut=    60.00 Ry     beta= 0.40
     Davidson diagonalization with overlap

---- Real-time Memory Report at c_bands before calling an iterative solver
          5905 MiB given to the printing process from OS
           896 MiB allocation reported by mallinfo(arena+hblkhd)
         54117 MiB available memory on the node where the printing process lives
     GPU memory used/free/total (MiB): 5174 / 11106 / 16280
------------------
     ethr =  1.90E-04,  avg # of iterations =  3.6

     negative rho (up, down):  8.307E-01 1.797E+00

     total cpu time spent up to now is     1760.6 secs

     WARNING: integrated charge=    84.00073989, expected=    84.00000000

     total energy              =   -2035.48626927 Ry
     estimated scf accuracy    <       0.21348263 Ry

     total magnetization       =    -0.00 Bohr mag/cell
     absolute magnetization    =     3.67 Bohr mag/cell
[tb_dev] Currently allocated     2.97E+01 Mbytes, locked:    0 /  17
[tb_pin] Currently allocated     0.00E+00 Mbytes, locked:    0 /   0

     iteration # 71     ecut=    60.00 Ry     beta= 0.40
     Davidson diagonalization with overlap

---- Real-time Memory Report at c_bands before calling an iterative solver
          5913 MiB given to the printing process from OS
           904 MiB allocation reported by mallinfo(arena+hblkhd)
         54108 MiB available memory on the node where the printing process lives
     GPU memory used/free/total (MiB): 5174 / 11106 / 16280
------------------
     ethr =  1.90E-04,  avg # of iterations =  2.3

     negative rho (up, down):  8.502E-01 1.778E+00

     total cpu time spent up to now is     1784.9 secs

     WARNING: integrated charge=    84.00073320, expected=    84.00000000

     total energy              =   -2035.49086267 Ry
     estimated scf accuracy    <       0.18973639 Ry

     total magnetization       =    -0.00 Bohr mag/cell
     absolute magnetization    =     3.11 Bohr mag/cell
[tb_dev] Currently allocated     2.97E+01 Mbytes, locked:    0 /  17
[tb_pin] Currently allocated     0.00E+00 Mbytes, locked:    0 /   0

     iteration # 72     ecut=    60.00 Ry     beta= 0.40
     Davidson diagonalization with overlap

---- Real-time Memory Report at c_bands before calling an iterative solver
          5922 MiB given to the printing process from OS
           913 MiB allocation reported by mallinfo(arena+hblkhd)
         54104 MiB available memory on the node where the printing process lives
     GPU memory used/free/total (MiB): 5174 / 11106 / 16280
------------------
     ethr =  1.90E-04,  avg # of iterations =  1.0

     negative rho (up, down):  8.737E-01 1.698E+00

     total cpu time spent up to now is     1807.4 secs

     WARNING: integrated charge=    84.00073554, expected=    84.00000000

     total energy              =   -2035.49149443 Ry
     estimated scf accuracy    <       0.18748882 Ry

     total magnetization       =    -0.00 Bohr mag/cell
     absolute magnetization    =     2.97 Bohr mag/cell
[tb_dev] Currently allocated     2.97E+01 Mbytes, locked:    0 /  17
[tb_pin] Currently allocated     0.00E+00 Mbytes, locked:    0 /   0

     iteration # 73     ecut=    60.00 Ry     beta= 0.40
     Davidson diagonalization with overlap

---- Real-time Memory Report at c_bands before calling an iterative solver
          5930 MiB given to the printing process from OS
           921 MiB allocation reported by mallinfo(arena+hblkhd)
         54097 MiB available memory on the node where the printing process lives
     GPU memory used/free/total (MiB): 5174 / 11106 / 16280
------------------
     ethr =  1.90E-04,  avg # of iterations =  1.6

     negative rho (up, down):  8.896E-01 1.803E+00

     total cpu time spent up to now is     1830.6 secs

     WARNING: integrated charge=    84.00073084, expected=    84.00000000

     total energy              =   -2035.48510391 Ry
     estimated scf accuracy    <       0.21346309 Ry

     total magnetization       =    -0.00 Bohr mag/cell
     absolute magnetization    =     2.78 Bohr mag/cell
[tb_dev] Currently allocated     2.97E+01 Mbytes, locked:    0 /  17
[tb_pin] Currently allocated     0.00E+00 Mbytes, locked:    0 /   0

     iteration # 74     ecut=    60.00 Ry     beta= 0.40
     Davidson diagonalization with overlap

---- Real-time Memory Report at c_bands before calling an iterative solver
          5938 MiB given to the printing process from OS
           930 MiB allocation reported by mallinfo(arena+hblkhd)
         54090 MiB available memory on the node where the printing process lives
     GPU memory used/free/total (MiB): 5174 / 11106 / 16280
------------------
     ethr =  1.90E-04,  avg # of iterations =  2.0

     negative rho (up, down):  8.898E-01 1.863E+00

     total cpu time spent up to now is     1854.7 secs

     WARNING: integrated charge=    84.00070976, expected=    84.00000000

     total energy              =   -2035.48251521 Ry
     estimated scf accuracy    <       0.17998981 Ry

     total magnetization       =    -0.00 Bohr mag/cell
     absolute magnetization    =     2.46 Bohr mag/cell
[tb_dev] Currently allocated     2.97E+01 Mbytes, locked:    0 /  17
[tb_pin] Currently allocated     0.00E+00 Mbytes, locked:    0 /   0

     iteration # 75     ecut=    60.00 Ry     beta= 0.40
     Davidson diagonalization with overlap

---- Real-time Memory Report at c_bands before calling an iterative solver
          5947 MiB given to the printing process from OS
           938 MiB allocation reported by mallinfo(arena+hblkhd)
         54083 MiB available memory on the node where the printing process lives
     GPU memory used/free/total (MiB): 5174 / 11106 / 16280
------------------
     ethr =  1.90E-04,  avg # of iterations =  1.5

     negative rho (up, down):  9.108E-01 1.877E+00

     total cpu time spent up to now is     1877.6 secs

     WARNING: integrated charge=    84.00070011, expected=    84.00000000

     total energy              =   -2035.48461841 Ry
     estimated scf accuracy    <       0.09853985 Ry

     total magnetization       =    -0.00 Bohr mag/cell
     absolute magnetization    =     2.60 Bohr mag/cell
[tb_dev] Currently allocated     2.97E+01 Mbytes, locked:    0 /  17
[tb_pin] Currently allocated     0.00E+00 Mbytes, locked:    0 /   0

     iteration # 76     ecut=    60.00 Ry     beta= 0.40
     Davidson diagonalization with overlap

---- Real-time Memory Report at c_bands before calling an iterative solver
          5955 MiB given to the printing process from OS
           946 MiB allocation reported by mallinfo(arena+hblkhd)
         54073 MiB available memory on the node where the printing process lives
     GPU memory used/free/total (MiB): 5174 / 11106 / 16280
------------------
     ethr =  1.17E-04,  avg # of iterations =  3.4

     negative rho (up, down):  8.749E-01 1.778E+00

     total cpu time spent up to now is     1904.2 secs

     WARNING: integrated charge=    84.00071427, expected=    84.00000000

     total energy              =   -2035.46454992 Ry
     estimated scf accuracy    <       0.66870415 Ry

     total magnetization       =    -0.00 Bohr mag/cell
     absolute magnetization    =     3.94 Bohr mag/cell
[tb_dev] Currently allocated     2.97E+01 Mbytes, locked:    0 /  17
[tb_pin] Currently allocated     0.00E+00 Mbytes, locked:    0 /   0

     iteration # 77     ecut=    60.00 Ry     beta= 0.40
     Davidson diagonalization with overlap

---- Real-time Memory Report at c_bands before calling an iterative solver
          5964 MiB given to the printing process from OS
           955 MiB allocation reported by mallinfo(arena+hblkhd)
         54068 MiB available memory on the node where the printing process lives
     GPU memory used/free/total (MiB): 5174 / 11106 / 16280
------------------
     ethr =  1.17E-04,  avg # of iterations =  3.7

     negative rho (up, down):  8.857E-01 1.801E+00

     total cpu time spent up to now is     1932.0 secs

     WARNING: integrated charge=    84.00070918, expected=    84.00000000

     total energy              =   -2035.48538387 Ry
     estimated scf accuracy    <       0.52485368 Ry

     total magnetization       =    -0.00 Bohr mag/cell
     absolute magnetization    =     1.73 Bohr mag/cell
[tb_dev] Currently allocated     2.97E+01 Mbytes, locked:    0 /  17
[tb_pin] Currently allocated     0.00E+00 Mbytes, locked:    0 /   0

     iteration # 78     ecut=    60.00 Ry     beta= 0.40
     Davidson diagonalization with overlap

---- Real-time Memory Report at c_bands before calling an iterative solver
          5972 MiB given to the printing process from OS
           963 MiB allocation reported by mallinfo(arena+hblkhd)
         54057 MiB available memory on the node where the printing process lives
     GPU memory used/free/total (MiB): 5174 / 11106 / 16280
------------------
     ethr =  1.17E-04,  avg # of iterations =  2.2

     negative rho (up, down):  9.170E-01 1.779E+00

     total cpu time spent up to now is     1956.1 secs

     WARNING: integrated charge=    84.00072096, expected=    84.00000000

     total energy              =   -2035.48641922 Ry
     estimated scf accuracy    <       0.22681334 Ry

     total magnetization       =    -0.00 Bohr mag/cell
     absolute magnetization    =     2.18 Bohr mag/cell
[tb_dev] Currently allocated     2.97E+01 Mbytes, locked:    0 /  17
[tb_pin] Currently allocated     0.00E+00 Mbytes, locked:    0 /   0

     iteration # 79     ecut=    60.00 Ry     beta= 0.40
     Davidson diagonalization with overlap

---- Real-time Memory Report at c_bands before calling an iterative solver
          5981 MiB given to the printing process from OS
           972 MiB allocation reported by mallinfo(arena+hblkhd)
         54051 MiB available memory on the node where the printing process lives
     GPU memory used/free/total (MiB): 5174 / 11106 / 16280
------------------
     ethr =  1.17E-04,  avg # of iterations =  2.8

     negative rho (up, down):  8.879E-01 1.818E+00

     total cpu time spent up to now is     1981.2 secs

     WARNING: integrated charge=    84.00071967, expected=    84.00000000

     total energy              =   -2035.48373246 Ry
     estimated scf accuracy    <       0.34533417 Ry

     total magnetization       =    -0.00 Bohr mag/cell
     absolute magnetization    =     2.90 Bohr mag/cell
[tb_dev] Currently allocated     2.97E+01 Mbytes, locked:    0 /  17
[tb_pin] Currently allocated     0.00E+00 Mbytes, locked:    0 /   0

     iteration # 80     ecut=    60.00 Ry     beta= 0.40
     Davidson diagonalization with overlap

---- Real-time Memory Report at c_bands before calling an iterative solver
          5989 MiB given to the printing process from OS
           980 MiB allocation reported by mallinfo(arena+hblkhd)
         54038 MiB available memory on the node where the printing process lives
     GPU memory used/free/total (MiB): 5174 / 11106 / 16280
------------------
     ethr =  1.17E-04,  avg # of iterations =  2.1

     negative rho (up, down):  9.082E-01 1.800E+00

     total cpu time spent up to now is     2005.3 secs

     WARNING: integrated charge=    84.00071477, expected=    84.00000000

     total energy              =   -2035.48996139 Ry
     estimated scf accuracy    <       0.12019833 Ry

     total magnetization       =    -0.00 Bohr mag/cell
     absolute magnetization    =     2.88 Bohr mag/cell

     End of self-consistent calculation

     convergence NOT achieved after  80 iterations: stopping

     Writing config to output data dir ./out/aiida.save/
 
     init_run     :     51.87s CPU     20.45s WALL (       1 calls)
     electrons    :   3362.54s CPU   1982.78s WALL (       1 calls)

     Called by init_run:
     wfcinit      :     12.20s CPU     14.38s WALL (       1 calls)
                                       14.38s GPU  (       1 calls)
     wfcinit:atom :      0.10s CPU      0.28s WALL (     248 calls)
                                        0.28s GPU  (     248 calls)
     wfcinit:wfcr :      7.43s CPU      8.27s WALL (     248 calls)
                                        8.27s GPU  (     248 calls)
     potinit      :     24.08s CPU      2.19s WALL (       1 calls)
     hinit0       :      8.56s CPU      2.61s WALL (       1 calls)

     Called by electrons:
     c_bands      :   1466.10s CPU   1495.07s WALL (      80 calls)
     sum_band     :    329.50s CPU    344.43s WALL (      80 calls)
     v_of_rho     :     94.53s CPU      8.53s WALL (      81 calls)
     v_h          :     14.08s CPU      1.26s WALL (      81 calls)
     v_xc         :     80.44s CPU      7.26s WALL (      81 calls)
     newd         :    107.45s CPU     10.15s WALL (      81 calls)
                                       10.15s GPU  (      81 calls)
     PAW_pot      :   1266.98s CPU    114.60s WALL (      81 calls)
     mix_rho      :     77.34s CPU      8.06s WALL (      80 calls)

     Called by c_bands:
     init_us_2    :     62.05s CPU     77.21s WALL (   39928 calls)
     init_us_2:gp :     61.32s CPU     76.50s WALL (   39928 calls)
     cegterg      :   1245.48s CPU   1266.37s WALL (   19840 calls)

     Called by sum_band:
     sum_band:wei :      1.00s CPU      1.00s WALL (      80 calls)
                                        1.00s GPU  (      80 calls)
     sum_band:loo :    313.25s CPU    327.98s WALL (      80 calls)
                                      327.98s GPU  (      80 calls)
     sum_band:buf :     75.29s CPU     77.29s WALL (   19840 calls)
                                       77.17s GPU  (   19840 calls)
     sum_band:ini :     28.54s CPU     33.27s WALL (   19840 calls)
                                       33.16s GPU  (   19840 calls)
     sum_band:cal :      0.65s CPU      9.11s WALL (   19840 calls)
                                        7.64s GPU  (   19840 calls)
     sum_band:bec :      5.64s CPU      6.05s WALL (   19840 calls)
                                        5.92s GPU  (   19840 calls)
     addusdens    :      9.72s CPU      9.92s WALL (      80 calls)
                                        9.92s GPU  (      80 calls)
     addusd:skk   :      0.05s CPU      0.05s WALL (     240 calls)
                                        0.05s GPU  (     240 calls)

     Called by *egterg:
     cdiaghg      :    213.78s CPU    245.67s WALL (   67834 calls)
                                      245.21s GPU  (   67834 calls)
     cegterg:over :     20.81s CPU     21.67s WALL (   47994 calls)
     cegterg:upda :     23.43s CPU     25.21s WALL (   47994 calls)
     cegterg:last :     15.34s CPU     15.92s WALL (   32522 calls)
     h_psi        :    912.47s CPU    898.50s WALL (   68082 calls)
                                      897.19s GPU  (   68082 calls)
     s_psi        :     10.91s CPU     30.36s WALL (   68082 calls)
                                       27.73s GPU  (   68082 calls)
     g_psi        :      0.35s CPU      2.89s WALL (   47994 calls)
                                        2.58s GPU  (   47994 calls)

     Called by h_psi:
     h_psi:calbec :      2.53s CPU     23.37s WALL (   68082 calls)
                                       22.94s GPU  (   68082 calls)
     vloc_psi     :    846.34s CPU    833.49s WALL (   68082 calls)
                                      833.06s GPU  (   68082 calls)
     add_vuspsi   :     16.91s CPU     34.12s WALL (   68082 calls)
                                       33.69s GPU  (   68082 calls)

     General routines
     calbec       :      2.33s CPU      2.39s WALL (   87922 calls)
     fft          :      4.34s CPU      1.09s WALL (    2023 calls)
                                        0.82s GPU  (    1861 calls)
     ffts         :      0.40s CPU      0.14s WALL (     322 calls)
                                        0.03s GPU  (     160 calls)
     fftw         :      9.43s CPU    738.38s WALL (  456134 calls)
                                      734.25s GPU  (  456134 calls)
     interpolate  :     15.55s CPU      1.37s WALL (     162 calls)
     davcio       :      0.27s CPU      2.06s WALL (     266 calls)
 
     Parallel routines

     PAW routines
     PAW_pot      :   1266.98s CPU    114.60s WALL (      81 calls)
     PAW_symme    :      0.28s CPU      0.04s WALL (     161 calls)
 
     PWSCF        :  56m57.63s CPU  33m28.00s WALL

 
   This run was terminated on:  21:10:12  23Oct2023            

=------------------------------------------------------------------------------=
   JOB DONE.
=------------------------------------------------------------------------------=
