
     Program PWSCF v.7.2 starts on 19Dec2023 at 22:25:45 
        Git branch: develop
        Last git commit: 9055681be6fc8200e6fffe76ed5fda34c2696339
        Last git commit date: Wed Nov 8 16:29:39 2023 +0000
        Last git commit subject: Merge branch 'calbec_fix' into 'develop'

     This program is part of the open-source Quantum ESPRESSO suite
     for quantum simulation of materials; please cite
         "P. Giannozzi et al., J. Phys.:Condens. Matter 21 395502 (2009);
         "P. Giannozzi et al., J. Phys.:Condens. Matter 29 465901 (2017);
         "P. Giannozzi et al., J. Chem. Phys. 152 154105 (2020);
          URL http://www.quantum-espresso.org", 
     in publications or presentations arising from this work. More details at
     http://www.quantum-espresso.org/quote

     Parallel version (MPI), running on    56 processors

     MPI processes distributed on     1 nodes
     490900 MiB available memory on the printing compute node when the environment starts

     Reading input from aiida.in

     Current dimensions of program PWSCF are:
     Max number of different atomic species (ntypx) = 10
     Max number of k-points (npk) =  40000
     Max angular momentum in pseudopotentials (lmaxx) =  4
     file O.pbesol-n-kjpaw_psl.0.1.UPF: wavefunction(s)  2P renormalized
     Message from routine setup:
     using ibrav=0 with symmetry is DISCOURAGED, use correct ibrav instead

     K-points division:     npool     =       7
     R & G space division:  proc/nbgrp/npool/nimage =       8
     Subspace diagonalization in iterative solution of the eigenvalue problem:
     a serial algorithm will be used


     Parallelization info
     --------------------
     sticks:   dense  smooth     PW     G-vecs:    dense   smooth      PW
     Min         769     256     72                39815     7664    1169
     Max         770     257     73                39818     7669    1173
     Sum        6157    2053    583               318539    61335    9377

     Using Slab Decomposition



     bravais-lattice index     =            0
     lattice parameter (alat)  =      10.6974  a.u.
     unit-cell volume          =     865.6020 (a.u.)^3
     number of atoms/cell      =           10
     number of atomic types    =            4
     number of electrons       =        85.00
     number of Kohn-Sham states=           52
     kinetic-energy cutoff     =      65.0000  Ry
     charge density cutoff     =     780.0000  Ry
     scf convergence threshold =      2.0E-09
     mixing beta               =       0.4000
     number of iterations used =            8  plain     mixing
     Exchange-correlation= SLA  PW   PSX  PSC
                           (   1   4  10   8   0   0   0)

     celldm(1)=  10.697388  celldm(2)=   0.000000  celldm(3)=   0.000000
     celldm(4)=   0.000000  celldm(5)=   0.000000  celldm(6)=   0.000000

     crystal axes: (cart. coord. in units of alat)
               a(1) = (   0.000000   0.707107   0.707107 )  
               a(2) = (   0.707107   0.000000   0.707107 )  
               a(3) = (   0.707107   0.707107   0.000000 )  

     reciprocal axes: (cart. coord. in units 2 pi/alat)
               b(1) = ( -0.707107  0.707107  0.707107 )  
               b(2) = (  0.707107 -0.707107  0.707107 )  
               b(3) = (  0.707107  0.707107 -0.707107 )  


     PseudoPot. # 1 for Mn read from file:
     ./pseudo/mn_pbesol_v1.5.uspp.F.UPF
     MD5 check sum: 0716d5f563e6e95a34f9080f4c78c109
     Pseudo is Ultrasoft + core correction, Zval = 15.0
     Generated by new atomic code, or converted to UPF format
     Using radial grid of  859 points,  6 beta functions with: 
                l(1) =   0
                l(2) =   0
                l(3) =   1
                l(4) =   1
                l(5) =   2
                l(6) =   2
     Q(r) pseudized with  8 coefficients,  rinner =    0.950   0.950   0.950
                                                       0.950   0.950

     PseudoPot. # 2 for Mo read from file:
     ./pseudo/Mo_ONCV_PBEsol-1.0.upf
     MD5 check sum: 5193ba6a20874d27c2ef80314d1b3445
     Pseudo is Norm-conserving, Zval = 14.0
     Generated using ONCVPSP code by D. R. Hamann
     Using radial grid of 1508 points,  6 beta functions with: 
                l(1) =   0
                l(2) =   0
                l(3) =   1
                l(4) =   1
                l(5) =   2
                l(6) =   2

     PseudoPot. # 3 for O  read from file:
     ./pseudo/O.pbesol-n-kjpaw_psl.0.1.UPF
     MD5 check sum: 81d73d1479e654e5638b0319f0d6c2c7
     Pseudo is Projector augmented-wave + core cor, Zval =  6.0
     Generated using "atomic" code by A. Dal Corso  v.6.0 svn rev. 13079
     Shape of augmentation charge: BESSEL
     Using radial grid of 1095 points,  4 beta functions with: 
                l(1) =   0
                l(2) =   0
                l(3) =   1
                l(4) =   1
     Q(r) pseudized with 0 coefficients 


     PseudoPot. # 4 for Sr read from file:
     ./pseudo/sr_pbesol_v1.uspp.F.UPF
     MD5 check sum: 635bff1625df5273dba4129a01ed8c82
     Pseudo is Ultrasoft + core correction, Zval = 10.0
     Generated by new atomic code, or converted to UPF format
     Using radial grid of  883 points,  6 beta functions with: 
                l(1) =   0
                l(2) =   0
                l(3) =   1
                l(4) =   1
                l(5) =   2
                l(6) =   2
     Q(r) pseudized with  6 coefficients,  rinner =    1.400   1.400   1.400
                                                       1.400   1.400

     atomic species   valence    mass     pseudopotential
     Mn               15.00    54.93805     Mn( 1.00)
     Mo               14.00    95.96000     Mo( 1.00)
     O                 6.00    15.99940     O ( 1.00)
     Sr               10.00    87.62000     Sr( 1.00)

     Starting magnetic structure 
     atomic species   magnetization
     Mn              0.333
     Mo              0.357
     O               0.100
     Sr              0.100

     48 Sym. Ops., with inversion, found


                                    s                        frac. trans.

      isym =  1     identity                                     

 cryst.   s( 1) = (     1          0          0      )
                  (     0          1          0      )
                  (     0          0          1      )

 cart.    s( 1) = (  1.0000000 -0.0000000  0.0000000 )
                  ( -0.0000000  1.0000000  0.0000000 )
                  ( -0.0000000  0.0000000  1.0000000 )


      isym =  2     180 deg rotation - cart. axis [0,0,1]        

 cryst.   s( 2) = (     0          1         -1      )
                  (     1          0         -1      )
                  (     0          0         -1      )

 cart.    s( 2) = ( -1.0000000  0.0000000  0.0000000 )
                  (  0.0000000 -1.0000000  0.0000000 )
                  (  0.0000000 -0.0000000  1.0000000 )


      isym =  3     180 deg rotation - cart. axis [0,1,0]        

 cryst.   s( 3) = (     0         -1          1      )
                  (     0         -1          0      )
                  (     1         -1          0      )

 cart.    s( 3) = ( -1.0000000 -0.0000000 -0.0000000 )
                  (  0.0000000  1.0000000 -0.0000000 )
                  (  0.0000000  0.0000000 -1.0000000 )


      isym =  4     180 deg rotation - cart. axis [1,0,0]        

 cryst.   s( 4) = (    -1          0          0      )
                  (    -1          0          1      )
                  (    -1          1          0      )

 cart.    s( 4) = (  1.0000000  0.0000000 -0.0000000 )
                  ( -0.0000000 -1.0000000 -0.0000000 )
                  ( -0.0000000 -0.0000000 -1.0000000 )


      isym =  5     180 deg rotation - cart. axis [1,1,0]        

 cryst.   s( 5) = (    -1          0          1      )
                  (     0         -1          1      )
                  (     0          0          1      )

 cart.    s( 5) = ( -0.0000000  1.0000000 -0.0000000 )
                  (  1.0000000 -0.0000000 -0.0000000 )
                  (  0.0000000 -0.0000000 -1.0000000 )


      isym =  6     180 deg rotation - cart. axis [1,-1,0]       

 cryst.   s( 6) = (     0         -1          0      )
                  (    -1          0          0      )
                  (     0          0         -1      )

 cart.    s( 6) = (  0.0000000 -1.0000000 -0.0000000 )
                  ( -1.0000000  0.0000000 -0.0000000 )
                  ( -0.0000000  0.0000000 -1.0000000 )


      isym =  7      90 deg rotation - cart. axis [0,0,-1]       

 cryst.   s( 7) = (     0          1          0      )
                  (     0          1         -1      )
                  (    -1          1          0      )

 cart.    s( 7) = (  0.0000000  1.0000000  0.0000000 )
                  ( -1.0000000 -0.0000000  0.0000000 )
                  ( -0.0000000 -0.0000000  1.0000000 )


      isym =  8      90 deg rotation - cart. axis [0,0,1]        

 cryst.   s( 8) = (     1          0         -1      )
                  (     1          0          0      )
                  (     1         -1          0      )

 cart.    s( 8) = ( -0.0000000 -1.0000000  0.0000000 )
                  (  1.0000000  0.0000000  0.0000000 )
                  (  0.0000000  0.0000000  1.0000000 )


      isym =  9     180 deg rotation - cart. axis [1,0,1]        

 cryst.   s( 9) = (    -1          1          0      )
                  (     0          1          0      )
                  (     0          1         -1      )

 cart.    s( 9) = (  0.0000000  0.0000000  1.0000000 )
                  (  0.0000000 -1.0000000 -0.0000000 )
                  (  1.0000000 -0.0000000 -0.0000000 )


      isym = 10     180 deg rotation - cart. axis [-1,0,1]       

 cryst.   s(10) = (     0          0         -1      )
                  (     0         -1          0      )
                  (    -1          0          0      )

 cart.    s(10) = ( -0.0000000  0.0000000 -1.0000000 )
                  ( -0.0000000 -1.0000000  0.0000000 )
                  ( -1.0000000 -0.0000000  0.0000000 )


      isym = 11      90 deg rotation - cart. axis [0,1,0]        

 cryst.   s(11) = (     0          0          1      )
                  (    -1          0          1      )
                  (     0         -1          1      )

 cart.    s(11) = ( -0.0000000 -0.0000000  1.0000000 )
                  ( -0.0000000  1.0000000 -0.0000000 )
                  ( -1.0000000  0.0000000 -0.0000000 )


      isym = 12      90 deg rotation - cart. axis [0,-1,0]       

 cryst.   s(12) = (     1         -1          0      )
                  (     1          0         -1      )
                  (     1          0          0      )

 cart.    s(12) = (  0.0000000 -0.0000000 -1.0000000 )
                  (  0.0000000  1.0000000  0.0000000 )
                  (  1.0000000  0.0000000  0.0000000 )


      isym = 13     180 deg rotation - cart. axis [0,1,1]        

 cryst.   s(13) = (     1          0          0      )
                  (     1         -1          0      )
                  (     1          0         -1      )

 cart.    s(13) = ( -1.0000000  0.0000000 -0.0000000 )
                  (  0.0000000  0.0000000  1.0000000 )
                  (  0.0000000  1.0000000  0.0000000 )


      isym = 14     180 deg rotation - cart. axis [0,1,-1]       

 cryst.   s(14) = (    -1          0          0      )
                  (     0          0         -1      )
                  (     0         -1          0      )

 cart.    s(14) = ( -1.0000000 -0.0000000  0.0000000 )
                  (  0.0000000 -0.0000000 -1.0000000 )
                  (  0.0000000 -1.0000000 -0.0000000 )


      isym = 15      90 deg rotation - cart. axis [-1,0,0]       

 cryst.   s(15) = (     0         -1          1      )
                  (     0          0          1      )
                  (    -1          0          1      )

 cart.    s(15) = (  1.0000000 -0.0000000 -0.0000000 )
                  ( -0.0000000 -0.0000000  1.0000000 )
                  ( -0.0000000 -1.0000000  0.0000000 )


      isym = 16      90 deg rotation - cart. axis [1,0,0]        

 cryst.   s(16) = (     0          1         -1      )
                  (    -1          1          0      )
                  (     0          1          0      )

 cart.    s(16) = (  1.0000000  0.0000000  0.0000000 )
                  ( -0.0000000  0.0000000 -1.0000000 )
                  ( -0.0000000  1.0000000 -0.0000000 )


      isym = 17     120 deg rotation - cart. axis [-1,-1,-1]     

 cryst.   s(17) = (     0          0          1      )
                  (     1          0          0      )
                  (     0          1          0      )

 cart.    s(17) = (  0.0000000  1.0000000 -0.0000000 )
                  (  0.0000000 -0.0000000  1.0000000 )
                  (  1.0000000 -0.0000000  0.0000000 )


      isym = 18     120 deg rotation - cart. axis [-1,1,1]       

 cryst.   s(18) = (     1         -1          0      )
                  (     0         -1          1      )
                  (     0         -1          0      )

 cart.    s(18) = ( -0.0000000 -1.0000000 -0.0000000 )
                  ( -0.0000000  0.0000000  1.0000000 )
                  ( -1.0000000  0.0000000  0.0000000 )


      isym = 19     120 deg rotation - cart. axis [1,1,-1]       

 cryst.   s(19) = (    -1          1          0      )
                  (    -1          0          0      )
                  (    -1          0          1      )

 cart.    s(19) = ( -0.0000000  1.0000000  0.0000000 )
                  ( -0.0000000 -0.0000000 -1.0000000 )
                  ( -1.0000000 -0.0000000 -0.0000000 )


      isym = 20     120 deg rotation - cart. axis [1,-1,1]       

 cryst.   s(20) = (     0          0         -1      )
                  (     0          1         -1      )
                  (     1          0         -1      )

 cart.    s(20) = (  0.0000000 -1.0000000  0.0000000 )
                  (  0.0000000  0.0000000 -1.0000000 )
                  (  1.0000000  0.0000000 -0.0000000 )


      isym = 21     120 deg rotation - cart. axis [1,1,1]        

 cryst.   s(21) = (     0          1          0      )
                  (     0          0          1      )
                  (     1          0          0      )

 cart.    s(21) = ( -0.0000000  0.0000000  1.0000000 )
                  (  1.0000000  0.0000000 -0.0000000 )
                  (  0.0000000  1.0000000 -0.0000000 )


      isym = 22     120 deg rotation - cart. axis [-1,1,-1]      

 cryst.   s(22) = (    -1          0          1      )
                  (    -1          1          0      )
                  (    -1          0          0      )

 cart.    s(22) = (  0.0000000 -0.0000000  1.0000000 )
                  ( -1.0000000 -0.0000000 -0.0000000 )
                  ( -0.0000000 -1.0000000 -0.0000000 )


      isym = 23     120 deg rotation - cart. axis [1,-1,-1]      

 cryst.   s(23) = (     1          0         -1      )
                  (     0          0         -1      )
                  (     0          1         -1      )

 cart.    s(23) = (  0.0000000  0.0000000 -1.0000000 )
                  ( -1.0000000  0.0000000  0.0000000 )
                  ( -0.0000000  1.0000000  0.0000000 )


      isym = 24     120 deg rotation - cart. axis [-1,-1,1]      

 cryst.   s(24) = (     0         -1          0      )
                  (     1         -1          0      )
                  (     0         -1          1      )

 cart.    s(24) = ( -0.0000000 -0.0000000 -1.0000000 )
                  (  1.0000000 -0.0000000  0.0000000 )
                  (  0.0000000 -1.0000000  0.0000000 )


      isym = 25     inversion                                    

 cryst.   s(25) = (    -1          0          0      )
                  (     0         -1          0      )
                  (     0          0         -1      )

 cart.    s(25) = ( -1.0000000  0.0000000 -0.0000000 )
                  (  0.0000000 -1.0000000 -0.0000000 )
                  (  0.0000000 -0.0000000 -1.0000000 )


      isym = 26     inv. 180 deg rotation - cart. axis [0,0,1]   

 cryst.   s(26) = (     0         -1          1      )
                  (    -1          0          1      )
                  (     0          0          1      )

 cart.    s(26) = (  1.0000000 -0.0000000 -0.0000000 )
                  ( -0.0000000  1.0000000 -0.0000000 )
                  ( -0.0000000  0.0000000 -1.0000000 )


      isym = 27     inv. 180 deg rotation - cart. axis [0,1,0]   

 cryst.   s(27) = (     0          1         -1      )
                  (     0          1          0      )
                  (    -1          1          0      )

 cart.    s(27) = (  1.0000000  0.0000000  0.0000000 )
                  ( -0.0000000 -1.0000000  0.0000000 )
                  ( -0.0000000 -0.0000000  1.0000000 )


      isym = 28     inv. 180 deg rotation - cart. axis [1,0,0]   

 cryst.   s(28) = (     1          0          0      )
                  (     1          0         -1      )
                  (     1         -1          0      )

 cart.    s(28) = ( -1.0000000 -0.0000000  0.0000000 )
                  (  0.0000000  1.0000000  0.0000000 )
                  (  0.0000000  0.0000000  1.0000000 )


      isym = 29     inv. 180 deg rotation - cart. axis [1,1,0]   

 cryst.   s(29) = (     1          0         -1      )
                  (     0          1         -1      )
                  (     0          0         -1      )

 cart.    s(29) = (  0.0000000 -1.0000000  0.0000000 )
                  ( -1.0000000  0.0000000  0.0000000 )
                  ( -0.0000000  0.0000000  1.0000000 )


      isym = 30     inv. 180 deg rotation - cart. axis [1,-1,0]  

 cryst.   s(30) = (     0          1          0      )
                  (     1          0          0      )
                  (     0          0          1      )

 cart.    s(30) = ( -0.0000000  1.0000000  0.0000000 )
                  (  1.0000000 -0.0000000  0.0000000 )
                  (  0.0000000 -0.0000000  1.0000000 )


      isym = 31     inv.  90 deg rotation - cart. axis [0,0,-1]  

 cryst.   s(31) = (     0         -1          0      )
                  (     0         -1          1      )
                  (     1         -1          0      )

 cart.    s(31) = ( -0.0000000 -1.0000000 -0.0000000 )
                  (  1.0000000  0.0000000 -0.0000000 )
                  (  0.0000000  0.0000000 -1.0000000 )


      isym = 32     inv.  90 deg rotation - cart. axis [0,0,1]   

 cryst.   s(32) = (    -1          0          1      )
                  (    -1          0          0      )
                  (    -1          1          0      )

 cart.    s(32) = (  0.0000000  1.0000000 -0.0000000 )
                  ( -1.0000000 -0.0000000 -0.0000000 )
                  ( -0.0000000 -0.0000000 -1.0000000 )


      isym = 33     inv. 180 deg rotation - cart. axis [1,0,1]   

 cryst.   s(33) = (     1         -1          0      )
                  (     0         -1          0      )
                  (     0         -1          1      )

 cart.    s(33) = ( -0.0000000 -0.0000000 -1.0000000 )
                  ( -0.0000000  1.0000000  0.0000000 )
                  ( -1.0000000  0.0000000  0.0000000 )


      isym = 34     inv. 180 deg rotation - cart. axis [-1,0,1]  

 cryst.   s(34) = (     0          0          1      )
                  (     0          1          0      )
                  (     1          0          0      )

 cart.    s(34) = (  0.0000000 -0.0000000  1.0000000 )
                  (  0.0000000  1.0000000 -0.0000000 )
                  (  1.0000000  0.0000000 -0.0000000 )


      isym = 35     inv.  90 deg rotation - cart. axis [0,1,0]   

 cryst.   s(35) = (     0          0         -1      )
                  (     1          0         -1      )
                  (     0          1         -1      )

 cart.    s(35) = (  0.0000000  0.0000000 -1.0000000 )
                  (  0.0000000 -1.0000000  0.0000000 )
                  (  1.0000000 -0.0000000  0.0000000 )


      isym = 36     inv.  90 deg rotation - cart. axis [0,-1,0]  

 cryst.   s(36) = (    -1          1          0      )
                  (    -1          0          1      )
                  (    -1          0          0      )

 cart.    s(36) = ( -0.0000000  0.0000000  1.0000000 )
                  ( -0.0000000 -1.0000000 -0.0000000 )
                  ( -1.0000000 -0.0000000 -0.0000000 )


      isym = 37     inv. 180 deg rotation - cart. axis [0,1,1]   

 cryst.   s(37) = (    -1          0          0      )
                  (    -1          1          0      )
                  (    -1          0          1      )

 cart.    s(37) = (  1.0000000 -0.0000000  0.0000000 )
                  ( -0.0000000 -0.0000000 -1.0000000 )
                  ( -0.0000000 -1.0000000 -0.0000000 )


      isym = 38     inv. 180 deg rotation - cart. axis [0,1,-1]  

 cryst.   s(38) = (     1          0          0      )
                  (     0          0          1      )
                  (     0          1          0      )

 cart.    s(38) = (  1.0000000  0.0000000 -0.0000000 )
                  ( -0.0000000  0.0000000  1.0000000 )
                  ( -0.0000000  1.0000000  0.0000000 )


      isym = 39     inv.  90 deg rotation - cart. axis [-1,0,0]  

 cryst.   s(39) = (     0          1         -1      )
                  (     0          0         -1      )
                  (     1          0         -1      )

 cart.    s(39) = ( -1.0000000  0.0000000  0.0000000 )
                  (  0.0000000  0.0000000 -1.0000000 )
                  (  0.0000000  1.0000000 -0.0000000 )


      isym = 40     inv.  90 deg rotation - cart. axis [1,0,0]   

 cryst.   s(40) = (     0         -1          1      )
                  (     1         -1          0      )
                  (     0         -1          0      )

 cart.    s(40) = ( -1.0000000 -0.0000000 -0.0000000 )
                  (  0.0000000 -0.0000000  1.0000000 )
                  (  0.0000000 -1.0000000  0.0000000 )


      isym = 41     inv. 120 deg rotation - cart. axis [-1,-1,-1]

 cryst.   s(41) = (     0          0         -1      )
                  (    -1          0          0      )
                  (     0         -1          0      )

 cart.    s(41) = ( -0.0000000 -1.0000000  0.0000000 )
                  ( -0.0000000  0.0000000 -1.0000000 )
                  ( -1.0000000  0.0000000 -0.0000000 )


      isym = 42     inv. 120 deg rotation - cart. axis [-1,1,1]  

 cryst.   s(42) = (    -1          1          0      )
                  (     0          1         -1      )
                  (     0          1          0      )

 cart.    s(42) = (  0.0000000  1.0000000  0.0000000 )
                  (  0.0000000 -0.0000000 -1.0000000 )
                  (  1.0000000 -0.0000000 -0.0000000 )


      isym = 43     inv. 120 deg rotation - cart. axis [1,1,-1]  

 cryst.   s(43) = (     1         -1          0      )
                  (     1          0          0      )
                  (     1          0         -1      )

 cart.    s(43) = (  0.0000000 -1.0000000 -0.0000000 )
                  (  0.0000000  0.0000000  1.0000000 )
                  (  1.0000000  0.0000000  0.0000000 )


      isym = 44     inv. 120 deg rotation - cart. axis [1,-1,1]  

 cryst.   s(44) = (     0          0          1      )
                  (     0         -1          1      )
                  (    -1          0          1      )

 cart.    s(44) = ( -0.0000000  1.0000000 -0.0000000 )
                  ( -0.0000000 -0.0000000  1.0000000 )
                  ( -1.0000000 -0.0000000  0.0000000 )


      isym = 45     inv. 120 deg rotation - cart. axis [1,1,1]   

 cryst.   s(45) = (     0         -1          0      )
                  (     0          0         -1      )
                  (    -1          0          0      )

 cart.    s(45) = (  0.0000000 -0.0000000 -1.0000000 )
                  ( -1.0000000 -0.0000000  0.0000000 )
                  ( -0.0000000 -1.0000000  0.0000000 )


      isym = 46     inv. 120 deg rotation - cart. axis [-1,1,-1] 

 cryst.   s(46) = (     1          0         -1      )
                  (     1         -1          0      )
                  (     1          0          0      )

 cart.    s(46) = ( -0.0000000  0.0000000 -1.0000000 )
                  (  1.0000000  0.0000000  0.0000000 )
                  (  0.0000000  1.0000000  0.0000000 )


      isym = 47     inv. 120 deg rotation - cart. axis [1,-1,-1] 

 cryst.   s(47) = (    -1          0          1      )
                  (     0          0          1      )
                  (     0         -1          1      )

 cart.    s(47) = ( -0.0000000 -0.0000000  1.0000000 )
                  (  1.0000000 -0.0000000 -0.0000000 )
                  (  0.0000000 -1.0000000 -0.0000000 )


      isym = 48     inv. 120 deg rotation - cart. axis [-1,-1,1] 

 cryst.   s(48) = (     0          1          0      )
                  (    -1          1          0      )
                  (     0          1         -1      )

 cart.    s(48) = (  0.0000000  0.0000000  1.0000000 )
                  ( -1.0000000  0.0000000 -0.0000000 )
                  ( -0.0000000  1.0000000 -0.0000000 )


   Cartesian axes

     site n.     atom                  positions (alat units)
         1        Sr     tau(   1) = (   0.3535534   0.3535534   1.0606602  )
         2        Sr     tau(   2) = (   0.3535534   1.0606602   1.0606602  )
         3        Mn     tau(   3) = (   0.0000000   0.0000000   0.0000000  )
         4        Mo     tau(   4) = (   0.7071068   0.0000000   0.0000000  )
         5        O      tau(   5) = (   1.1087434   0.0000000   0.0000000  )
         6        O      tau(   6) = (   0.7071068   0.4016367  -0.0000000  )
         7        O      tau(   7) = (  -0.0000000  -0.0000000   1.1087434  )
         8        O      tau(   8) = (   0.7071068   0.0000000   1.0125769  )
         9        O      tau(   9) = (   0.7071068   1.0125769   0.0000000  )
        10        O      tau(  10) = (   0.3054701  -0.0000000  -0.0000000  )

   Crystallographic axes

     site n.     atom                  positions (cryst. coord.)
         1        Sr     tau(   1) = (  0.7500000  0.7500000 -0.2500000  )
         2        Sr     tau(   2) = (  1.2500000  0.2500000  0.2500000  )
         3        Mn     tau(   3) = (  0.0000000  0.0000000  0.0000000  )
         4        Mo     tau(   4) = ( -0.5000000  0.5000000  0.5000000  )
         5        O      tau(   5) = ( -0.7840000  0.7840000  0.7840000  )
         6        O      tau(   6) = ( -0.2160000  0.2160000  0.7840000  )
         7        O      tau(   7) = (  0.7840000  0.7840000 -0.7840000  )
         8        O      tau(   8) = (  0.2160000  1.2160000 -0.2160000  )
         9        O      tau(   9) = (  0.2160000 -0.2160000  1.2160000  )
        10        O      tau(  10) = ( -0.2160000  0.2160000  0.2160000  )

     number of k points=    47  Marzari-Vanderbilt smearing, width (Ry)=  0.0200
                       cart. coord. in units 2pi/alat
        k(    1) = (   0.0000000   0.0000000   0.0000000), wk =   0.0010000
        k(    2) = (   0.0707107   0.0707107  -0.0707107), wk =   0.0080000
        k(    3) = (   0.1414214   0.1414214  -0.1414214), wk =   0.0080000
        k(    4) = (   0.2121320   0.2121320  -0.2121320), wk =   0.0080000
        k(    5) = (   0.2828427   0.2828427  -0.2828427), wk =   0.0080000
        k(    6) = (  -0.3535534  -0.3535534   0.3535534), wk =   0.0040000
        k(    7) = (   0.1414214  -0.0000000   0.0000000), wk =   0.0060000
        k(    8) = (   0.2121320   0.0707107  -0.0707107), wk =   0.0240000
        k(    9) = (   0.2828427   0.1414214  -0.1414214), wk =   0.0240000
        k(   10) = (   0.3535534   0.2121320  -0.2121320), wk =   0.0240000
        k(   11) = (  -0.2828427  -0.4242641   0.4242641), wk =   0.0240000
        k(   12) = (  -0.2121320  -0.3535534   0.3535534), wk =   0.0240000
        k(   13) = (  -0.1414214  -0.2828427   0.2828427), wk =   0.0240000
        k(   14) = (  -0.0707107  -0.2121320   0.2121320), wk =   0.0240000
        k(   15) = (   0.0000000  -0.1414214   0.1414214), wk =   0.0120000
        k(   16) = (   0.2828427  -0.0000000   0.0000000), wk =   0.0060000
        k(   17) = (   0.3535534   0.0707107  -0.0707107), wk =   0.0240000
        k(   18) = (   0.4242641   0.1414214  -0.1414214), wk =   0.0240000
        k(   19) = (  -0.2121320  -0.4949747   0.4949747), wk =   0.0240000
        k(   20) = (  -0.1414214  -0.4242641   0.4242641), wk =   0.0240000
        k(   21) = (  -0.0707107  -0.3535534   0.3535534), wk =   0.0240000
        k(   22) = (   0.0000000  -0.2828427   0.2828427), wk =   0.0120000
        k(   23) = (   0.4242641   0.0000000  -0.0000000), wk =   0.0060000
        k(   24) = (   0.4949747   0.0707107  -0.0707107), wk =   0.0240000
        k(   25) = (  -0.1414214  -0.5656854   0.5656854), wk =   0.0240000
        k(   26) = (  -0.0707107  -0.4949747   0.4949747), wk =   0.0240000
        k(   27) = (  -0.0000000  -0.4242641   0.4242641), wk =   0.0120000
        k(   28) = (   0.5656854  -0.0000000   0.0000000), wk =   0.0060000
        k(   29) = (  -0.0707107  -0.6363961   0.6363961), wk =   0.0240000
        k(   30) = (   0.0000000  -0.5656854   0.5656854), wk =   0.0120000
        k(   31) = (  -0.7071068   0.0000000   0.0000000), wk =   0.0030000
        k(   32) = (   0.2828427   0.1414214   0.0000000), wk =   0.0240000
        k(   33) = (   0.3535534   0.2121320  -0.0707107), wk =   0.0480000
        k(   34) = (  -0.2828427  -0.4242641   0.5656854), wk =   0.0480000
        k(   35) = (  -0.2121320  -0.3535534   0.4949747), wk =   0.0240000
        k(   36) = (   0.4242641   0.1414214  -0.0000000), wk =   0.0240000
        k(   37) = (  -0.2121320  -0.4949747   0.6363961), wk =   0.0480000
        k(   38) = (  -0.1414214  -0.4242641   0.5656854), wk =   0.0480000
        k(   39) = (  -0.0707107  -0.3535534   0.4949747), wk =   0.0480000
        k(   40) = (   0.0000000  -0.2828427   0.4242641), wk =   0.0240000
        k(   41) = (  -0.1414214  -0.5656854   0.7071068), wk =   0.0240000
        k(   42) = (  -0.0707107  -0.4949747   0.6363961), wk =   0.0480000
        k(   43) = (   0.0000000  -0.4242641   0.5656854), wk =   0.0240000
        k(   44) = (  -0.7071068   0.1414214   0.0000000), wk =   0.0120000
        k(   45) = (  -0.1414214  -0.4242641   0.7071068), wk =   0.0240000
        k(   46) = (  -0.0707107  -0.3535534   0.6363961), wk =   0.0240000
        k(   47) = (  -0.7071068   0.2828427   0.0000000), wk =   0.0120000

                       cryst. coord.
        k(    1) = (   0.0000000   0.0000000   0.0000000), wk =   0.0010000
        k(    2) = (  -0.0000000  -0.0000000   0.1000000), wk =   0.0080000
        k(    3) = (  -0.0000000  -0.0000000   0.2000000), wk =   0.0080000
        k(    4) = (   0.0000000   0.0000000   0.3000000), wk =   0.0080000
        k(    5) = (  -0.0000000  -0.0000000   0.4000000), wk =   0.0080000
        k(    6) = (  -0.0000000  -0.0000000  -0.5000000), wk =   0.0040000
        k(    7) = (  -0.0000000   0.1000000   0.1000000), wk =   0.0060000
        k(    8) = (  -0.0000000   0.1000000   0.2000000), wk =   0.0240000
        k(    9) = (  -0.0000000   0.1000000   0.3000000), wk =   0.0240000
        k(   10) = (  -0.0000000   0.1000000   0.4000000), wk =   0.0240000
        k(   11) = (   0.0000000   0.1000000  -0.5000000), wk =   0.0240000
        k(   12) = (  -0.0000000   0.1000000  -0.4000000), wk =   0.0240000
        k(   13) = (   0.0000000   0.1000000  -0.3000000), wk =   0.0240000
        k(   14) = (  -0.0000000   0.1000000  -0.2000000), wk =   0.0240000
        k(   15) = (   0.0000000   0.1000000  -0.1000000), wk =   0.0120000
        k(   16) = (  -0.0000000   0.2000000   0.2000000), wk =   0.0060000
        k(   17) = (   0.0000000   0.2000000   0.3000000), wk =   0.0240000
        k(   18) = (  -0.0000000   0.2000000   0.4000000), wk =   0.0240000
        k(   19) = (   0.0000000   0.2000000  -0.5000000), wk =   0.0240000
        k(   20) = (   0.0000000   0.2000000  -0.4000000), wk =   0.0240000
        k(   21) = (   0.0000000   0.2000000  -0.3000000), wk =   0.0240000
        k(   22) = (   0.0000000   0.2000000  -0.2000000), wk =   0.0120000
        k(   23) = (   0.0000000   0.3000000   0.3000000), wk =   0.0060000
        k(   24) = (  -0.0000000   0.3000000   0.4000000), wk =   0.0240000
        k(   25) = (   0.0000000   0.3000000  -0.5000000), wk =   0.0240000
        k(   26) = (   0.0000000   0.3000000  -0.4000000), wk =   0.0240000
        k(   27) = (   0.0000000   0.3000000  -0.3000000), wk =   0.0120000
        k(   28) = (  -0.0000000   0.4000000   0.4000000), wk =   0.0060000
        k(   29) = (   0.0000000   0.4000000  -0.5000000), wk =   0.0240000
        k(   30) = (   0.0000000   0.4000000  -0.4000000), wk =   0.0120000
        k(   31) = (   0.0000000  -0.5000000  -0.5000000), wk =   0.0030000
        k(   32) = (   0.1000000   0.2000000   0.3000000), wk =   0.0240000
        k(   33) = (   0.1000000   0.2000000   0.4000000), wk =   0.0480000
        k(   34) = (   0.1000000   0.2000000  -0.5000000), wk =   0.0480000
        k(   35) = (   0.1000000   0.2000000  -0.4000000), wk =   0.0240000
        k(   36) = (   0.1000000   0.3000000   0.4000000), wk =   0.0240000
        k(   37) = (   0.1000000   0.3000000  -0.5000000), wk =   0.0480000
        k(   38) = (   0.1000000   0.3000000  -0.4000000), wk =   0.0480000
        k(   39) = (   0.1000000   0.3000000  -0.3000000), wk =   0.0480000
        k(   40) = (   0.1000000   0.3000000  -0.2000000), wk =   0.0240000
        k(   41) = (   0.1000000   0.4000000  -0.5000000), wk =   0.0240000
        k(   42) = (   0.1000000   0.4000000  -0.4000000), wk =   0.0480000
        k(   43) = (   0.1000000   0.4000000  -0.3000000), wk =   0.0240000
        k(   44) = (   0.1000000  -0.5000000  -0.4000000), wk =   0.0120000
        k(   45) = (   0.2000000   0.4000000  -0.4000000), wk =   0.0240000
        k(   46) = (   0.2000000   0.4000000  -0.3000000), wk =   0.0240000
        k(   47) = (   0.2000000  -0.5000000  -0.3000000), wk =   0.0120000

     Dense  grid:   318539 G-vectors     FFT dimensions: (  96,  96,  96)

     Smooth grid:    61335 G-vectors     FFT dimensions: (  60,  60,  60)

     Dynamical RAM for                 wfc:       0.76 MB

     Dynamical RAM for     wfc (w. buffer):      11.39 MB

     Dynamical RAM for           str. fact:       2.43 MB

     Dynamical RAM for           local pot:       0.00 MB

     Dynamical RAM for          nlocal pot:       1.75 MB

     Dynamical RAM for                qrad:       8.96 MB

     Dynamical RAM for          rho,v,vnew:       8.71 MB

     Dynamical RAM for               rhoin:       2.90 MB

     Dynamical RAM for            rho*nmix:      19.44 MB

     Dynamical RAM for           G-vectors:       2.34 MB

     Dynamical RAM for          h,s,v(r/c):       0.50 MB

     Dynamical RAM for          <psi|beta>:       0.10 MB

     Dynamical RAM for                 psi:       1.52 MB

     Dynamical RAM for                hpsi:       1.52 MB

     Dynamical RAM for                spsi:       1.52 MB

     Dynamical RAM for      wfcinit/wfcrot:       2.25 MB

     Dynamical RAM for           addusdens:      17.79 MB

     Dynamical RAM for          addusforce:      18.19 MB

     Dynamical RAM for         addusstress:      18.10 MB

     Estimated static dynamical RAM per process >      46.58 MB

     Estimated max dynamical RAM per process >      84.21 MB

     Estimated total dynamical RAM >       3.69 GB

     Check: negative core charge=   -0.000004
     Generating pointlists ...
     new r_m :   0.1260 (alat units)  1.3479 (a.u.) for type    1
     new r_m :   0.1657 (alat units)  1.7723 (a.u.) for type    2
     new r_m :   0.1260 (alat units)  1.3479 (a.u.) for type    3
     new r_m :   0.2072 (alat units)  2.2165 (a.u.) for type    4

     Initial potential from superposition of free atoms

     starting charge      84.4375, renormalised to      85.0000

     negative rho (up, down):  7.030E-02 5.761E-02
     Starting wfcs are   73 randomized atomic wfcs
     Checking if some PAW data can be deallocated... 
       PAW data deallocated on   24 nodes for type:  3

     total cpu time spent up to now is        3.3 secs

     per-process dynamical memory:    66.9 Mb

     Self-consistent Calculation

     iteration #  1     ecut=    65.00 Ry     beta= 0.40
     Davidson diagonalization with overlap

---- Real-time Memory Report at c_bands before calling an iterative solver
            97 MiB given to the printing process from OS
            65 MiB allocation reported by mallinfo(arena+hblkhd)
        487384 MiB available memory on the node where the printing process lives
------------------
     ethr =  1.00E-02,  avg # of iterations =  2.0

     negative rho (up, down):  6.784E-02 6.007E-02

     total cpu time spent up to now is        5.7 secs

     total energy              =    -734.26873322 Ry
     estimated scf accuracy    <       4.41412143 Ry

     total magnetization       =     5.00 Bohr mag/cell
     absolute magnetization    =     5.14 Bohr mag/cell

     iteration #  2     ecut=    65.00 Ry     beta= 0.40
     Davidson diagonalization with overlap

---- Real-time Memory Report at c_bands before calling an iterative solver
           119 MiB given to the printing process from OS
            86 MiB allocation reported by mallinfo(arena+hblkhd)
        486386 MiB available memory on the node where the printing process lives
------------------
     ethr =  5.19E-03,  avg # of iterations =  3.0

     negative rho (up, down):  6.754E-02 6.099E-02

     total cpu time spent up to now is        8.5 secs

     total energy              =    -734.38873663 Ry
     estimated scf accuracy    <       7.34851746 Ry

     total magnetization       =     6.28 Bohr mag/cell
     absolute magnetization    =     6.31 Bohr mag/cell

     iteration #  3     ecut=    65.00 Ry     beta= 0.40
     Davidson diagonalization with overlap

---- Real-time Memory Report at c_bands before calling an iterative solver
           121 MiB given to the printing process from OS
            86 MiB allocation reported by mallinfo(arena+hblkhd)
        486363 MiB available memory on the node where the printing process lives
------------------
     ethr =  5.19E-03,  avg # of iterations =  2.1

     negative rho (up, down):  6.710E-02 6.265E-02

     total cpu time spent up to now is       10.8 secs

     total energy              =    -735.74839194 Ry
     estimated scf accuracy    <       0.59184254 Ry

     total magnetization       =     4.98 Bohr mag/cell
     absolute magnetization    =     5.06 Bohr mag/cell

     iteration #  4     ecut=    65.00 Ry     beta= 0.40
     Davidson diagonalization with overlap

---- Real-time Memory Report at c_bands before calling an iterative solver
           122 MiB given to the printing process from OS
            87 MiB allocation reported by mallinfo(arena+hblkhd)
        486342 MiB available memory on the node where the printing process lives
------------------
     ethr =  6.96E-04,  avg # of iterations =  2.5

     negative rho (up, down):  6.694E-02 6.330E-02

     total cpu time spent up to now is       13.2 secs

     total energy              =    -735.75414521 Ry
     estimated scf accuracy    <       0.42168956 Ry

     total magnetization       =     4.90 Bohr mag/cell
     absolute magnetization    =     4.99 Bohr mag/cell

     iteration #  5     ecut=    65.00 Ry     beta= 0.40
     Davidson diagonalization with overlap

---- Real-time Memory Report at c_bands before calling an iterative solver
           123 MiB given to the printing process from OS
            87 MiB allocation reported by mallinfo(arena+hblkhd)
        486321 MiB available memory on the node where the printing process lives
------------------
     ethr =  4.96E-04,  avg # of iterations =  1.6

     negative rho (up, down):  6.630E-02 6.596E-02

     total cpu time spent up to now is       15.5 secs

     total energy              =    -735.78824738 Ry
     estimated scf accuracy    <       0.12564863 Ry

     total magnetization       =     4.82 Bohr mag/cell
     absolute magnetization    =     4.97 Bohr mag/cell

     iteration #  6     ecut=    65.00 Ry     beta= 0.40
     Davidson diagonalization with overlap

---- Real-time Memory Report at c_bands before calling an iterative solver
           123 MiB given to the printing process from OS
            88 MiB allocation reported by mallinfo(arena+hblkhd)
        486348 MiB available memory on the node where the printing process lives
------------------
     ethr =  1.48E-04,  avg # of iterations =  4.3

     negative rho (up, down):  6.621E-02 6.626E-02

     total cpu time spent up to now is       18.6 secs

     total energy              =    -735.81357034 Ry
     estimated scf accuracy    <       0.07218790 Ry

     total magnetization       =     4.27 Bohr mag/cell
     absolute magnetization    =     4.42 Bohr mag/cell

     iteration #  7     ecut=    65.00 Ry     beta= 0.40
     Davidson diagonalization with overlap

---- Real-time Memory Report at c_bands before calling an iterative solver
           124 MiB given to the printing process from OS
            88 MiB allocation reported by mallinfo(arena+hblkhd)
        486334 MiB available memory on the node where the printing process lives
------------------
     ethr =  8.49E-05,  avg # of iterations =  2.5

     negative rho (up, down):  6.615E-02 6.601E-02

     total cpu time spent up to now is       21.1 secs

     total energy              =    -735.81893285 Ry
     estimated scf accuracy    <       0.00674348 Ry

     total magnetization       =     4.14 Bohr mag/cell
     absolute magnetization    =     4.27 Bohr mag/cell

     iteration #  8     ecut=    65.00 Ry     beta= 0.40
     Davidson diagonalization with overlap

---- Real-time Memory Report at c_bands before calling an iterative solver
           125 MiB given to the printing process from OS
            89 MiB allocation reported by mallinfo(arena+hblkhd)
        486313 MiB available memory on the node where the printing process lives
------------------
     ethr =  7.93E-06,  avg # of iterations =  9.7

     negative rho (up, down):  6.609E-02 6.603E-02

     total cpu time spent up to now is       25.0 secs

     total energy              =    -735.82057780 Ry
     estimated scf accuracy    <       0.00294051 Ry

     total magnetization       =     3.97 Bohr mag/cell
     absolute magnetization    =     4.08 Bohr mag/cell

     iteration #  9     ecut=    65.00 Ry     beta= 0.40
     Davidson diagonalization with overlap

---- Real-time Memory Report at c_bands before calling an iterative solver
           126 MiB given to the printing process from OS
            89 MiB allocation reported by mallinfo(arena+hblkhd)
        486303 MiB available memory on the node where the printing process lives
------------------
     ethr =  3.46E-06,  avg # of iterations =  1.9

     negative rho (up, down):  6.598E-02 6.596E-02

     total cpu time spent up to now is       27.4 secs

     total energy              =    -735.82160517 Ry
     estimated scf accuracy    <       0.00096134 Ry

     total magnetization       =     3.84 Bohr mag/cell
     absolute magnetization    =     3.95 Bohr mag/cell

     iteration # 10     ecut=    65.00 Ry     beta= 0.40
     Davidson diagonalization with overlap

---- Real-time Memory Report at c_bands before calling an iterative solver
           126 MiB given to the printing process from OS
            90 MiB allocation reported by mallinfo(arena+hblkhd)
        486290 MiB available memory on the node where the printing process lives
------------------
     ethr =  1.13E-06,  avg # of iterations =  3.7

     negative rho (up, down):  6.586E-02 6.591E-02

     total cpu time spent up to now is       30.4 secs

     total energy              =    -735.82008537 Ry
     estimated scf accuracy    <       0.00402355 Ry

     total magnetization       =     3.60 Bohr mag/cell
     absolute magnetization    =     3.70 Bohr mag/cell

     iteration # 11     ecut=    65.00 Ry     beta= 0.40
     Davidson diagonalization with overlap

---- Real-time Memory Report at c_bands before calling an iterative solver
           126 MiB given to the printing process from OS
            90 MiB allocation reported by mallinfo(arena+hblkhd)
        486282 MiB available memory on the node where the printing process lives
------------------
     ethr =  1.13E-06,  avg # of iterations =  4.9

     negative rho (up, down):  6.584E-02 6.591E-02

     total cpu time spent up to now is       33.9 secs

     total energy              =    -735.82447518 Ry
     estimated scf accuracy    <       0.00363901 Ry

     total magnetization       =     2.98 Bohr mag/cell
     absolute magnetization    =     3.06 Bohr mag/cell

     iteration # 12     ecut=    65.00 Ry     beta= 0.40
     Davidson diagonalization with overlap

---- Real-time Memory Report at c_bands before calling an iterative solver
           127 MiB given to the printing process from OS
            90 MiB allocation reported by mallinfo(arena+hblkhd)
        486274 MiB available memory on the node where the printing process lives
------------------
     ethr =  1.13E-06,  avg # of iterations =  1.2

     negative rho (up, down):  6.584E-02 6.590E-02

     total cpu time spent up to now is       36.1 secs

     total energy              =    -735.82527334 Ry
     estimated scf accuracy    <       0.00685661 Ry

     total magnetization       =     3.06 Bohr mag/cell
     absolute magnetization    =     3.13 Bohr mag/cell

     iteration # 13     ecut=    65.00 Ry     beta= 0.40
     Davidson diagonalization with overlap

---- Real-time Memory Report at c_bands before calling an iterative solver
           127 MiB given to the printing process from OS
            90 MiB allocation reported by mallinfo(arena+hblkhd)
        486266 MiB available memory on the node where the printing process lives
------------------
     ethr =  1.13E-06,  avg # of iterations =  2.0

     negative rho (up, down):  6.592E-02 6.593E-02

     total cpu time spent up to now is       38.5 secs

     total energy              =    -735.80019148 Ry
     estimated scf accuracy    <       0.01305877 Ry

     total magnetization       =     2.88 Bohr mag/cell
     absolute magnetization    =     2.96 Bohr mag/cell

     iteration # 14     ecut=    65.00 Ry     beta= 0.40
     Davidson diagonalization with overlap

---- Real-time Memory Report at c_bands before calling an iterative solver
           127 MiB given to the printing process from OS
            90 MiB allocation reported by mallinfo(arena+hblkhd)
        486262 MiB available memory on the node where the printing process lives
------------------
     ethr =  1.13E-06,  avg # of iterations =  4.5

     negative rho (up, down):  6.590E-02 6.595E-02

     total cpu time spent up to now is       41.8 secs

     total energy              =    -735.81961226 Ry
     estimated scf accuracy    <       0.00233044 Ry

     total magnetization       =     4.08 Bohr mag/cell
     absolute magnetization    =     4.17 Bohr mag/cell

     iteration # 15     ecut=    65.00 Ry     beta= 0.40
     Davidson diagonalization with overlap

---- Real-time Memory Report at c_bands before calling an iterative solver
           127 MiB given to the printing process from OS
            90 MiB allocation reported by mallinfo(arena+hblkhd)
        486255 MiB available memory on the node where the printing process lives
------------------
     ethr =  1.13E-06,  avg # of iterations =  2.5

     negative rho (up, down):  6.589E-02 6.596E-02

     total cpu time spent up to now is       44.3 secs

     total energy              =    -735.81716363 Ry
     estimated scf accuracy    <       0.00027818 Ry

     total magnetization       =     3.76 Bohr mag/cell
     absolute magnetization    =     3.85 Bohr mag/cell

     iteration # 16     ecut=    65.00 Ry     beta= 0.40
     Davidson diagonalization with overlap

---- Real-time Memory Report at c_bands before calling an iterative solver
           127 MiB given to the printing process from OS
            90 MiB allocation reported by mallinfo(arena+hblkhd)
        486248 MiB available memory on the node where the printing process lives
------------------
     ethr =  3.27E-07,  avg # of iterations =  3.5

     negative rho (up, down):  6.596E-02 6.592E-02

     total cpu time spent up to now is       47.2 secs

     total energy              =    -735.80257615 Ry
     estimated scf accuracy    <       0.00070648 Ry

     total magnetization       =     4.08 Bohr mag/cell
     absolute magnetization    =     4.17 Bohr mag/cell

     iteration # 17     ecut=    65.00 Ry     beta= 0.40
     Davidson diagonalization with overlap

---- Real-time Memory Report at c_bands before calling an iterative solver
           128 MiB given to the printing process from OS
            90 MiB allocation reported by mallinfo(arena+hblkhd)
        486243 MiB available memory on the node where the printing process lives
------------------
     ethr =  3.27E-07,  avg # of iterations =  5.9

     negative rho (up, down):  6.595E-02 6.592E-02

     total cpu time spent up to now is       51.1 secs

     total energy              =    -735.82644308 Ry
     estimated scf accuracy    <       0.00104399 Ry

     total magnetization       =     2.56 Bohr mag/cell
     absolute magnetization    =     2.66 Bohr mag/cell

     iteration # 18     ecut=    65.00 Ry     beta= 0.40
     Davidson diagonalization with overlap

---- Real-time Memory Report at c_bands before calling an iterative solver
           128 MiB given to the printing process from OS
            90 MiB allocation reported by mallinfo(arena+hblkhd)
        486242 MiB available memory on the node where the printing process lives
------------------
     ethr =  3.27E-07,  avg # of iterations =  1.4

     negative rho (up, down):  6.596E-02 6.594E-02

     total cpu time spent up to now is       53.4 secs

     total energy              =    -735.82661702 Ry
     estimated scf accuracy    <       0.00083247 Ry

     total magnetization       =     2.65 Bohr mag/cell
     absolute magnetization    =     2.74 Bohr mag/cell

     iteration # 19     ecut=    65.00 Ry     beta= 0.40
     Davidson diagonalization with overlap

---- Real-time Memory Report at c_bands before calling an iterative solver
           128 MiB given to the printing process from OS
            90 MiB allocation reported by mallinfo(arena+hblkhd)
        486238 MiB available memory on the node where the printing process lives
------------------
     ethr =  3.27E-07,  avg # of iterations =  1.0

     negative rho (up, down):  6.597E-02 6.595E-02

     total cpu time spent up to now is       55.5 secs

     total energy              =    -735.82752045 Ry
     estimated scf accuracy    <       0.00076657 Ry

     total magnetization       =     2.62 Bohr mag/cell
     absolute magnetization    =     2.71 Bohr mag/cell

     iteration # 20     ecut=    65.00 Ry     beta= 0.40
     Davidson diagonalization with overlap

---- Real-time Memory Report at c_bands before calling an iterative solver
           128 MiB given to the printing process from OS
            90 MiB allocation reported by mallinfo(arena+hblkhd)
        486237 MiB available memory on the node where the printing process lives
------------------
     ethr =  3.27E-07,  avg # of iterations =  2.1

     negative rho (up, down):  6.597E-02 6.593E-02

     total cpu time spent up to now is       57.9 secs

     total energy              =    -735.82719754 Ry
     estimated scf accuracy    <       0.00116206 Ry

     total magnetization       =     2.40 Bohr mag/cell
     absolute magnetization    =     2.50 Bohr mag/cell

     iteration # 21     ecut=    65.00 Ry     beta= 0.40
     Davidson diagonalization with overlap

---- Real-time Memory Report at c_bands before calling an iterative solver
           128 MiB given to the printing process from OS
            90 MiB allocation reported by mallinfo(arena+hblkhd)
        486233 MiB available memory on the node where the printing process lives
------------------
     ethr =  3.27E-07,  avg # of iterations =  1.1

     negative rho (up, down):  6.596E-02 6.593E-02

     total cpu time spent up to now is       60.0 secs

     total energy              =    -735.82550676 Ry
     estimated scf accuracy    <       0.00104747 Ry

     total magnetization       =     2.50 Bohr mag/cell
     absolute magnetization    =     2.60 Bohr mag/cell

     iteration # 22     ecut=    65.00 Ry     beta= 0.40
     Davidson diagonalization with overlap

---- Real-time Memory Report at c_bands before calling an iterative solver
           128 MiB given to the printing process from OS
            90 MiB allocation reported by mallinfo(arena+hblkhd)
        486227 MiB available memory on the node where the printing process lives
------------------
     ethr =  3.27E-07,  avg # of iterations =  2.3

     negative rho (up, down):  6.597E-02 6.595E-02

     total cpu time spent up to now is       62.5 secs

     total energy              =    -735.82487956 Ry
     estimated scf accuracy    <       0.00067274 Ry

     total magnetization       =     2.73 Bohr mag/cell
     absolute magnetization    =     2.82 Bohr mag/cell

     iteration # 23     ecut=    65.00 Ry     beta= 0.40
     Davidson diagonalization with overlap

---- Real-time Memory Report at c_bands before calling an iterative solver
           128 MiB given to the printing process from OS
            90 MiB allocation reported by mallinfo(arena+hblkhd)
        486226 MiB available memory on the node where the printing process lives
------------------
     ethr =  3.27E-07,  avg # of iterations =  2.3

     negative rho (up, down):  6.597E-02 6.598E-02

     total cpu time spent up to now is       64.9 secs

     total energy              =    -735.79902219 Ry
     estimated scf accuracy    <       0.00055873 Ry

     total magnetization       =     2.90 Bohr mag/cell
     absolute magnetization    =     2.99 Bohr mag/cell

     iteration # 24     ecut=    65.00 Ry     beta= 0.40
     Davidson diagonalization with overlap

---- Real-time Memory Report at c_bands before calling an iterative solver
           128 MiB given to the printing process from OS
            90 MiB allocation reported by mallinfo(arena+hblkhd)
        486225 MiB available memory on the node where the printing process lives
------------------
     ethr =  3.27E-07,  avg # of iterations =  5.9

     negative rho (up, down):  6.597E-02 6.596E-02

     total cpu time spent up to now is       68.8 secs

     total energy              =    -735.81661849 Ry
     estimated scf accuracy    <       0.00086634 Ry

     total magnetization       =     4.08 Bohr mag/cell
     absolute magnetization    =     4.17 Bohr mag/cell

     iteration # 25     ecut=    65.00 Ry     beta= 0.40
     Davidson diagonalization with overlap

---- Real-time Memory Report at c_bands before calling an iterative solver
           129 MiB given to the printing process from OS
            90 MiB allocation reported by mallinfo(arena+hblkhd)
        486218 MiB available memory on the node where the printing process lives
------------------
     ethr =  3.27E-07,  avg # of iterations =  4.8

     negative rho (up, down):  6.599E-02 6.596E-02

     total cpu time spent up to now is       72.1 secs

     total energy              =    -735.81750419 Ry
     estimated scf accuracy    <       0.00034428 Ry

     total magnetization       =     3.39 Bohr mag/cell
     absolute magnetization    =     3.47 Bohr mag/cell

     iteration # 26     ecut=    65.00 Ry     beta= 0.40
     Davidson diagonalization with overlap

---- Real-time Memory Report at c_bands before calling an iterative solver
           129 MiB given to the printing process from OS
            90 MiB allocation reported by mallinfo(arena+hblkhd)
        486216 MiB available memory on the node where the printing process lives
------------------
     ethr =  3.27E-07,  avg # of iterations =  5.7

     negative rho (up, down):  6.600E-02 6.596E-02

     total cpu time spent up to now is       75.7 secs

     total energy              =    -735.83060449 Ry
     estimated scf accuracy    <       0.00172836 Ry

     total magnetization       =     2.30 Bohr mag/cell
     absolute magnetization    =     2.41 Bohr mag/cell

     iteration # 27     ecut=    65.00 Ry     beta= 0.40
     Davidson diagonalization with overlap

---- Real-time Memory Report at c_bands before calling an iterative solver
           129 MiB given to the printing process from OS
            90 MiB allocation reported by mallinfo(arena+hblkhd)
        486211 MiB available memory on the node where the printing process lives
------------------
     ethr =  3.27E-07,  avg # of iterations =  4.4

     negative rho (up, down):  6.600E-02 6.596E-02

     total cpu time spent up to now is       78.8 secs

     total energy              =    -735.83760064 Ry
     estimated scf accuracy    <       0.00425678 Ry

     total magnetization       =     1.66 Bohr mag/cell
     absolute magnetization    =     2.75 Bohr mag/cell

     iteration # 28     ecut=    65.00 Ry     beta= 0.40
     Davidson diagonalization with overlap

---- Real-time Memory Report at c_bands before calling an iterative solver
           129 MiB given to the printing process from OS
            90 MiB allocation reported by mallinfo(arena+hblkhd)
        486209 MiB available memory on the node where the printing process lives
------------------
     ethr =  3.27E-07,  avg # of iterations =  3.6

     negative rho (up, down):  6.599E-02 6.597E-02

     total cpu time spent up to now is       81.6 secs

     total energy              =    -735.81473503 Ry
     estimated scf accuracy    <       0.00607694 Ry

     total magnetization       =     1.38 Bohr mag/cell
     absolute magnetization    =     3.00 Bohr mag/cell

     iteration # 29     ecut=    65.00 Ry     beta= 0.40
     Davidson diagonalization with overlap

---- Real-time Memory Report at c_bands before calling an iterative solver
           129 MiB given to the printing process from OS
            90 MiB allocation reported by mallinfo(arena+hblkhd)
        486209 MiB available memory on the node where the printing process lives
------------------
     ethr =  3.27E-07,  avg # of iterations =  5.2

     negative rho (up, down):  6.598E-02 6.597E-02

     total cpu time spent up to now is       84.9 secs

     total energy              =    -735.82512709 Ry
     estimated scf accuracy    <       0.00114035 Ry

     total magnetization       =     2.51 Bohr mag/cell
     absolute magnetization    =     2.61 Bohr mag/cell

     iteration # 30     ecut=    65.00 Ry     beta= 0.40
     Davidson diagonalization with overlap

---- Real-time Memory Report at c_bands before calling an iterative solver
           129 MiB given to the printing process from OS
            90 MiB allocation reported by mallinfo(arena+hblkhd)
        486207 MiB available memory on the node where the printing process lives
------------------
     ethr =  3.27E-07,  avg # of iterations =  3.2

     negative rho (up, down):  6.598E-02 6.598E-02

     total cpu time spent up to now is       87.6 secs

     total energy              =    -735.81994234 Ry
     estimated scf accuracy    <       0.00073277 Ry

     total magnetization       =     2.77 Bohr mag/cell
     absolute magnetization    =     2.86 Bohr mag/cell

     iteration # 31     ecut=    65.00 Ry     beta= 0.40
     Davidson diagonalization with overlap

---- Real-time Memory Report at c_bands before calling an iterative solver
           129 MiB given to the printing process from OS
            90 MiB allocation reported by mallinfo(arena+hblkhd)
        486206 MiB available memory on the node where the printing process lives
------------------
     ethr =  3.27E-07,  avg # of iterations =  4.4

     negative rho (up, down):  6.599E-02 6.599E-02

     total cpu time spent up to now is       90.7 secs

     total energy              =    -735.81480143 Ry
     estimated scf accuracy    <       0.00038785 Ry

     total magnetization       =     3.32 Bohr mag/cell
     absolute magnetization    =     3.40 Bohr mag/cell

     iteration # 32     ecut=    65.00 Ry     beta= 0.40
     Davidson diagonalization with overlap

---- Real-time Memory Report at c_bands before calling an iterative solver
           129 MiB given to the printing process from OS
            90 MiB allocation reported by mallinfo(arena+hblkhd)
        486201 MiB available memory on the node where the printing process lives
------------------
     ethr =  3.27E-07,  avg # of iterations =  4.6

     negative rho (up, down):  6.598E-02 6.599E-02

     total cpu time spent up to now is       93.9 secs

     total energy              =    -735.81887743 Ry
     estimated scf accuracy    <       0.00069945 Ry

     total magnetization       =     3.91 Bohr mag/cell
     absolute magnetization    =     4.00 Bohr mag/cell

     iteration # 33     ecut=    65.00 Ry     beta= 0.40
     Davidson diagonalization with overlap

---- Real-time Memory Report at c_bands before calling an iterative solver
           129 MiB given to the printing process from OS
            90 MiB allocation reported by mallinfo(arena+hblkhd)
        486200 MiB available memory on the node where the printing process lives
------------------
     ethr =  3.27E-07,  avg # of iterations =  2.0

     negative rho (up, down):  6.599E-02 6.599E-02

     total cpu time spent up to now is       96.3 secs

     total energy              =    -735.81934464 Ry
     estimated scf accuracy    <       0.00085506 Ry

     total magnetization       =     4.02 Bohr mag/cell
     absolute magnetization    =     4.10 Bohr mag/cell

     iteration # 34     ecut=    65.00 Ry     beta= 0.40
     Davidson diagonalization with overlap

---- Real-time Memory Report at c_bands before calling an iterative solver
           129 MiB given to the printing process from OS
            90 MiB allocation reported by mallinfo(arena+hblkhd)
        486198 MiB available memory on the node where the printing process lives
------------------
     ethr =  3.27E-07,  avg # of iterations =  1.0

     negative rho (up, down):  6.598E-02 6.599E-02

     total cpu time spent up to now is       98.4 secs

     total energy              =    -735.81962370 Ry
     estimated scf accuracy    <       0.00078227 Ry

     total magnetization       =     3.98 Bohr mag/cell
     absolute magnetization    =     4.07 Bohr mag/cell

     iteration # 35     ecut=    65.00 Ry     beta= 0.40
     Davidson diagonalization with overlap

---- Real-time Memory Report at c_bands before calling an iterative solver
           129 MiB given to the printing process from OS
            90 MiB allocation reported by mallinfo(arena+hblkhd)
        486198 MiB available memory on the node where the printing process lives
------------------
     ethr =  3.27E-07,  avg # of iterations =  1.0

     negative rho (up, down):  6.598E-02 6.599E-02

     total cpu time spent up to now is      100.6 secs

     total energy              =    -735.81802894 Ry
     estimated scf accuracy    <       0.00072375 Ry

     total magnetization       =     3.95 Bohr mag/cell
     absolute magnetization    =     4.03 Bohr mag/cell

     iteration # 36     ecut=    65.00 Ry     beta= 0.40
     Davidson diagonalization with overlap

---- Real-time Memory Report at c_bands before calling an iterative solver
           129 MiB given to the printing process from OS
            90 MiB allocation reported by mallinfo(arena+hblkhd)
        486198 MiB available memory on the node where the printing process lives
------------------
     ethr =  3.27E-07,  avg # of iterations =  2.2

     negative rho (up, down):  6.598E-02 6.599E-02

     total cpu time spent up to now is      103.0 secs

     total energy              =    -735.81667696 Ry
     estimated scf accuracy    <       0.00100610 Ry

     total magnetization       =     4.09 Bohr mag/cell
     absolute magnetization    =     4.18 Bohr mag/cell

     iteration # 37     ecut=    65.00 Ry     beta= 0.40
     Davidson diagonalization with overlap

---- Real-time Memory Report at c_bands before calling an iterative solver
           129 MiB given to the printing process from OS
            90 MiB allocation reported by mallinfo(arena+hblkhd)
        486198 MiB available memory on the node where the printing process lives
------------------
     ethr =  3.27E-07,  avg # of iterations =  2.8

     negative rho (up, down):  6.599E-02 6.597E-02

     total cpu time spent up to now is      105.6 secs

     total energy              =    -735.80696603 Ry
     estimated scf accuracy    <       0.00132917 Ry

     total magnetization       =     4.21 Bohr mag/cell
     absolute magnetization    =     4.31 Bohr mag/cell

     iteration # 38     ecut=    65.00 Ry     beta= 0.40
     Davidson diagonalization with overlap

---- Real-time Memory Report at c_bands before calling an iterative solver
           129 MiB given to the printing process from OS
            90 MiB allocation reported by mallinfo(arena+hblkhd)
        486198 MiB available memory on the node where the printing process lives
------------------
     ethr =  3.27E-07,  avg # of iterations =  5.6

     negative rho (up, down):  6.599E-02 6.597E-02

     total cpu time spent up to now is      109.4 secs

     total energy              =    -735.82515265 Ry
     estimated scf accuracy    <       0.00054136 Ry

     total magnetization       =     3.03 Bohr mag/cell
     absolute magnetization    =     3.11 Bohr mag/cell

     iteration # 39     ecut=    65.00 Ry     beta= 0.40
     Davidson diagonalization with overlap

---- Real-time Memory Report at c_bands before calling an iterative solver
           129 MiB given to the printing process from OS
            90 MiB allocation reported by mallinfo(arena+hblkhd)
        486194 MiB available memory on the node where the printing process lives
------------------
     ethr =  3.27E-07,  avg # of iterations =  2.6

     negative rho (up, down):  6.599E-02 6.598E-02

     total cpu time spent up to now is      112.0 secs

     total energy              =    -735.82148833 Ry
     estimated scf accuracy    <       0.00076309 Ry

     total magnetization       =     2.80 Bohr mag/cell
     absolute magnetization    =     2.89 Bohr mag/cell

     iteration # 40     ecut=    65.00 Ry     beta= 0.40
     Davidson diagonalization with overlap

---- Real-time Memory Report at c_bands before calling an iterative solver
           129 MiB given to the printing process from OS
            90 MiB allocation reported by mallinfo(arena+hblkhd)
        486194 MiB available memory on the node where the printing process lives
------------------
     ethr =  3.27E-07,  avg # of iterations =  3.8

     negative rho (up, down):  6.600E-02 6.597E-02

     total cpu time spent up to now is      114.8 secs

     total energy              =    -735.82407001 Ry
     estimated scf accuracy    <       0.00043727 Ry

     total magnetization       =     3.24 Bohr mag/cell
     absolute magnetization    =     3.32 Bohr mag/cell

     iteration # 41     ecut=    65.00 Ry     beta= 0.40
     Davidson diagonalization with overlap

---- Real-time Memory Report at c_bands before calling an iterative solver
           129 MiB given to the printing process from OS
            90 MiB allocation reported by mallinfo(arena+hblkhd)
        486191 MiB available memory on the node where the printing process lives
------------------
     ethr =  3.27E-07,  avg # of iterations =  2.8

     negative rho (up, down):  6.600E-02 6.597E-02

     total cpu time spent up to now is      117.4 secs

     total energy              =    -735.82460307 Ry
     estimated scf accuracy    <       0.00055859 Ry

     total magnetization       =     2.99 Bohr mag/cell
     absolute magnetization    =     3.08 Bohr mag/cell

     iteration # 42     ecut=    65.00 Ry     beta= 0.40
     Davidson diagonalization with overlap

---- Real-time Memory Report at c_bands before calling an iterative solver
           129 MiB given to the printing process from OS
            90 MiB allocation reported by mallinfo(arena+hblkhd)
        486191 MiB available memory on the node where the printing process lives
------------------
     ethr =  3.27E-07,  avg # of iterations =  1.0

     negative rho (up, down):  6.600E-02 6.598E-02

     total cpu time spent up to now is      119.5 secs

     total energy              =    -735.82426401 Ry
     estimated scf accuracy    <       0.00054211 Ry

     total magnetization       =     3.02 Bohr mag/cell
     absolute magnetization    =     3.10 Bohr mag/cell

     iteration # 43     ecut=    65.00 Ry     beta= 0.40
     Davidson diagonalization with overlap

---- Real-time Memory Report at c_bands before calling an iterative solver
           129 MiB given to the printing process from OS
            90 MiB allocation reported by mallinfo(arena+hblkhd)
        486190 MiB available memory on the node where the printing process lives
------------------
     ethr =  3.27E-07,  avg # of iterations =  1.0

     negative rho (up, down):  6.600E-02 6.598E-02

     total cpu time spent up to now is      121.7 secs

     total energy              =    -735.82466577 Ry
     estimated scf accuracy    <       0.00049776 Ry

     total magnetization       =     3.08 Bohr mag/cell
     absolute magnetization    =     3.17 Bohr mag/cell

     iteration # 44     ecut=    65.00 Ry     beta= 0.40
     Davidson diagonalization with overlap

---- Real-time Memory Report at c_bands before calling an iterative solver
           129 MiB given to the printing process from OS
            90 MiB allocation reported by mallinfo(arena+hblkhd)
        486190 MiB available memory on the node where the printing process lives
------------------
     ethr =  3.27E-07,  avg # of iterations =  1.6

     negative rho (up, down):  6.600E-02 6.599E-02

     total cpu time spent up to now is      123.9 secs

     total energy              =    -735.81415376 Ry
     estimated scf accuracy    <       0.00056410 Ry

     total magnetization       =     2.98 Bohr mag/cell
     absolute magnetization    =     3.07 Bohr mag/cell

     iteration # 45     ecut=    65.00 Ry     beta= 0.40
     Davidson diagonalization with overlap

---- Real-time Memory Report at c_bands before calling an iterative solver
           129 MiB given to the printing process from OS
            90 MiB allocation reported by mallinfo(arena+hblkhd)
        486190 MiB available memory on the node where the printing process lives
------------------
     ethr =  3.27E-07,  avg # of iterations =  4.7

     negative rho (up, down):  6.600E-02 6.599E-02

     total cpu time spent up to now is      127.2 secs

     total energy              =    -735.82029230 Ry
     estimated scf accuracy    <       0.00043879 Ry

     total magnetization       =     3.72 Bohr mag/cell
     absolute magnetization    =     3.81 Bohr mag/cell

     iteration # 46     ecut=    65.00 Ry     beta= 0.40
     Davidson diagonalization with overlap

---- Real-time Memory Report at c_bands before calling an iterative solver
           129 MiB given to the printing process from OS
            90 MiB allocation reported by mallinfo(arena+hblkhd)
        486189 MiB available memory on the node where the printing process lives
------------------
     ethr =  3.27E-07,  avg # of iterations =  2.0

     negative rho (up, down):  6.599E-02 6.599E-02

     total cpu time spent up to now is      129.6 secs

     total energy              =    -735.79894453 Ry
     estimated scf accuracy    <       0.00053979 Ry

     total magnetization       =     3.84 Bohr mag/cell
     absolute magnetization    =     3.92 Bohr mag/cell

     iteration # 47     ecut=    65.00 Ry     beta= 0.40
     Davidson diagonalization with overlap

---- Real-time Memory Report at c_bands before calling an iterative solver
           129 MiB given to the printing process from OS
            90 MiB allocation reported by mallinfo(arena+hblkhd)
        486189 MiB available memory on the node where the printing process lives
------------------
     ethr =  3.27E-07,  avg # of iterations =  5.7

     negative rho (up, down):  6.600E-02 6.597E-02

     total cpu time spent up to now is      133.5 secs

     total energy              =    -735.73965269 Ry
     estimated scf accuracy    <       0.00319490 Ry

     total magnetization       =     4.61 Bohr mag/cell
     absolute magnetization    =     4.73 Bohr mag/cell

     iteration # 48     ecut=    65.00 Ry     beta= 0.40
     Davidson diagonalization with overlap

---- Real-time Memory Report at c_bands before calling an iterative solver
           129 MiB given to the printing process from OS
            90 MiB allocation reported by mallinfo(arena+hblkhd)
        486189 MiB available memory on the node where the printing process lives
------------------
     ethr =  3.27E-07,  avg # of iterations =  8.1

     negative rho (up, down):  6.601E-02 6.597E-02

     total cpu time spent up to now is      138.4 secs

     total energy              =    -735.84013833 Ry
     estimated scf accuracy    <       0.00505538 Ry

     total magnetization       =     1.52 Bohr mag/cell
     absolute magnetization    =     2.87 Bohr mag/cell

     iteration # 49     ecut=    65.00 Ry     beta= 0.40
     Davidson diagonalization with overlap

---- Real-time Memory Report at c_bands before calling an iterative solver
           130 MiB given to the printing process from OS
            90 MiB allocation reported by mallinfo(arena+hblkhd)
        486189 MiB available memory on the node where the printing process lives
------------------
     ethr =  3.27E-07,  avg # of iterations =  3.9

     negative rho (up, down):  6.600E-02 6.598E-02

     total cpu time spent up to now is      141.2 secs

     total energy              =    -735.81734214 Ry
     estimated scf accuracy    <       0.00724065 Ry

     total magnetization       =     1.24 Bohr mag/cell
     absolute magnetization    =     3.15 Bohr mag/cell

     iteration # 50     ecut=    65.00 Ry     beta= 0.40
     Davidson diagonalization with overlap

---- Real-time Memory Report at c_bands before calling an iterative solver
           130 MiB given to the printing process from OS
            90 MiB allocation reported by mallinfo(arena+hblkhd)
        486188 MiB available memory on the node where the printing process lives
------------------
     ethr =  3.27E-07,  avg # of iterations =  5.0

     negative rho (up, down):  6.600E-02 6.598E-02

     total cpu time spent up to now is      144.5 secs

     total energy              =    -735.80903358 Ry
     estimated scf accuracy    <       0.00179127 Ry

     total magnetization       =     2.28 Bohr mag/cell
     absolute magnetization    =     2.39 Bohr mag/cell

     iteration # 51     ecut=    65.00 Ry     beta= 0.40
     Davidson diagonalization with overlap

---- Real-time Memory Report at c_bands before calling an iterative solver
           130 MiB given to the printing process from OS
            90 MiB allocation reported by mallinfo(arena+hblkhd)
        486188 MiB available memory on the node where the printing process lives
------------------
     ethr =  3.27E-07,  avg # of iterations =  5.8

     negative rho (up, down):  6.600E-02 6.598E-02

     total cpu time spent up to now is      148.2 secs

     total energy              =    -735.82145050 Ry
     estimated scf accuracy    <       0.00039580 Ry

     total magnetization       =     3.41 Bohr mag/cell
     absolute magnetization    =     3.50 Bohr mag/cell

     iteration # 52     ecut=    65.00 Ry     beta= 0.40
     Davidson diagonalization with overlap

---- Real-time Memory Report at c_bands before calling an iterative solver
           130 MiB given to the printing process from OS
            90 MiB allocation reported by mallinfo(arena+hblkhd)
        486187 MiB available memory on the node where the printing process lives
------------------
     ethr =  3.27E-07,  avg # of iterations =  2.7

     negative rho (up, down):  6.600E-02 6.598E-02

     total cpu time spent up to now is      150.8 secs

     total energy              =    -735.82146279 Ry
     estimated scf accuracy    <       0.00044095 Ry

     total magnetization       =     3.60 Bohr mag/cell
     absolute magnetization    =     3.68 Bohr mag/cell

     iteration # 53     ecut=    65.00 Ry     beta= 0.40
     Davidson diagonalization with overlap

---- Real-time Memory Report at c_bands before calling an iterative solver
           130 MiB given to the printing process from OS
            90 MiB allocation reported by mallinfo(arena+hblkhd)
        486188 MiB available memory on the node where the printing process lives
------------------
     ethr =  3.27E-07,  avg # of iterations =  4.1

     negative rho (up, down):  6.599E-02 6.598E-02

     total cpu time spent up to now is      153.7 secs

     total energy              =    -735.81813924 Ry
     estimated scf accuracy    <       0.00042782 Ry

     total magnetization       =     3.12 Bohr mag/cell
     absolute magnetization    =     3.20 Bohr mag/cell

     iteration # 54     ecut=    65.00 Ry     beta= 0.40
     Davidson diagonalization with overlap

---- Real-time Memory Report at c_bands before calling an iterative solver
           130 MiB given to the printing process from OS
            90 MiB allocation reported by mallinfo(arena+hblkhd)
        486188 MiB available memory on the node where the printing process lives
------------------
     ethr =  3.27E-07,  avg # of iterations =  4.2

     negative rho (up, down):  6.599E-02 6.599E-02

     total cpu time spent up to now is      156.8 secs

     total energy              =    -735.81746232 Ry
     estimated scf accuracy    <       0.00040726 Ry

     total magnetization       =     3.64 Bohr mag/cell
     absolute magnetization    =     3.73 Bohr mag/cell

     iteration # 55     ecut=    65.00 Ry     beta= 0.40
     Davidson diagonalization with overlap

---- Real-time Memory Report at c_bands before calling an iterative solver
           130 MiB given to the printing process from OS
            90 MiB allocation reported by mallinfo(arena+hblkhd)
        486188 MiB available memory on the node where the printing process lives
------------------
     ethr =  3.27E-07,  avg # of iterations =  4.2

     negative rho (up, down):  6.599E-02 6.599E-02

     total cpu time spent up to now is      159.8 secs

     total energy              =    -735.81772581 Ry
     estimated scf accuracy    <       0.00072540 Ry

     total magnetization       =     3.99 Bohr mag/cell
     absolute magnetization    =     4.08 Bohr mag/cell

     iteration # 56     ecut=    65.00 Ry     beta= 0.40
     Davidson diagonalization with overlap

---- Real-time Memory Report at c_bands before calling an iterative solver
           130 MiB given to the printing process from OS
            90 MiB allocation reported by mallinfo(arena+hblkhd)
        486188 MiB available memory on the node where the printing process lives
------------------
     ethr =  3.27E-07,  avg # of iterations =  2.2

     negative rho (up, down):  6.599E-02 6.599E-02

     total cpu time spent up to now is      162.3 secs

[...]
            90 MiB allocation reported by mallinfo(arena+hblkhd)
        486183 MiB available memory on the node where the printing process lives
------------------
     ethr =  3.27E-07,  avg # of iterations =  4.1

     negative rho (up, down):  6.601E-02 6.597E-02

     total cpu time spent up to now is      231.6 secs

     total energy              =    -735.83141228 Ry
     estimated scf accuracy    <       0.00202178 Ry

     total magnetization       =     2.20 Bohr mag/cell
     absolute magnetization    =     2.33 Bohr mag/cell

     iteration # 81     ecut=    65.00 Ry     beta= 0.40
     Davidson diagonalization with overlap

---- Real-time Memory Report at c_bands before calling an iterative solver
           130 MiB given to the printing process from OS
            90 MiB allocation reported by mallinfo(arena+hblkhd)
        486183 MiB available memory on the node where the printing process lives
------------------
     ethr =  3.27E-07,  avg # of iterations =  3.9

     negative rho (up, down):  6.599E-02 6.598E-02

     total cpu time spent up to now is      234.4 secs

     total energy              =    -735.78625819 Ry
     estimated scf accuracy    <       0.00343398 Ry

     total magnetization       =     1.82 Bohr mag/cell
     absolute magnetization    =     2.62 Bohr mag/cell

     iteration # 82     ecut=    65.00 Ry     beta= 0.40
     Davidson diagonalization with overlap

---- Real-time Memory Report at c_bands before calling an iterative solver
           130 MiB given to the printing process from OS
            90 MiB allocation reported by mallinfo(arena+hblkhd)
        486183 MiB available memory on the node where the printing process lives
------------------
     ethr =  3.27E-07,  avg # of iterations =  5.9

     negative rho (up, down):  6.599E-02 6.598E-02

     total cpu time spent up to now is      238.2 secs

     total energy              =    -735.82076594 Ry
     estimated scf accuracy    <       0.00040930 Ry

     total magnetization       =     3.60 Bohr mag/cell
     absolute magnetization    =     3.69 Bohr mag/cell

     iteration # 83     ecut=    65.00 Ry     beta= 0.40
     Davidson diagonalization with overlap

---- Real-time Memory Report at c_bands before calling an iterative solver
           130 MiB given to the printing process from OS
            90 MiB allocation reported by mallinfo(arena+hblkhd)
        486183 MiB available memory on the node where the printing process lives
------------------
     ethr =  3.27E-07,  avg # of iterations =  2.4

     negative rho (up, down):  6.599E-02 6.599E-02

     total cpu time spent up to now is      240.7 secs

     total energy              =    -735.81557698 Ry
     estimated scf accuracy    <       0.00049290 Ry

     total magnetization       =     3.75 Bohr mag/cell
     absolute magnetization    =     3.83 Bohr mag/cell

     iteration # 84     ecut=    65.00 Ry     beta= 0.40
     Davidson diagonalization with overlap

---- Real-time Memory Report at c_bands before calling an iterative solver
           130 MiB given to the printing process from OS
            90 MiB allocation reported by mallinfo(arena+hblkhd)
        486183 MiB available memory on the node where the printing process lives
------------------
     ethr =  3.27E-07,  avg # of iterations =  4.2

     negative rho (up, down):  6.598E-02 6.599E-02

     total cpu time spent up to now is      243.8 secs

     total energy              =    -735.79681233 Ry
     estimated scf accuracy    <       0.00104493 Ry

     total magnetization       =     4.13 Bohr mag/cell
     absolute magnetization    =     4.22 Bohr mag/cell

     iteration # 85     ecut=    65.00 Ry     beta= 0.40
     Davidson diagonalization with overlap

---- Real-time Memory Report at c_bands before calling an iterative solver
           130 MiB given to the printing process from OS
            90 MiB allocation reported by mallinfo(arena+hblkhd)
        486183 MiB available memory on the node where the printing process lives
------------------
     ethr =  3.27E-07,  avg # of iterations =  5.9

     negative rho (up, down):  6.597E-02 6.600E-02

     total cpu time spent up to now is      247.7 secs

     total energy              =    -735.79297804 Ry
     estimated scf accuracy    <       0.00502124 Ry

     total magnetization       =     4.75 Bohr mag/cell
     absolute magnetization    =     4.88 Bohr mag/cell

     iteration # 86     ecut=    65.00 Ry     beta= 0.40
     Davidson diagonalization with overlap

---- Real-time Memory Report at c_bands before calling an iterative solver
           130 MiB given to the printing process from OS
            90 MiB allocation reported by mallinfo(arena+hblkhd)
        486183 MiB available memory on the node where the printing process lives
------------------
     ethr =  3.27E-07,  avg # of iterations =  4.1

     negative rho (up, down):  6.597E-02 6.600E-02

     total cpu time spent up to now is      250.7 secs

     total energy              =    -735.75863879 Ry
     estimated scf accuracy    <       0.00886348 Ry

     total magnetization       =     4.92 Bohr mag/cell
     absolute magnetization    =     5.07 Bohr mag/cell

     iteration # 87     ecut=    65.00 Ry     beta= 0.40
     Davidson diagonalization with overlap

---- Real-time Memory Report at c_bands before calling an iterative solver
           130 MiB given to the printing process from OS
            90 MiB allocation reported by mallinfo(arena+hblkhd)
        486186 MiB available memory on the node where the printing process lives
------------------
     ethr =  3.27E-07,  avg # of iterations =  5.5

     negative rho (up, down):  6.595E-02 8.762E-02

     total cpu time spent up to now is      254.6 secs

     total energy              =    -735.58118884 Ry
     estimated scf accuracy    <       0.01943013 Ry

     total magnetization       =     5.00 Bohr mag/cell
     absolute magnetization    =     5.20 Bohr mag/cell

     iteration # 88     ecut=    65.00 Ry     beta= 0.40
     Davidson diagonalization with overlap

---- Real-time Memory Report at c_bands before calling an iterative solver
           130 MiB given to the printing process from OS
            90 MiB allocation reported by mallinfo(arena+hblkhd)
        486186 MiB available memory on the node where the printing process lives
------------------
     ethr =  3.27E-07,  avg # of iterations =  8.7

     negative rho (up, down):  6.596E-02 6.609E-02

     total cpu time spent up to now is      259.7 secs

     total energy              =    -735.68858838 Ry
     estimated scf accuracy    <       0.08037031 Ry

     total magnetization       =     4.96 Bohr mag/cell
     absolute magnetization    =     5.36 Bohr mag/cell

     iteration # 89     ecut=    65.00 Ry     beta= 0.40
     Davidson diagonalization with overlap

---- Real-time Memory Report at c_bands before calling an iterative solver
           130 MiB given to the printing process from OS
            90 MiB allocation reported by mallinfo(arena+hblkhd)
        486187 MiB available memory on the node where the printing process lives
------------------
     ethr =  3.27E-07,  avg # of iterations =  5.8

     negative rho (up, down):  6.597E-02 6.601E-02

     total cpu time spent up to now is      263.7 secs

     total energy              =    -735.75025618 Ry
     estimated scf accuracy    <       0.04338799 Ry

     total magnetization       =     5.00 Bohr mag/cell
     absolute magnetization    =     5.29 Bohr mag/cell

     iteration # 90     ecut=    65.00 Ry     beta= 0.40
     Davidson diagonalization with overlap

---- Real-time Memory Report at c_bands before calling an iterative solver
           130 MiB given to the printing process from OS
            90 MiB allocation reported by mallinfo(arena+hblkhd)
        486190 MiB available memory on the node where the printing process lives
------------------
     ethr =  3.27E-07,  avg # of iterations =  5.5

     negative rho (up, down):  6.601E-02 6.596E-02

     total cpu time spent up to now is      267.6 secs

     total energy              =    -735.72219727 Ry
     estimated scf accuracy    <       0.02212824 Ry

     total magnetization       =     5.00 Bohr mag/cell
     absolute magnetization    =     5.22 Bohr mag/cell

     iteration # 91     ecut=    65.00 Ry     beta= 0.40
     Davidson diagonalization with overlap

---- Real-time Memory Report at c_bands before calling an iterative solver
           130 MiB given to the printing process from OS
            90 MiB allocation reported by mallinfo(arena+hblkhd)
        486190 MiB available memory on the node where the printing process lives
------------------
     ethr =  3.27E-07,  avg # of iterations = 10.0

     negative rho (up, down):  6.601E-02 6.596E-02

     total cpu time spent up to now is      273.3 secs

     total energy              =    -735.83025505 Ry
     estimated scf accuracy    <       0.00183405 Ry

     total magnetization       =     2.30 Bohr mag/cell
     absolute magnetization    =     2.42 Bohr mag/cell

     iteration # 92     ecut=    65.00 Ry     beta= 0.40
     Davidson diagonalization with overlap

---- Real-time Memory Report at c_bands before calling an iterative solver
           130 MiB given to the printing process from OS
            90 MiB allocation reported by mallinfo(arena+hblkhd)
        486190 MiB available memory on the node where the printing process lives
------------------
     ethr =  3.27E-07,  avg # of iterations =  3.3

     negative rho (up, down):  6.599E-02 6.598E-02

     total cpu time spent up to now is      276.0 secs

     total energy              =    -735.77976245 Ry
     estimated scf accuracy    <       0.00289493 Ry

     total magnetization       =     2.00 Bohr mag/cell
     absolute magnetization    =     2.48 Bohr mag/cell

     iteration # 93     ecut=    65.00 Ry     beta= 0.40
     Davidson diagonalization with overlap

---- Real-time Memory Report at c_bands before calling an iterative solver
           130 MiB given to the printing process from OS
            90 MiB allocation reported by mallinfo(arena+hblkhd)
        486190 MiB available memory on the node where the printing process lives
------------------
     ethr =  3.27E-07,  avg # of iterations =  5.9

     negative rho (up, down):  6.600E-02 6.598E-02

     total cpu time spent up to now is      280.0 secs

     total energy              =    -735.82095686 Ry
     estimated scf accuracy    <       0.00054069 Ry

     total magnetization       =     3.83 Bohr mag/cell
     absolute magnetization    =     3.92 Bohr mag/cell

     iteration # 94     ecut=    65.00 Ry     beta= 0.40
     Davidson diagonalization with overlap

---- Real-time Memory Report at c_bands before calling an iterative solver
           130 MiB given to the printing process from OS
            90 MiB allocation reported by mallinfo(arena+hblkhd)
        486190 MiB available memory on the node where the printing process lives
------------------
     ethr =  3.27E-07,  avg # of iterations =  3.7

     negative rho (up, down):  6.601E-02 6.597E-02

     total cpu time spent up to now is      282.8 secs

     total energy              =    -735.81631526 Ry
     estimated scf accuracy    <       0.00034736 Ry

     total magnetization       =     3.52 Bohr mag/cell
     absolute magnetization    =     3.60 Bohr mag/cell

     iteration # 95     ecut=    65.00 Ry     beta= 0.40
     Davidson diagonalization with overlap

---- Real-time Memory Report at c_bands before calling an iterative solver
           130 MiB given to the printing process from OS
            90 MiB allocation reported by mallinfo(arena+hblkhd)
        486198 MiB available memory on the node where the printing process lives
------------------
     ethr =  3.27E-07,  avg # of iterations =  5.6

     negative rho (up, down):  6.599E-02 6.598E-02

     total cpu time spent up to now is      286.3 secs

     total energy              =    -735.79768534 Ry
     estimated scf accuracy    <       0.00126193 Ry

     total magnetization       =     2.44 Bohr mag/cell
     absolute magnetization    =     2.54 Bohr mag/cell

     iteration # 96     ecut=    65.00 Ry     beta= 0.40
     Davidson diagonalization with overlap

---- Real-time Memory Report at c_bands before calling an iterative solver
           130 MiB given to the printing process from OS
            90 MiB allocation reported by mallinfo(arena+hblkhd)
        486198 MiB available memory on the node where the printing process lives
------------------
     ethr =  3.27E-07,  avg # of iterations =  5.9

     negative rho (up, down):  6.599E-02 6.598E-02

     total cpu time spent up to now is      290.1 secs

     total energy              =    -735.82058677 Ry
     estimated scf accuracy    <       0.00053453 Ry

     total magnetization       =     3.81 Bohr mag/cell
     absolute magnetization    =     3.89 Bohr mag/cell

     iteration # 97     ecut=    65.00 Ry     beta= 0.40
     Davidson diagonalization with overlap

---- Real-time Memory Report at c_bands before calling an iterative solver
           130 MiB given to the printing process from OS
            90 MiB allocation reported by mallinfo(arena+hblkhd)
        486199 MiB available memory on the node where the printing process lives
------------------
     ethr =  3.27E-07,  avg # of iterations =  1.1

     negative rho (up, down):  6.600E-02 6.598E-02

     total cpu time spent up to now is      292.3 secs

     total energy              =    -735.82103506 Ry
     estimated scf accuracy    <       0.00054832 Ry

     total magnetization       =     3.82 Bohr mag/cell
     absolute magnetization    =     3.91 Bohr mag/cell

     iteration # 98     ecut=    65.00 Ry     beta= 0.40
     Davidson diagonalization with overlap

---- Real-time Memory Report at c_bands before calling an iterative solver
           130 MiB given to the printing process from OS
            90 MiB allocation reported by mallinfo(arena+hblkhd)
        486199 MiB available memory on the node where the printing process lives
------------------
     ethr =  3.27E-07,  avg # of iterations =  1.7

     negative rho (up, down):  6.599E-02 6.599E-02

     total cpu time spent up to now is      294.5 secs

     total energy              =    -735.81569852 Ry
     estimated scf accuracy    <       0.00045742 Ry

     total magnetization       =     3.74 Bohr mag/cell
     absolute magnetization    =     3.82 Bohr mag/cell

     iteration # 99     ecut=    65.00 Ry     beta= 0.40
     Davidson diagonalization with overlap

---- Real-time Memory Report at c_bands before calling an iterative solver
           130 MiB given to the printing process from OS
            90 MiB allocation reported by mallinfo(arena+hblkhd)
        486201 MiB available memory on the node where the printing process lives
------------------
     ethr =  3.27E-07,  avg # of iterations =  3.9

     negative rho (up, down):  6.599E-02 6.598E-02

     total cpu time spent up to now is      297.5 secs

     total energy              =    -735.81924130 Ry
     estimated scf accuracy    <       0.00103556 Ry

     total magnetization       =     4.12 Bohr mag/cell
     absolute magnetization    =     4.21 Bohr mag/cell

     iteration #100     ecut=    65.00 Ry     beta= 0.40
     Davidson diagonalization with overlap

---- Real-time Memory Report at c_bands before calling an iterative solver
           130 MiB given to the printing process from OS
            90 MiB allocation reported by mallinfo(arena+hblkhd)
        486201 MiB available memory on the node where the printing process lives
------------------
     ethr =  3.27E-07,  avg # of iterations =  3.0

     negative rho (up, down):  6.600E-02 6.598E-02

     total cpu time spent up to now is      300.1 secs

     total energy              =    -735.81787499 Ry
     estimated scf accuracy    <       0.00064254 Ry

     total magnetization       =     3.92 Bohr mag/cell
     absolute magnetization    =     4.00 Bohr mag/cell

     End of self-consistent calculation

     convergence NOT achieved after 100 iterations: stopping

     Writing config to output data dir ./out/aiida.save/ :
     XML data file, charge density

     init_run     :      2.61s CPU      2.78s WALL (       1 calls)
     electrons    :    281.63s CPU    296.99s WALL (       1 calls)

     Called by init_run:
     wfcinit      :      0.92s CPU      0.98s WALL (       1 calls)
     wfcinit:atom :      0.01s CPU      0.01s WALL (      14 calls)
     wfcinit:wfcr :      0.84s CPU      0.90s WALL (      14 calls)
     potinit      :      0.66s CPU      0.69s WALL (       1 calls)
     hinit0       :      0.88s CPU      0.94s WALL (       1 calls)

     Called by electrons:
     c_bands      :    212.14s CPU    224.36s WALL (     100 calls)
     sum_band     :     39.94s CPU     42.40s WALL (     100 calls)
     v_of_rho     :     16.99s CPU     17.35s WALL (     101 calls)
     v_h          :      0.65s CPU      0.67s WALL (     101 calls)
     v_xc         :     16.34s CPU     16.67s WALL (     101 calls)
     newd         :      5.81s CPU      5.86s WALL (     101 calls)
     PAW_pot      :      2.72s CPU      2.72s WALL (     101 calls)
     mix_rho      :      1.66s CPU      1.71s WALL (     100 calls)

     Called by c_bands:
     init_us_2    :      2.40s CPU      2.49s WALL (    2814 calls)
     init_us_2:cp :      2.39s CPU      2.48s WALL (    2814 calls)
     cegterg      :    192.84s CPU    204.22s WALL (    1400 calls)

     Called by sum_band:
     sum_band:wei :      0.14s CPU      0.14s WALL (     100 calls)
     sum_band:loo :     28.50s CPU     30.62s WALL (     100 calls)
     sum_band:buf :      0.53s CPU      0.55s WALL (    1400 calls)
     sum_band:ini :      1.03s CPU      1.05s WALL (    1400 calls)
     sum_band:cal :      3.00s CPU      3.08s WALL (    1400 calls)
     sum_band:bec :      0.07s CPU      0.07s WALL (    1400 calls)
     addusdens    :      9.18s CPU      9.25s WALL (     100 calls)
                                        0.00s GPU  (     100 calls)
     addusd:skk   :      0.02s CPU      0.02s WALL (     300 calls)
                                        0.00s GPU  (     300 calls)

     Called by *egterg:
     cdiaghg      :     20.75s CPU     20.80s WALL (    6724 calls)
     cegterg:over :      8.61s CPU      8.71s WALL (    5324 calls)
     cegterg:upda :      5.43s CPU      5.48s WALL (    5324 calls)
     cegterg:last :     10.24s CPU     10.25s WALL (    3054 calls)
     h_psi        :    136.70s CPU    147.68s WALL (    6738 calls)
     s_psi        :      6.89s CPU      7.02s WALL (    6738 calls)
     g_psi        :      0.35s CPU      0.36s WALL (    5324 calls)

     Called by h_psi:
     h_psi:calbec :     11.18s CPU     11.45s WALL (    6738 calls)
     vloc_psi     :    117.08s CPU    127.65s WALL (    6738 calls)
     add_vuspsi   :      7.37s CPU      7.47s WALL (    6738 calls)

     General routines
     calbec       :     14.15s CPU     14.50s WALL (    8138 calls)
     fft          :      6.42s CPU      6.92s WALL (    2523 calls)
     ffts         :      0.75s CPU      0.77s WALL (     402 calls)
     fftw         :    109.01s CPU    120.08s WALL (  465552 calls)
     interpolate  :      1.17s CPU      1.23s WALL (     202 calls)
     davcio       :      0.00s CPU      0.03s WALL (      32 calls)

     Parallel routines

     PAW routines
     PAW_pot      :      2.72s CPU      2.72s WALL (     101 calls)
     PAW_symme    :      0.04s CPU      0.04s WALL (     201 calls)

     PWSCF        :   4m44.59s CPU   5m 0.76s WALL


   This run was terminated on:  22:30:46  19Dec2023            

=------------------------------------------------------------------------------=
   JOB DONE.
=------------------------------------------------------------------------------=
