
     Program PWSCF v.7.2 starts on 28Nov2023 at 21:44:33 
        Git branch: develop
        Last git commit: 9055681be6fc8200e6fffe76ed5fda34c2696339
        Last git commit date: Wed Nov 8 16:29:39 2023 +0000
        Last git commit subject: Merge branch 'calbec_fix' into 'develop'

     This program is part of the open-source Quantum ESPRESSO suite
     for quantum simulation of materials; please cite
         "P. Giannozzi et al., J. Phys.:Condens. Matter 21 395502 (2009);
         "P. Giannozzi et al., J. Phys.:Condens. Matter 29 465901 (2017);
         "P. Giannozzi et al., J. Chem. Phys. 152 154105 (2020);
          URL http://www.quantum-espresso.org", 
     in publications or presentations arising from this work. More details at
     http://www.quantum-espresso.org/quote

     Parallel version (MPI), running on    56 processors

     MPI processes distributed on     1 nodes
     491550 MiB available memory on the printing compute node when the environment starts

     Reading input from aiida.in

     Current dimensions of program PWSCF are:
     Max number of different atomic species (ntypx) = 10
     Max number of k-points (npk) =  40000
     Max angular momentum in pseudopotentials (lmaxx) =  4
     file O.pbesol-n-kjpaw_psl.0.1.UPF: wavefunction(s)  2P renormalized
     Message from routine setup:
     using ibrav=0 with symmetry is DISCOURAGED, use correct ibrav instead

     K-points division:     npool     =       8
     R & G space division:  proc/nbgrp/npool/nimage =       7
     Subspace diagonalization in iterative solution of the eigenvalue problem:
     a serial algorithm will be used


     Parallelization info
     --------------------
     sticks:   dense  smooth     PW     G-vecs:    dense   smooth      PW
     Min         879     293     83                45504     8761    1338
     Max         880     294     84                45507     8765    1342
     Sum        6157    2053    583               318539    61335    9377

     Using Slab Decomposition



     bravais-lattice index     =            0
     lattice parameter (alat)  =      10.6974  a.u.
     unit-cell volume          =     865.6020 (a.u.)^3
     number of atoms/cell      =           10
     number of atomic types    =            4
     number of electrons       =        85.00
     number of Kohn-Sham states=           52
     kinetic-energy cutoff     =      65.0000  Ry
     charge density cutoff     =     780.0000  Ry
     scf convergence threshold =      2.0E-09
     mixing beta               =       0.4000
     number of iterations used =            8  plain     mixing
     Exchange-correlation= SLA  PW   PSX  PSC
                           (   1   4  10   8   0   0   0)

     celldm(1)=  10.697388  celldm(2)=   0.000000  celldm(3)=   0.000000
     celldm(4)=   0.000000  celldm(5)=   0.000000  celldm(6)=   0.000000

     crystal axes: (cart. coord. in units of alat)
               a(1) = (   0.000000   0.707107   0.707107 )  
               a(2) = (   0.707107   0.000000   0.707107 )  
               a(3) = (   0.707107   0.707107   0.000000 )  

     reciprocal axes: (cart. coord. in units 2 pi/alat)
               b(1) = ( -0.707107  0.707107  0.707107 )  
               b(2) = (  0.707107 -0.707107  0.707107 )  
               b(3) = (  0.707107  0.707107 -0.707107 )  


     PseudoPot. # 1 for Mn read from file:
     ./pseudo/mn_pbesol_v1.5.uspp.F.UPF
     MD5 check sum: 0716d5f563e6e95a34f9080f4c78c109
     Pseudo is Ultrasoft + core correction, Zval = 15.0
     Generated by new atomic code, or converted to UPF format
     Using radial grid of  859 points,  6 beta functions with: 
                l(1) =   0
                l(2) =   0
                l(3) =   1
                l(4) =   1
                l(5) =   2
                l(6) =   2
     Q(r) pseudized with  8 coefficients,  rinner =    0.950   0.950   0.950
                                                       0.950   0.950

     PseudoPot. # 2 for Mo read from file:
     ./pseudo/Mo_ONCV_PBEsol-1.0.upf
     MD5 check sum: 5193ba6a20874d27c2ef80314d1b3445
     Pseudo is Norm-conserving, Zval = 14.0
     Generated using ONCVPSP code by D. R. Hamann
     Using radial grid of 1508 points,  6 beta functions with: 
                l(1) =   0
                l(2) =   0
                l(3) =   1
                l(4) =   1
                l(5) =   2
                l(6) =   2

     PseudoPot. # 3 for O  read from file:
     ./pseudo/O.pbesol-n-kjpaw_psl.0.1.UPF
     MD5 check sum: 81d73d1479e654e5638b0319f0d6c2c7
     Pseudo is Projector augmented-wave + core cor, Zval =  6.0
     Generated using "atomic" code by A. Dal Corso  v.6.0 svn rev. 13079
     Shape of augmentation charge: BESSEL
     Using radial grid of 1095 points,  4 beta functions with: 
                l(1) =   0
                l(2) =   0
                l(3) =   1
                l(4) =   1
     Q(r) pseudized with 0 coefficients 


     PseudoPot. # 4 for Sr read from file:
     ./pseudo/sr_pbesol_v1.uspp.F.UPF
     MD5 check sum: 635bff1625df5273dba4129a01ed8c82
     Pseudo is Ultrasoft + core correction, Zval = 10.0
     Generated by new atomic code, or converted to UPF format
     Using radial grid of  883 points,  6 beta functions with: 
                l(1) =   0
                l(2) =   0
                l(3) =   1
                l(4) =   1
                l(5) =   2
                l(6) =   2
     Q(r) pseudized with  6 coefficients,  rinner =    1.400   1.400   1.400
                                                       1.400   1.400

     atomic species   valence    mass     pseudopotential
     Mn               15.00    54.93805     Mn( 1.00)
     Mo               14.00    95.96000     Mo( 1.00)
     O                 6.00    15.99940     O ( 1.00)
     Sr               10.00    87.62000     Sr( 1.00)

     Starting magnetic structure 
     atomic species   magnetization
     Mn              0.333
     Mo              0.357
     O               0.100
     Sr              0.100

     48 Sym. Ops., with inversion, found


                                    s                        frac. trans.

      isym =  1     identity                                     

 cryst.   s( 1) = (     1          0          0      )
                  (     0          1          0      )
                  (     0          0          1      )

 cart.    s( 1) = (  1.0000000 -0.0000000  0.0000000 )
                  ( -0.0000000  1.0000000  0.0000000 )
                  ( -0.0000000  0.0000000  1.0000000 )


      isym =  2     180 deg rotation - cart. axis [0,0,1]        

 cryst.   s( 2) = (     0          1         -1      )
                  (     1          0         -1      )
                  (     0          0         -1      )

 cart.    s( 2) = ( -1.0000000  0.0000000  0.0000000 )
                  (  0.0000000 -1.0000000  0.0000000 )
                  (  0.0000000 -0.0000000  1.0000000 )


      isym =  3     180 deg rotation - cart. axis [0,1,0]        

 cryst.   s( 3) = (     0         -1          1      )
                  (     0         -1          0      )
                  (     1         -1          0      )

 cart.    s( 3) = ( -1.0000000 -0.0000000 -0.0000000 )
                  (  0.0000000  1.0000000 -0.0000000 )
                  (  0.0000000  0.0000000 -1.0000000 )


      isym =  4     180 deg rotation - cart. axis [1,0,0]        

 cryst.   s( 4) = (    -1          0          0      )
                  (    -1          0          1      )
                  (    -1          1          0      )

 cart.    s( 4) = (  1.0000000  0.0000000 -0.0000000 )
                  ( -0.0000000 -1.0000000 -0.0000000 )
                  ( -0.0000000 -0.0000000 -1.0000000 )


      isym =  5     180 deg rotation - cart. axis [1,1,0]        

 cryst.   s( 5) = (    -1          0          1      )
                  (     0         -1          1      )
                  (     0          0          1      )

 cart.    s( 5) = ( -0.0000000  1.0000000 -0.0000000 )
                  (  1.0000000 -0.0000000 -0.0000000 )
                  (  0.0000000 -0.0000000 -1.0000000 )


      isym =  6     180 deg rotation - cart. axis [1,-1,0]       

 cryst.   s( 6) = (     0         -1          0      )
                  (    -1          0          0      )
                  (     0          0         -1      )

 cart.    s( 6) = (  0.0000000 -1.0000000 -0.0000000 )
                  ( -1.0000000  0.0000000 -0.0000000 )
                  ( -0.0000000  0.0000000 -1.0000000 )


      isym =  7      90 deg rotation - cart. axis [0,0,-1]       

 cryst.   s( 7) = (     0          1          0      )
                  (     0          1         -1      )
                  (    -1          1          0      )

 cart.    s( 7) = (  0.0000000  1.0000000  0.0000000 )
                  ( -1.0000000 -0.0000000  0.0000000 )
                  ( -0.0000000 -0.0000000  1.0000000 )


      isym =  8      90 deg rotation - cart. axis [0,0,1]        

 cryst.   s( 8) = (     1          0         -1      )
                  (     1          0          0      )
                  (     1         -1          0      )

 cart.    s( 8) = ( -0.0000000 -1.0000000  0.0000000 )
                  (  1.0000000  0.0000000  0.0000000 )
                  (  0.0000000  0.0000000  1.0000000 )


      isym =  9     180 deg rotation - cart. axis [1,0,1]        

 cryst.   s( 9) = (    -1          1          0      )
                  (     0          1          0      )
                  (     0          1         -1      )

 cart.    s( 9) = (  0.0000000  0.0000000  1.0000000 )
                  (  0.0000000 -1.0000000 -0.0000000 )
                  (  1.0000000 -0.0000000 -0.0000000 )


      isym = 10     180 deg rotation - cart. axis [-1,0,1]       

 cryst.   s(10) = (     0          0         -1      )
                  (     0         -1          0      )
                  (    -1          0          0      )

 cart.    s(10) = ( -0.0000000  0.0000000 -1.0000000 )
                  ( -0.0000000 -1.0000000  0.0000000 )
                  ( -1.0000000 -0.0000000  0.0000000 )


      isym = 11      90 deg rotation - cart. axis [0,1,0]        

 cryst.   s(11) = (     0          0          1      )
                  (    -1          0          1      )
                  (     0         -1          1      )

 cart.    s(11) = ( -0.0000000 -0.0000000  1.0000000 )
                  ( -0.0000000  1.0000000 -0.0000000 )
                  ( -1.0000000  0.0000000 -0.0000000 )


      isym = 12      90 deg rotation - cart. axis [0,-1,0]       

 cryst.   s(12) = (     1         -1          0      )
                  (     1          0         -1      )
                  (     1          0          0      )

 cart.    s(12) = (  0.0000000 -0.0000000 -1.0000000 )
                  (  0.0000000  1.0000000  0.0000000 )
                  (  1.0000000  0.0000000  0.0000000 )


      isym = 13     180 deg rotation - cart. axis [0,1,1]        

 cryst.   s(13) = (     1          0          0      )
                  (     1         -1          0      )
                  (     1          0         -1      )

 cart.    s(13) = ( -1.0000000  0.0000000 -0.0000000 )
                  (  0.0000000  0.0000000  1.0000000 )
                  (  0.0000000  1.0000000  0.0000000 )


      isym = 14     180 deg rotation - cart. axis [0,1,-1]       

 cryst.   s(14) = (    -1          0          0      )
                  (     0          0         -1      )
                  (     0         -1          0      )

 cart.    s(14) = ( -1.0000000 -0.0000000  0.0000000 )
                  (  0.0000000 -0.0000000 -1.0000000 )
                  (  0.0000000 -1.0000000 -0.0000000 )


      isym = 15      90 deg rotation - cart. axis [-1,0,0]       

 cryst.   s(15) = (     0         -1          1      )
                  (     0          0          1      )
                  (    -1          0          1      )

 cart.    s(15) = (  1.0000000 -0.0000000 -0.0000000 )
                  ( -0.0000000 -0.0000000  1.0000000 )
                  ( -0.0000000 -1.0000000  0.0000000 )


      isym = 16      90 deg rotation - cart. axis [1,0,0]        

 cryst.   s(16) = (     0          1         -1      )
                  (    -1          1          0      )
                  (     0          1          0      )

 cart.    s(16) = (  1.0000000  0.0000000  0.0000000 )
                  ( -0.0000000  0.0000000 -1.0000000 )
                  ( -0.0000000  1.0000000 -0.0000000 )


      isym = 17     120 deg rotation - cart. axis [-1,-1,-1]     

 cryst.   s(17) = (     0          0          1      )
                  (     1          0          0      )
                  (     0          1          0      )

 cart.    s(17) = (  0.0000000  1.0000000 -0.0000000 )
                  (  0.0000000 -0.0000000  1.0000000 )
                  (  1.0000000 -0.0000000  0.0000000 )


      isym = 18     120 deg rotation - cart. axis [-1,1,1]       

 cryst.   s(18) = (     1         -1          0      )
                  (     0         -1          1      )
                  (     0         -1          0      )

 cart.    s(18) = ( -0.0000000 -1.0000000 -0.0000000 )
                  ( -0.0000000  0.0000000  1.0000000 )
                  ( -1.0000000  0.0000000  0.0000000 )


      isym = 19     120 deg rotation - cart. axis [1,1,-1]       

 cryst.   s(19) = (    -1          1          0      )
                  (    -1          0          0      )
                  (    -1          0          1      )

 cart.    s(19) = ( -0.0000000  1.0000000  0.0000000 )
                  ( -0.0000000 -0.0000000 -1.0000000 )
                  ( -1.0000000 -0.0000000 -0.0000000 )


      isym = 20     120 deg rotation - cart. axis [1,-1,1]       

 cryst.   s(20) = (     0          0         -1      )
                  (     0          1         -1      )
                  (     1          0         -1      )

 cart.    s(20) = (  0.0000000 -1.0000000  0.0000000 )
                  (  0.0000000  0.0000000 -1.0000000 )
                  (  1.0000000  0.0000000 -0.0000000 )


      isym = 21     120 deg rotation - cart. axis [1,1,1]        

 cryst.   s(21) = (     0          1          0      )
                  (     0          0          1      )
                  (     1          0          0      )

 cart.    s(21) = ( -0.0000000  0.0000000  1.0000000 )
                  (  1.0000000  0.0000000 -0.0000000 )
                  (  0.0000000  1.0000000 -0.0000000 )


      isym = 22     120 deg rotation - cart. axis [-1,1,-1]      

 cryst.   s(22) = (    -1          0          1      )
                  (    -1          1          0      )
                  (    -1          0          0      )

 cart.    s(22) = (  0.0000000 -0.0000000  1.0000000 )
                  ( -1.0000000 -0.0000000 -0.0000000 )
                  ( -0.0000000 -1.0000000 -0.0000000 )


      isym = 23     120 deg rotation - cart. axis [1,-1,-1]      

 cryst.   s(23) = (     1          0         -1      )
                  (     0          0         -1      )
                  (     0          1         -1      )

 cart.    s(23) = (  0.0000000  0.0000000 -1.0000000 )
                  ( -1.0000000  0.0000000  0.0000000 )
                  ( -0.0000000  1.0000000  0.0000000 )


      isym = 24     120 deg rotation - cart. axis [-1,-1,1]      

 cryst.   s(24) = (     0         -1          0      )
                  (     1         -1          0      )
                  (     0         -1          1      )

 cart.    s(24) = ( -0.0000000 -0.0000000 -1.0000000 )
                  (  1.0000000 -0.0000000  0.0000000 )
                  (  0.0000000 -1.0000000  0.0000000 )


      isym = 25     inversion                                    

 cryst.   s(25) = (    -1          0          0      )
                  (     0         -1          0      )
                  (     0          0         -1      )

 cart.    s(25) = ( -1.0000000  0.0000000 -0.0000000 )
                  (  0.0000000 -1.0000000 -0.0000000 )
                  (  0.0000000 -0.0000000 -1.0000000 )


      isym = 26     inv. 180 deg rotation - cart. axis [0,0,1]   

 cryst.   s(26) = (     0         -1          1      )
                  (    -1          0          1      )
                  (     0          0          1      )

 cart.    s(26) = (  1.0000000 -0.0000000 -0.0000000 )
                  ( -0.0000000  1.0000000 -0.0000000 )
                  ( -0.0000000  0.0000000 -1.0000000 )


      isym = 27     inv. 180 deg rotation - cart. axis [0,1,0]   

 cryst.   s(27) = (     0          1         -1      )
                  (     0          1          0      )
                  (    -1          1          0      )

 cart.    s(27) = (  1.0000000  0.0000000  0.0000000 )
                  ( -0.0000000 -1.0000000  0.0000000 )
                  ( -0.0000000 -0.0000000  1.0000000 )


      isym = 28     inv. 180 deg rotation - cart. axis [1,0,0]   

 cryst.   s(28) = (     1          0          0      )
                  (     1          0         -1      )
                  (     1         -1          0      )

 cart.    s(28) = ( -1.0000000 -0.0000000  0.0000000 )
                  (  0.0000000  1.0000000  0.0000000 )
                  (  0.0000000  0.0000000  1.0000000 )


      isym = 29     inv. 180 deg rotation - cart. axis [1,1,0]   

 cryst.   s(29) = (     1          0         -1      )
                  (     0          1         -1      )
                  (     0          0         -1      )

 cart.    s(29) = (  0.0000000 -1.0000000  0.0000000 )
                  ( -1.0000000  0.0000000  0.0000000 )
                  ( -0.0000000  0.0000000  1.0000000 )


      isym = 30     inv. 180 deg rotation - cart. axis [1,-1,0]  

 cryst.   s(30) = (     0          1          0      )
                  (     1          0          0      )
                  (     0          0          1      )

 cart.    s(30) = ( -0.0000000  1.0000000  0.0000000 )
                  (  1.0000000 -0.0000000  0.0000000 )
                  (  0.0000000 -0.0000000  1.0000000 )


      isym = 31     inv.  90 deg rotation - cart. axis [0,0,-1]  

 cryst.   s(31) = (     0         -1          0      )
                  (     0         -1          1      )
                  (     1         -1          0      )

 cart.    s(31) = ( -0.0000000 -1.0000000 -0.0000000 )
                  (  1.0000000  0.0000000 -0.0000000 )
                  (  0.0000000  0.0000000 -1.0000000 )


      isym = 32     inv.  90 deg rotation - cart. axis [0,0,1]   

 cryst.   s(32) = (    -1          0          1      )
                  (    -1          0          0      )
                  (    -1          1          0      )

 cart.    s(32) = (  0.0000000  1.0000000 -0.0000000 )
                  ( -1.0000000 -0.0000000 -0.0000000 )
                  ( -0.0000000 -0.0000000 -1.0000000 )


      isym = 33     inv. 180 deg rotation - cart. axis [1,0,1]   

 cryst.   s(33) = (     1         -1          0      )
                  (     0         -1          0      )
                  (     0         -1          1      )

 cart.    s(33) = ( -0.0000000 -0.0000000 -1.0000000 )
                  ( -0.0000000  1.0000000  0.0000000 )
                  ( -1.0000000  0.0000000  0.0000000 )


      isym = 34     inv. 180 deg rotation - cart. axis [-1,0,1]  

 cryst.   s(34) = (     0          0          1      )
                  (     0          1          0      )
                  (     1          0          0      )

 cart.    s(34) = (  0.0000000 -0.0000000  1.0000000 )
                  (  0.0000000  1.0000000 -0.0000000 )
                  (  1.0000000  0.0000000 -0.0000000 )


      isym = 35     inv.  90 deg rotation - cart. axis [0,1,0]   

 cryst.   s(35) = (     0          0         -1      )
                  (     1          0         -1      )
                  (     0          1         -1      )

 cart.    s(35) = (  0.0000000  0.0000000 -1.0000000 )
                  (  0.0000000 -1.0000000  0.0000000 )
                  (  1.0000000 -0.0000000  0.0000000 )


      isym = 36     inv.  90 deg rotation - cart. axis [0,-1,0]  

 cryst.   s(36) = (    -1          1          0      )
                  (    -1          0          1      )
                  (    -1          0          0      )

 cart.    s(36) = ( -0.0000000  0.0000000  1.0000000 )
                  ( -0.0000000 -1.0000000 -0.0000000 )
                  ( -1.0000000 -0.0000000 -0.0000000 )


      isym = 37     inv. 180 deg rotation - cart. axis [0,1,1]   

 cryst.   s(37) = (    -1          0          0      )
                  (    -1          1          0      )
                  (    -1          0          1      )

 cart.    s(37) = (  1.0000000 -0.0000000  0.0000000 )
                  ( -0.0000000 -0.0000000 -1.0000000 )
                  ( -0.0000000 -1.0000000 -0.0000000 )


      isym = 38     inv. 180 deg rotation - cart. axis [0,1,-1]  

 cryst.   s(38) = (     1          0          0      )
                  (     0          0          1      )
                  (     0          1          0      )

 cart.    s(38) = (  1.0000000  0.0000000 -0.0000000 )
                  ( -0.0000000  0.0000000  1.0000000 )
                  ( -0.0000000  1.0000000  0.0000000 )


      isym = 39     inv.  90 deg rotation - cart. axis [-1,0,0]  

 cryst.   s(39) = (     0          1         -1      )
                  (     0          0         -1      )
                  (     1          0         -1      )

 cart.    s(39) = ( -1.0000000  0.0000000  0.0000000 )
                  (  0.0000000  0.0000000 -1.0000000 )
                  (  0.0000000  1.0000000 -0.0000000 )


      isym = 40     inv.  90 deg rotation - cart. axis [1,0,0]   

 cryst.   s(40) = (     0         -1          1      )
                  (     1         -1          0      )
                  (     0         -1          0      )

 cart.    s(40) = ( -1.0000000 -0.0000000 -0.0000000 )
                  (  0.0000000 -0.0000000  1.0000000 )
                  (  0.0000000 -1.0000000  0.0000000 )


      isym = 41     inv. 120 deg rotation - cart. axis [-1,-1,-1]

 cryst.   s(41) = (     0          0         -1      )
                  (    -1          0          0      )
                  (     0         -1          0      )

 cart.    s(41) = ( -0.0000000 -1.0000000  0.0000000 )
                  ( -0.0000000  0.0000000 -1.0000000 )
                  ( -1.0000000  0.0000000 -0.0000000 )


      isym = 42     inv. 120 deg rotation - cart. axis [-1,1,1]  

 cryst.   s(42) = (    -1          1          0      )
                  (     0          1         -1      )
                  (     0          1          0      )

 cart.    s(42) = (  0.0000000  1.0000000  0.0000000 )
                  (  0.0000000 -0.0000000 -1.0000000 )
                  (  1.0000000 -0.0000000 -0.0000000 )


      isym = 43     inv. 120 deg rotation - cart. axis [1,1,-1]  

 cryst.   s(43) = (     1         -1          0      )
                  (     1          0          0      )
                  (     1          0         -1      )

 cart.    s(43) = (  0.0000000 -1.0000000 -0.0000000 )
                  (  0.0000000  0.0000000  1.0000000 )
                  (  1.0000000  0.0000000  0.0000000 )


      isym = 44     inv. 120 deg rotation - cart. axis [1,-1,1]  

 cryst.   s(44) = (     0          0          1      )
                  (     0         -1          1      )
                  (    -1          0          1      )

 cart.    s(44) = ( -0.0000000  1.0000000 -0.0000000 )
                  ( -0.0000000 -0.0000000  1.0000000 )
                  ( -1.0000000 -0.0000000  0.0000000 )


      isym = 45     inv. 120 deg rotation - cart. axis [1,1,1]   

 cryst.   s(45) = (     0         -1          0      )
                  (     0          0         -1      )
                  (    -1          0          0      )

 cart.    s(45) = (  0.0000000 -0.0000000 -1.0000000 )
                  ( -1.0000000 -0.0000000  0.0000000 )
                  ( -0.0000000 -1.0000000  0.0000000 )


      isym = 46     inv. 120 deg rotation - cart. axis [-1,1,-1] 

 cryst.   s(46) = (     1          0         -1      )
                  (     1         -1          0      )
                  (     1          0          0      )

 cart.    s(46) = ( -0.0000000  0.0000000 -1.0000000 )
                  (  1.0000000  0.0000000  0.0000000 )
                  (  0.0000000  1.0000000  0.0000000 )


      isym = 47     inv. 120 deg rotation - cart. axis [1,-1,-1] 

 cryst.   s(47) = (    -1          0          1      )
                  (     0          0          1      )
                  (     0         -1          1      )

 cart.    s(47) = ( -0.0000000 -0.0000000  1.0000000 )
                  (  1.0000000 -0.0000000 -0.0000000 )
                  (  0.0000000 -1.0000000 -0.0000000 )


      isym = 48     inv. 120 deg rotation - cart. axis [-1,-1,1] 

 cryst.   s(48) = (     0          1          0      )
                  (    -1          1          0      )
                  (     0          1         -1      )

 cart.    s(48) = (  0.0000000  0.0000000  1.0000000 )
                  ( -1.0000000  0.0000000 -0.0000000 )
                  ( -0.0000000  1.0000000 -0.0000000 )


   Cartesian axes

     site n.     atom                  positions (alat units)
         1        Sr     tau(   1) = (   0.3535534   0.3535534   1.0606602  )
         2        Sr     tau(   2) = (   0.3535534   1.0606602   1.0606602  )
         3        Mn     tau(   3) = (   0.0000000   0.0000000   0.0000000  )
         4        Mo     tau(   4) = (   0.7071068   0.0000000   0.0000000  )
         5        O      tau(   5) = (   1.1087434   0.0000000   0.0000000  )
         6        O      tau(   6) = (   0.7071068   0.4016367  -0.0000000  )
         7        O      tau(   7) = (  -0.0000000  -0.0000000   1.1087434  )
         8        O      tau(   8) = (   0.7071068   0.0000000   1.0125769  )
         9        O      tau(   9) = (   0.7071068   1.0125769   0.0000000  )
        10        O      tau(  10) = (   0.3054701  -0.0000000  -0.0000000  )

   Crystallographic axes

     site n.     atom                  positions (cryst. coord.)
         1        Sr     tau(   1) = (  0.7500000  0.7500000 -0.2500000  )
         2        Sr     tau(   2) = (  1.2500000  0.2500000  0.2500000  )
         3        Mn     tau(   3) = (  0.0000000  0.0000000  0.0000000  )
         4        Mo     tau(   4) = ( -0.5000000  0.5000000  0.5000000  )
         5        O      tau(   5) = ( -0.7840000  0.7840000  0.7840000  )
         6        O      tau(   6) = ( -0.2160000  0.2160000  0.7840000  )
         7        O      tau(   7) = (  0.7840000  0.7840000 -0.7840000  )
         8        O      tau(   8) = (  0.2160000  1.2160000 -0.2160000  )
         9        O      tau(   9) = (  0.2160000 -0.2160000  1.2160000  )
        10        O      tau(  10) = ( -0.2160000  0.2160000  0.2160000  )

     number of k points=    47  Marzari-Vanderbilt smearing, width (Ry)=  0.0200
                       cart. coord. in units 2pi/alat
        k(    1) = (   0.0000000   0.0000000   0.0000000), wk =   0.0010000
        k(    2) = (   0.0707107   0.0707107  -0.0707107), wk =   0.0080000
        k(    3) = (   0.1414214   0.1414214  -0.1414214), wk =   0.0080000
        k(    4) = (   0.2121320   0.2121320  -0.2121320), wk =   0.0080000
        k(    5) = (   0.2828427   0.2828427  -0.2828427), wk =   0.0080000
        k(    6) = (  -0.3535534  -0.3535534   0.3535534), wk =   0.0040000
        k(    7) = (   0.1414214  -0.0000000   0.0000000), wk =   0.0060000
        k(    8) = (   0.2121320   0.0707107  -0.0707107), wk =   0.0240000
        k(    9) = (   0.2828427   0.1414214  -0.1414214), wk =   0.0240000
        k(   10) = (   0.3535534   0.2121320  -0.2121320), wk =   0.0240000
        k(   11) = (  -0.2828427  -0.4242641   0.4242641), wk =   0.0240000
        k(   12) = (  -0.2121320  -0.3535534   0.3535534), wk =   0.0240000
        k(   13) = (  -0.1414214  -0.2828427   0.2828427), wk =   0.0240000
        k(   14) = (  -0.0707107  -0.2121320   0.2121320), wk =   0.0240000
        k(   15) = (   0.0000000  -0.1414214   0.1414214), wk =   0.0120000
        k(   16) = (   0.2828427  -0.0000000   0.0000000), wk =   0.0060000
        k(   17) = (   0.3535534   0.0707107  -0.0707107), wk =   0.0240000
        k(   18) = (   0.4242641   0.1414214  -0.1414214), wk =   0.0240000
        k(   19) = (  -0.2121320  -0.4949747   0.4949747), wk =   0.0240000
        k(   20) = (  -0.1414214  -0.4242641   0.4242641), wk =   0.0240000
        k(   21) = (  -0.0707107  -0.3535534   0.3535534), wk =   0.0240000
        k(   22) = (   0.0000000  -0.2828427   0.2828427), wk =   0.0120000
        k(   23) = (   0.4242641   0.0000000  -0.0000000), wk =   0.0060000
        k(   24) = (   0.4949747   0.0707107  -0.0707107), wk =   0.0240000
        k(   25) = (  -0.1414214  -0.5656854   0.5656854), wk =   0.0240000
        k(   26) = (  -0.0707107  -0.4949747   0.4949747), wk =   0.0240000
        k(   27) = (  -0.0000000  -0.4242641   0.4242641), wk =   0.0120000
        k(   28) = (   0.5656854  -0.0000000   0.0000000), wk =   0.0060000
        k(   29) = (  -0.0707107  -0.6363961   0.6363961), wk =   0.0240000
        k(   30) = (   0.0000000  -0.5656854   0.5656854), wk =   0.0120000
        k(   31) = (  -0.7071068   0.0000000   0.0000000), wk =   0.0030000
        k(   32) = (   0.2828427   0.1414214   0.0000000), wk =   0.0240000
        k(   33) = (   0.3535534   0.2121320  -0.0707107), wk =   0.0480000
        k(   34) = (  -0.2828427  -0.4242641   0.5656854), wk =   0.0480000
        k(   35) = (  -0.2121320  -0.3535534   0.4949747), wk =   0.0240000
        k(   36) = (   0.4242641   0.1414214  -0.0000000), wk =   0.0240000
        k(   37) = (  -0.2121320  -0.4949747   0.6363961), wk =   0.0480000
        k(   38) = (  -0.1414214  -0.4242641   0.5656854), wk =   0.0480000
        k(   39) = (  -0.0707107  -0.3535534   0.4949747), wk =   0.0480000
        k(   40) = (   0.0000000  -0.2828427   0.4242641), wk =   0.0240000
        k(   41) = (  -0.1414214  -0.5656854   0.7071068), wk =   0.0240000
        k(   42) = (  -0.0707107  -0.4949747   0.6363961), wk =   0.0480000
        k(   43) = (   0.0000000  -0.4242641   0.5656854), wk =   0.0240000
        k(   44) = (  -0.7071068   0.1414214   0.0000000), wk =   0.0120000
        k(   45) = (  -0.1414214  -0.4242641   0.7071068), wk =   0.0240000
        k(   46) = (  -0.0707107  -0.3535534   0.6363961), wk =   0.0240000
        k(   47) = (  -0.7071068   0.2828427   0.0000000), wk =   0.0120000

                       cryst. coord.
        k(    1) = (   0.0000000   0.0000000   0.0000000), wk =   0.0010000
        k(    2) = (  -0.0000000  -0.0000000   0.1000000), wk =   0.0080000
        k(    3) = (  -0.0000000  -0.0000000   0.2000000), wk =   0.0080000
        k(    4) = (   0.0000000   0.0000000   0.3000000), wk =   0.0080000
        k(    5) = (  -0.0000000  -0.0000000   0.4000000), wk =   0.0080000
        k(    6) = (  -0.0000000  -0.0000000  -0.5000000), wk =   0.0040000
        k(    7) = (  -0.0000000   0.1000000   0.1000000), wk =   0.0060000
        k(    8) = (  -0.0000000   0.1000000   0.2000000), wk =   0.0240000
        k(    9) = (  -0.0000000   0.1000000   0.3000000), wk =   0.0240000
        k(   10) = (  -0.0000000   0.1000000   0.4000000), wk =   0.0240000
        k(   11) = (   0.0000000   0.1000000  -0.5000000), wk =   0.0240000
        k(   12) = (  -0.0000000   0.1000000  -0.4000000), wk =   0.0240000
        k(   13) = (   0.0000000   0.1000000  -0.3000000), wk =   0.0240000
        k(   14) = (  -0.0000000   0.1000000  -0.2000000), wk =   0.0240000
        k(   15) = (   0.0000000   0.1000000  -0.1000000), wk =   0.0120000
        k(   16) = (  -0.0000000   0.2000000   0.2000000), wk =   0.0060000
        k(   17) = (   0.0000000   0.2000000   0.3000000), wk =   0.0240000
        k(   18) = (  -0.0000000   0.2000000   0.4000000), wk =   0.0240000
        k(   19) = (   0.0000000   0.2000000  -0.5000000), wk =   0.0240000
        k(   20) = (   0.0000000   0.2000000  -0.4000000), wk =   0.0240000
        k(   21) = (   0.0000000   0.2000000  -0.3000000), wk =   0.0240000
        k(   22) = (   0.0000000   0.2000000  -0.2000000), wk =   0.0120000
        k(   23) = (   0.0000000   0.3000000   0.3000000), wk =   0.0060000
        k(   24) = (  -0.0000000   0.3000000   0.4000000), wk =   0.0240000
        k(   25) = (   0.0000000   0.3000000  -0.5000000), wk =   0.0240000
        k(   26) = (   0.0000000   0.3000000  -0.4000000), wk =   0.0240000
        k(   27) = (   0.0000000   0.3000000  -0.3000000), wk =   0.0120000
        k(   28) = (  -0.0000000   0.4000000   0.4000000), wk =   0.0060000
        k(   29) = (   0.0000000   0.4000000  -0.5000000), wk =   0.0240000
        k(   30) = (   0.0000000   0.4000000  -0.4000000), wk =   0.0120000
        k(   31) = (   0.0000000  -0.5000000  -0.5000000), wk =   0.0030000
        k(   32) = (   0.1000000   0.2000000   0.3000000), wk =   0.0240000
        k(   33) = (   0.1000000   0.2000000   0.4000000), wk =   0.0480000
        k(   34) = (   0.1000000   0.2000000  -0.5000000), wk =   0.0480000
        k(   35) = (   0.1000000   0.2000000  -0.4000000), wk =   0.0240000
        k(   36) = (   0.1000000   0.3000000   0.4000000), wk =   0.0240000
        k(   37) = (   0.1000000   0.3000000  -0.5000000), wk =   0.0480000
        k(   38) = (   0.1000000   0.3000000  -0.4000000), wk =   0.0480000
        k(   39) = (   0.1000000   0.3000000  -0.3000000), wk =   0.0480000
        k(   40) = (   0.1000000   0.3000000  -0.2000000), wk =   0.0240000
        k(   41) = (   0.1000000   0.4000000  -0.5000000), wk =   0.0240000
        k(   42) = (   0.1000000   0.4000000  -0.4000000), wk =   0.0480000
        k(   43) = (   0.1000000   0.4000000  -0.3000000), wk =   0.0240000
        k(   44) = (   0.1000000  -0.5000000  -0.4000000), wk =   0.0120000
        k(   45) = (   0.2000000   0.4000000  -0.4000000), wk =   0.0240000
        k(   46) = (   0.2000000   0.4000000  -0.3000000), wk =   0.0240000
        k(   47) = (   0.2000000  -0.5000000  -0.3000000), wk =   0.0120000

     Dense  grid:   318539 G-vectors     FFT dimensions: (  96,  96,  96)

     Smooth grid:    61335 G-vectors     FFT dimensions: (  60,  60,  60)

     Dynamical RAM for                 wfc:       0.87 MB

     Dynamical RAM for     wfc (w. buffer):      11.28 MB

     Dynamical RAM for           str. fact:       2.78 MB

     Dynamical RAM for           local pot:       0.00 MB

     Dynamical RAM for          nlocal pot:       2.00 MB

     Dynamical RAM for                qrad:       8.96 MB

     Dynamical RAM for          rho,v,vnew:      10.07 MB

     Dynamical RAM for               rhoin:       3.36 MB

     Dynamical RAM for            rho*nmix:      22.22 MB

     Dynamical RAM for           G-vectors:       2.67 MB

     Dynamical RAM for          h,s,v(r/c):       0.50 MB

     Dynamical RAM for          <psi|beta>:       0.10 MB

     Dynamical RAM for                 psi:       1.74 MB

     Dynamical RAM for                hpsi:       1.74 MB

     Dynamical RAM for                spsi:       1.74 MB

     Dynamical RAM for      wfcinit/wfcrot:       2.56 MB

     Dynamical RAM for           addusdens:      17.97 MB

     Dynamical RAM for          addusforce:      18.27 MB

     Dynamical RAM for         addusstress:      18.18 MB

     Estimated static dynamical RAM per process >      50.50 MB

     Estimated max dynamical RAM per process >      91.00 MB

     Estimated total dynamical RAM >       3.91 GB

     Check: negative core charge=   -0.000004
     Generating pointlists ...
     new r_m :   0.1260 (alat units)  1.3479 (a.u.) for type    1
     new r_m :   0.1657 (alat units)  1.7723 (a.u.) for type    2
     new r_m :   0.1260 (alat units)  1.3479 (a.u.) for type    3
     new r_m :   0.2072 (alat units)  2.2165 (a.u.) for type    4

     Initial potential from superposition of free atoms

     starting charge      84.4375, renormalised to      85.0000

     negative rho (up, down):  7.030E-02 5.761E-02
     Starting wfcs are   73 randomized atomic wfcs
     Checking if some PAW data can be deallocated... 
       PAW data deallocated on   24 nodes for type:  3

     total cpu time spent up to now is        3.3 secs

     per-process dynamical memory:    71.9 Mb

     Self-consistent Calculation

     iteration #  1     ecut=    65.00 Ry     beta= 0.40
     Davidson diagonalization with overlap

---- Real-time Memory Report at c_bands before calling an iterative solver
           103 MiB given to the printing process from OS
            70 MiB allocation reported by mallinfo(arena+hblkhd)
        487458 MiB available memory on the node where the printing process lives
------------------
     ethr =  1.00E-02,  avg # of iterations =  2.0

     negative rho (up, down):  6.784E-02 6.007E-02

     total cpu time spent up to now is        5.6 secs

     total energy              =    -734.26824497 Ry
     estimated scf accuracy    <       4.41505598 Ry

     total magnetization       =     5.00 Bohr mag/cell
     absolute magnetization    =     5.14 Bohr mag/cell

     iteration #  2     ecut=    65.00 Ry     beta= 0.40
     Davidson diagonalization with overlap

---- Real-time Memory Report at c_bands before calling an iterative solver
           128 MiB given to the printing process from OS
            94 MiB allocation reported by mallinfo(arena+hblkhd)
        486398 MiB available memory on the node where the printing process lives
------------------
     ethr =  5.19E-03,  avg # of iterations =  3.0

     negative rho (up, down):  6.754E-02 6.099E-02

     total cpu time spent up to now is        8.3 secs

     total energy              =    -734.38877706 Ry
     estimated scf accuracy    <       7.34887792 Ry

     total magnetization       =     6.27 Bohr mag/cell
     absolute magnetization    =     6.31 Bohr mag/cell

     iteration #  3     ecut=    65.00 Ry     beta= 0.40
     Davidson diagonalization with overlap

---- Real-time Memory Report at c_bands before calling an iterative solver
           130 MiB given to the printing process from OS
            95 MiB allocation reported by mallinfo(arena+hblkhd)
        486370 MiB available memory on the node where the printing process lives
------------------
     ethr =  5.19E-03,  avg # of iterations =  2.1

     negative rho (up, down):  6.710E-02 6.265E-02

     total cpu time spent up to now is       10.6 secs

     total energy              =    -735.74845284 Ry
     estimated scf accuracy    <       0.59278632 Ry

     total magnetization       =     4.98 Bohr mag/cell
     absolute magnetization    =     5.06 Bohr mag/cell

     iteration #  4     ecut=    65.00 Ry     beta= 0.40
     Davidson diagonalization with overlap

---- Real-time Memory Report at c_bands before calling an iterative solver
           131 MiB given to the printing process from OS
            95 MiB allocation reported by mallinfo(arena+hblkhd)
        486345 MiB available memory on the node where the printing process lives
------------------
     ethr =  6.97E-04,  avg # of iterations =  2.3

     negative rho (up, down):  6.694E-02 6.330E-02

     total cpu time spent up to now is       12.9 secs

     total energy              =    -735.75435199 Ry
     estimated scf accuracy    <       0.41786825 Ry

     total magnetization       =     4.90 Bohr mag/cell
     absolute magnetization    =     4.99 Bohr mag/cell

     iteration #  5     ecut=    65.00 Ry     beta= 0.40
     Davidson diagonalization with overlap

---- Real-time Memory Report at c_bands before calling an iterative solver
           132 MiB given to the printing process from OS
            96 MiB allocation reported by mallinfo(arena+hblkhd)
        486323 MiB available memory on the node where the printing process lives
------------------
     ethr =  4.92E-04,  avg # of iterations =  1.6

     negative rho (up, down):  6.630E-02 6.597E-02

     total cpu time spent up to now is       15.1 secs

     total energy              =    -735.78848907 Ry
     estimated scf accuracy    <       0.12547365 Ry

     total magnetization       =     4.82 Bohr mag/cell
     absolute magnetization    =     4.97 Bohr mag/cell

     iteration #  6     ecut=    65.00 Ry     beta= 0.40
     Davidson diagonalization with overlap

---- Real-time Memory Report at c_bands before calling an iterative solver
           133 MiB given to the printing process from OS
            97 MiB allocation reported by mallinfo(arena+hblkhd)
        486293 MiB available memory on the node where the printing process lives
------------------
     ethr =  1.48E-04,  avg # of iterations =  4.7

     negative rho (up, down):  6.621E-02 6.626E-02

     total cpu time spent up to now is       18.2 secs

     total energy              =    -735.81337747 Ry
     estimated scf accuracy    <       0.07116195 Ry

     total magnetization       =     4.27 Bohr mag/cell
     absolute magnetization    =     4.42 Bohr mag/cell

     iteration #  7     ecut=    65.00 Ry     beta= 0.40
     Davidson diagonalization with overlap

---- Real-time Memory Report at c_bands before calling an iterative solver
           134 MiB given to the printing process from OS
            97 MiB allocation reported by mallinfo(arena+hblkhd)
        486279 MiB available memory on the node where the printing process lives
------------------
     ethr =  8.37E-05,  avg # of iterations =  2.2

     negative rho (up, down):  6.615E-02 6.601E-02

     total cpu time spent up to now is       20.7 secs

     total energy              =    -735.81901350 Ry
     estimated scf accuracy    <       0.00603707 Ry

     total magnetization       =     4.14 Bohr mag/cell
     absolute magnetization    =     4.26 Bohr mag/cell

     iteration #  8     ecut=    65.00 Ry     beta= 0.40
     Davidson diagonalization with overlap

---- Real-time Memory Report at c_bands before calling an iterative solver
           135 MiB given to the printing process from OS
            98 MiB allocation reported by mallinfo(arena+hblkhd)
        486268 MiB available memory on the node where the printing process lives
------------------
     ethr =  7.10E-06,  avg # of iterations =  9.7

     negative rho (up, down):  6.609E-02 6.603E-02

     total cpu time spent up to now is       24.5 secs

     total energy              =    -735.82061891 Ry
     estimated scf accuracy    <       0.00247271 Ry

     total magnetization       =     3.97 Bohr mag/cell
     absolute magnetization    =     4.08 Bohr mag/cell

     iteration #  9     ecut=    65.00 Ry     beta= 0.40
     Davidson diagonalization with overlap

---- Real-time Memory Report at c_bands before calling an iterative solver
           136 MiB given to the printing process from OS
            98 MiB allocation reported by mallinfo(arena+hblkhd)
        486253 MiB available memory on the node where the printing process lives
------------------
     ethr =  2.91E-06,  avg # of iterations =  2.1

     negative rho (up, down):  6.598E-02 6.596E-02

     total cpu time spent up to now is       26.9 secs

     total energy              =    -735.82161961 Ry
     estimated scf accuracy    <       0.00089478 Ry

     total magnetization       =     3.84 Bohr mag/cell
     absolute magnetization    =     3.94 Bohr mag/cell

     iteration # 10     ecut=    65.00 Ry     beta= 0.40
     Davidson diagonalization with overlap

---- Real-time Memory Report at c_bands before calling an iterative solver
           136 MiB given to the printing process from OS
            99 MiB allocation reported by mallinfo(arena+hblkhd)
        486240 MiB available memory on the node where the printing process lives
------------------
     ethr =  1.05E-06,  avg # of iterations =  4.1

     negative rho (up, down):  6.587E-02 6.591E-02

     total cpu time spent up to now is       30.1 secs

     total energy              =    -735.82046117 Ry
     estimated scf accuracy    <       0.00398810 Ry

     total magnetization       =     3.59 Bohr mag/cell
     absolute magnetization    =     3.69 Bohr mag/cell

     iteration # 11     ecut=    65.00 Ry     beta= 0.40
     Davidson diagonalization with overlap

---- Real-time Memory Report at c_bands before calling an iterative solver
           137 MiB given to the printing process from OS
            99 MiB allocation reported by mallinfo(arena+hblkhd)
        486231 MiB available memory on the node where the printing process lives
------------------
     ethr =  1.05E-06,  avg # of iterations =  4.9

     negative rho (up, down):  6.584E-02 6.590E-02

     total cpu time spent up to now is       33.4 secs

     total energy              =    -735.82450199 Ry
     estimated scf accuracy    <       0.00319673 Ry

     total magnetization       =     3.00 Bohr mag/cell
     absolute magnetization    =     3.08 Bohr mag/cell

     iteration # 12     ecut=    65.00 Ry     beta= 0.40
     Davidson diagonalization with overlap

---- Real-time Memory Report at c_bands before calling an iterative solver
           137 MiB given to the printing process from OS
            99 MiB allocation reported by mallinfo(arena+hblkhd)
        486225 MiB available memory on the node where the printing process lives
------------------
     ethr =  1.05E-06,  avg # of iterations =  1.2

     negative rho (up, down):  6.584E-02 6.590E-02

     total cpu time spent up to now is       35.6 secs

     total energy              =    -735.82529035 Ry
     estimated scf accuracy    <       0.00694894 Ry

     total magnetization       =     3.05 Bohr mag/cell
     absolute magnetization    =     3.13 Bohr mag/cell

     iteration # 13     ecut=    65.00 Ry     beta= 0.40
     Davidson diagonalization with overlap

---- Real-time Memory Report at c_bands before calling an iterative solver
           137 MiB given to the printing process from OS
            99 MiB allocation reported by mallinfo(arena+hblkhd)
        486220 MiB available memory on the node where the printing process lives
------------------
     ethr =  1.05E-06,  avg # of iterations =  2.0

     negative rho (up, down):  6.593E-02 6.593E-02

     total cpu time spent up to now is       37.8 secs

     total energy              =    -735.80059499 Ry
     estimated scf accuracy    <       0.01307334 Ry

     total magnetization       =     2.87 Bohr mag/cell
     absolute magnetization    =     2.95 Bohr mag/cell

     iteration # 14     ecut=    65.00 Ry     beta= 0.40
     Davidson diagonalization with overlap

---- Real-time Memory Report at c_bands before calling an iterative solver
           137 MiB given to the printing process from OS
            99 MiB allocation reported by mallinfo(arena+hblkhd)
        486214 MiB available memory on the node where the printing process lives
------------------
     ethr =  1.05E-06,  avg # of iterations =  4.6

     negative rho (up, down):  6.589E-02 6.594E-02

     total cpu time spent up to now is       41.0 secs

     total energy              =    -735.81965704 Ry
     estimated scf accuracy    <       0.00219369 Ry

     total magnetization       =     4.06 Bohr mag/cell
     absolute magnetization    =     4.16 Bohr mag/cell

     iteration # 15     ecut=    65.00 Ry     beta= 0.40
     Davidson diagonalization with overlap

---- Real-time Memory Report at c_bands before calling an iterative solver
           137 MiB given to the printing process from OS
            99 MiB allocation reported by mallinfo(arena+hblkhd)
        486209 MiB available memory on the node where the printing process lives
------------------
     ethr =  1.05E-06,  avg # of iterations =  2.6

     negative rho (up, down):  6.590E-02 6.596E-02

     total cpu time spent up to now is       43.5 secs

     total energy              =    -735.80254235 Ry
     estimated scf accuracy    <       0.00025621 Ry

     total magnetization       =     3.73 Bohr mag/cell
     absolute magnetization    =     3.82 Bohr mag/cell

     iteration # 16     ecut=    65.00 Ry     beta= 0.40
     Davidson diagonalization with overlap

---- Real-time Memory Report at c_bands before calling an iterative solver
           137 MiB given to the printing process from OS
            99 MiB allocation reported by mallinfo(arena+hblkhd)
        486207 MiB available memory on the node where the printing process lives
------------------
     ethr =  3.01E-07,  avg # of iterations =  5.7

     negative rho (up, down):  6.596E-02 6.593E-02

     total cpu time spent up to now is       47.1 secs

     total energy              =    -735.78769099 Ry
     estimated scf accuracy    <       0.00362274 Ry

     total magnetization       =     4.52 Bohr mag/cell
     absolute magnetization    =     4.63 Bohr mag/cell

     iteration # 17     ecut=    65.00 Ry     beta= 0.40
     Davidson diagonalization with overlap

---- Real-time Memory Report at c_bands before calling an iterative solver
           137 MiB given to the printing process from OS
            99 MiB allocation reported by mallinfo(arena+hblkhd)
        486202 MiB available memory on the node where the printing process lives
------------------
     ethr =  3.01E-07,  avg # of iterations =  6.1

     negative rho (up, down):  6.597E-02 6.593E-02

     total cpu time spent up to now is       51.2 secs

     total energy              =    -735.82724172 Ry
     estimated scf accuracy    <       0.00089841 Ry

     total magnetization       =     2.69 Bohr mag/cell
     absolute magnetization    =     2.78 Bohr mag/cell

     iteration # 18     ecut=    65.00 Ry     beta= 0.40
     Davidson diagonalization with overlap

---- Real-time Memory Report at c_bands before calling an iterative solver
           138 MiB given to the printing process from OS
            99 MiB allocation reported by mallinfo(arena+hblkhd)
        486198 MiB available memory on the node where the printing process lives
------------------
     ethr =  3.01E-07,  avg # of iterations =  4.4

     negative rho (up, down):  6.597E-02 6.596E-02

     total cpu time spent up to now is       54.0 secs

     total energy              =    -735.79684209 Ry
     estimated scf accuracy    <       0.00186532 Ry

     total magnetization       =     2.21 Bohr mag/cell
     absolute magnetization    =     2.33 Bohr mag/cell

     iteration # 19     ecut=    65.00 Ry     beta= 0.40
     Davidson diagonalization with overlap

---- Real-time Memory Report at c_bands before calling an iterative solver
           138 MiB given to the printing process from OS
            99 MiB allocation reported by mallinfo(arena+hblkhd)
        486198 MiB available memory on the node where the printing process lives
------------------
     ethr =  3.01E-07,  avg # of iterations =  5.9

     negative rho (up, down):  6.598E-02 6.598E-02

     total cpu time spent up to now is       57.6 secs

     total energy              =    -735.81137529 Ry
     estimated scf accuracy    <       0.00051243 Ry

     total magnetization       =     3.67 Bohr mag/cell
     absolute magnetization    =     3.75 Bohr mag/cell

     iteration # 20     ecut=    65.00 Ry     beta= 0.40
     Davidson diagonalization with overlap

---- Real-time Memory Report at c_bands before calling an iterative solver
           138 MiB given to the printing process from OS
            99 MiB allocation reported by mallinfo(arena+hblkhd)
        486195 MiB available memory on the node where the printing process lives
------------------
     ethr =  3.01E-07,  avg # of iterations =  4.6

     negative rho (up, down):  6.598E-02 6.599E-02

     total cpu time spent up to now is       60.8 secs

     total energy              =    -735.81658085 Ry
     estimated scf accuracy    <       0.00131317 Ry

     total magnetization       =     4.24 Bohr mag/cell
     absolute magnetization    =     4.34 Bohr mag/cell

     iteration # 21     ecut=    65.00 Ry     beta= 0.40
     Davidson diagonalization with overlap

---- Real-time Memory Report at c_bands before calling an iterative solver
           138 MiB given to the printing process from OS
            99 MiB allocation reported by mallinfo(arena+hblkhd)
        486193 MiB available memory on the node where the printing process lives
------------------
     ethr =  3.01E-07,  avg # of iterations =  1.0

     negative rho (up, down):  6.598E-02 6.599E-02

     total cpu time spent up to now is       62.9 secs

     total energy              =    -735.81580616 Ry
     estimated scf accuracy    <       0.00132807 Ry

     total magnetization       =     4.26 Bohr mag/cell
     absolute magnetization    =     4.35 Bohr mag/cell

     iteration # 22     ecut=    65.00 Ry     beta= 0.40
     Davidson diagonalization with overlap

---- Real-time Memory Report at c_bands before calling an iterative solver
           138 MiB given to the printing process from OS
            99 MiB allocation reported by mallinfo(arena+hblkhd)
        486191 MiB available memory on the node where the printing process lives
------------------
     ethr =  3.01E-07,  avg # of iterations =  1.4

     negative rho (up, down):  6.598E-02 6.599E-02

     total cpu time spent up to now is       65.1 secs

     total energy              =    -735.81439126 Ry
     estimated scf accuracy    <       0.00152208 Ry

     total magnetization       =     4.31 Bohr mag/cell
     absolute magnetization    =     4.41 Bohr mag/cell

     iteration # 23     ecut=    65.00 Ry     beta= 0.40
     Davidson diagonalization with overlap

---- Real-time Memory Report at c_bands before calling an iterative solver
           138 MiB given to the printing process from OS
            99 MiB allocation reported by mallinfo(arena+hblkhd)
        486188 MiB available memory on the node where the printing process lives
------------------
     ethr =  3.01E-07,  avg # of iterations =  2.2

     negative rho (up, down):  6.598E-02 6.598E-02

     total cpu time spent up to now is       67.5 secs

     total energy              =    -735.81686217 Ry
     estimated scf accuracy    <       0.00185679 Ry

     total magnetization       =     4.40 Bohr mag/cell
     absolute magnetization    =     4.50 Bohr mag/cell

     iteration # 24     ecut=    65.00 Ry     beta= 0.40
     Davidson diagonalization with overlap

---- Real-time Memory Report at c_bands before calling an iterative solver
           138 MiB given to the printing process from OS
            99 MiB allocation reported by mallinfo(arena+hblkhd)
        486185 MiB available memory on the node where the printing process lives
------------------
     ethr =  3.01E-07,  avg # of iterations =  3.7

     negative rho (up, down):  6.599E-02 6.598E-02

     total cpu time spent up to now is       70.3 secs

     total energy              =    -735.81912087 Ry
     estimated scf accuracy    <       0.00087325 Ry

     total magnetization       =     4.09 Bohr mag/cell
     absolute magnetization    =     4.18 Bohr mag/cell

     iteration # 25     ecut=    65.00 Ry     beta= 0.40
     Davidson diagonalization with overlap

---- Real-time Memory Report at c_bands before calling an iterative solver
           138 MiB given to the printing process from OS
            99 MiB allocation reported by mallinfo(arena+hblkhd)
        486181 MiB available memory on the node where the printing process lives
------------------
     ethr =  3.01E-07,  avg # of iterations =  4.2

     negative rho (up, down):  6.600E-02 6.598E-02

     total cpu time spent up to now is       73.2 secs

     total energy              =    -735.82104513 Ry
     estimated scf accuracy    <       0.00044338 Ry

     total magnetization       =     3.70 Bohr mag/cell
     absolute magnetization    =     3.79 Bohr mag/cell

     iteration # 26     ecut=    65.00 Ry     beta= 0.40
     Davidson diagonalization with overlap

---- Real-time Memory Report at c_bands before calling an iterative solver
           138 MiB given to the printing process from OS
            99 MiB allocation reported by mallinfo(arena+hblkhd)
        486181 MiB available memory on the node where the printing process lives
------------------
     ethr =  3.01E-07,  avg # of iterations =  4.2

     negative rho (up, down):  6.600E-02 6.597E-02

     total cpu time spent up to now is       76.1 secs

     total energy              =    -735.81849884 Ry
     estimated scf accuracy    <       0.00041948 Ry

     total magnetization       =     3.26 Bohr mag/cell
     absolute magnetization    =     3.34 Bohr mag/cell

     iteration # 27     ecut=    65.00 Ry     beta= 0.40
     Davidson diagonalization with overlap

---- Real-time Memory Report at c_bands before calling an iterative solver
           139 MiB given to the printing process from OS
            99 MiB allocation reported by mallinfo(arena+hblkhd)
        486180 MiB available memory on the node where the printing process lives
------------------
     ethr =  3.01E-07,  avg # of iterations =  5.8

     negative rho (up, down):  6.599E-02 6.598E-02

     total cpu time spent up to now is       79.6 secs

     total energy              =    -735.79940176 Ry
     estimated scf accuracy    <       0.00227920 Ry

     total magnetization       =     2.14 Bohr mag/cell
     absolute magnetization    =     2.36 Bohr mag/cell

     iteration # 28     ecut=    65.00 Ry     beta= 0.40
     Davidson diagonalization with overlap

---- Real-time Memory Report at c_bands before calling an iterative solver
           139 MiB given to the printing process from OS
            99 MiB allocation reported by mallinfo(arena+hblkhd)
        486179 MiB available memory on the node where the printing process lives
------------------
     ethr =  3.01E-07,  avg # of iterations =  5.9

     negative rho (up, down):  6.599E-02 6.598E-02

     total cpu time spent up to now is       83.1 secs

     total energy              =    -735.82080100 Ry
     estimated scf accuracy    <       0.00041347 Ry

     total magnetization       =     3.57 Bohr mag/cell
     absolute magnetization    =     3.65 Bohr mag/cell

     iteration # 29     ecut=    65.00 Ry     beta= 0.40
     Davidson diagonalization with overlap

---- Real-time Memory Report at c_bands before calling an iterative solver
           139 MiB given to the printing process from OS
            99 MiB allocation reported by mallinfo(arena+hblkhd)
        486179 MiB available memory on the node where the printing process lives
------------------
     ethr =  3.01E-07,  avg # of iterations =  2.5

     negative rho (up, down):  6.599E-02 6.599E-02

     total cpu time spent up to now is       85.6 secs

     total energy              =    -735.81472865 Ry
     estimated scf accuracy    <       0.00048535 Ry

     total magnetization       =     3.73 Bohr mag/cell
     absolute magnetization    =     3.81 Bohr mag/cell

     iteration # 30     ecut=    65.00 Ry     beta= 0.40
     Davidson diagonalization with overlap

---- Real-time Memory Report at c_bands before calling an iterative solver
           139 MiB given to the printing process from OS
            99 MiB allocation reported by mallinfo(arena+hblkhd)
        486176 MiB available memory on the node where the printing process lives
------------------
     ethr =  3.01E-07,  avg # of iterations =  4.4

     negative rho (up, down):  6.599E-02 6.599E-02

     total cpu time spent up to now is       88.6 secs

     total energy              =    -735.81413953 Ry
     estimated scf accuracy    <       0.00107260 Ry

     total magnetization       =     4.16 Bohr mag/cell
     absolute magnetization    =     4.25 Bohr mag/cell

     iteration # 31     ecut=    65.00 Ry     beta= 0.40
     Davidson diagonalization with overlap

---- Real-time Memory Report at c_bands before calling an iterative solver
           139 MiB given to the printing process from OS
            99 MiB allocation reported by mallinfo(arena+hblkhd)
        486175 MiB available memory on the node where the printing process lives
------------------
     ethr =  3.01E-07,  avg # of iterations =  3.4

     negative rho (up, down):  6.599E-02 6.599E-02

     total cpu time spent up to now is       91.3 secs

     total energy              =    -735.81690781 Ry
     estimated scf accuracy    <       0.00179346 Ry

     total magnetization       =     4.37 Bohr mag/cell
     absolute magnetization    =     4.47 Bohr mag/cell

     iteration # 32     ecut=    65.00 Ry     beta= 0.40
     Davidson diagonalization with overlap

---- Real-time Memory Report at c_bands before calling an iterative solver
           139 MiB given to the printing process from OS
            99 MiB allocation reported by mallinfo(arena+hblkhd)
        486175 MiB available memory on the node where the printing process lives
------------------
     ethr =  3.01E-07,  avg # of iterations =  3.0

     negative rho (up, down):  6.599E-02 6.599E-02

     total cpu time spent up to now is       93.9 secs

     total energy              =    -735.81683362 Ry
     estimated scf accuracy    <       0.00107694 Ry

     total magnetization       =     4.17 Bohr mag/cell
     absolute magnetization    =     4.26 Bohr mag/cell

     iteration # 33     ecut=    65.00 Ry     beta= 0.40
     Davidson diagonalization with overlap

---- Real-time Memory Report at c_bands before calling an iterative solver
           139 MiB given to the printing process from OS
            99 MiB allocation reported by mallinfo(arena+hblkhd)
        486175 MiB available memory on the node where the printing process lives
------------------
     ethr =  3.01E-07,  avg # of iterations =  1.3

     negative rho (up, down):  6.599E-02 6.599E-02

     total cpu time spent up to now is       96.1 secs

     total energy              =    -735.81708639 Ry
     estimated scf accuracy    <       0.00128010 Ry

     total magnetization       =     4.23 Bohr mag/cell
     absolute magnetization    =     4.32 Bohr mag/cell

     iteration # 34     ecut=    65.00 Ry     beta= 0.40
     Davidson diagonalization with overlap

---- Real-time Memory Report at c_bands before calling an iterative solver
           139 MiB given to the printing process from OS
            99 MiB allocation reported by mallinfo(arena+hblkhd)
        486171 MiB available memory on the node where the printing process lives
------------------
     ethr =  3.01E-07,  avg # of iterations =  1.0

     negative rho (up, down):  6.599E-02 6.599E-02

     total cpu time spent up to now is       98.2 secs

     total energy              =    -735.81738442 Ry
     estimated scf accuracy    <       0.00123075 Ry

     total magnetization       =     4.21 Bohr mag/cell
     absolute magnetization    =     4.31 Bohr mag/cell

     iteration # 35     ecut=    65.00 Ry     beta= 0.40
     Davidson diagonalization with overlap

---- Real-time Memory Report at c_bands before calling an iterative solver
           139 MiB given to the printing process from OS
            99 MiB allocation reported by mallinfo(arena+hblkhd)
        486171 MiB available memory on the node where the printing process lives
------------------
     ethr =  3.01E-07,  avg # of iterations =  1.0

     negative rho (up, down):  6.599E-02 6.599E-02

     total cpu time spent up to now is      100.2 secs

     total energy              =    -735.81744503 Ry
     estimated scf accuracy    <       0.00115863 Ry

     total magnetization       =     4.18 Bohr mag/cell
     absolute magnetization    =     4.28 Bohr mag/cell

     iteration # 36     ecut=    65.00 Ry     beta= 0.40
     Davidson diagonalization with overlap

---- Real-time Memory Report at c_bands before calling an iterative solver
           139 MiB given to the printing process from OS
            99 MiB allocation reported by mallinfo(arena+hblkhd)
        486170 MiB available memory on the node where the printing process lives
------------------
     ethr =  3.01E-07,  avg # of iterations =  1.0

     negative rho (up, down):  6.600E-02 6.598E-02

     total cpu time spent up to now is      102.3 secs

     total energy              =    -735.81034138 Ry
     estimated scf accuracy    <       0.00114645 Ry

     total magnetization       =     4.18 Bohr mag/cell
     absolute magnetization    =     4.28 Bohr mag/cell

     iteration # 37     ecut=    65.00 Ry     beta= 0.40
     Davidson diagonalization with overlap

---- Real-time Memory Report at c_bands before calling an iterative solver
           139 MiB given to the printing process from OS
            99 MiB allocation reported by mallinfo(arena+hblkhd)
        486169 MiB available memory on the node where the printing process lives
------------------
     ethr =  3.01E-07,  avg # of iterations =  5.7

     negative rho (up, down):  6.600E-02 6.597E-02

     total cpu time spent up to now is      105.9 secs

     total energy              =    -735.82365287 Ry
     estimated scf accuracy    <       0.00046981 Ry

     total magnetization       =     3.14 Bohr mag/cell
     absolute magnetization    =     3.22 Bohr mag/cell

     iteration # 38     ecut=    65.00 Ry     beta= 0.40
     Davidson diagonalization with overlap

---- Real-time Memory Report at c_bands before calling an iterative solver
           139 MiB given to the printing process from OS
            99 MiB allocation reported by mallinfo(arena+hblkhd)
        486169 MiB available memory on the node where the printing process lives
------------------
     ethr =  3.01E-07,  avg # of iterations =  4.4

     negative rho (up, down):  6.600E-02 6.598E-02

     total cpu time spent up to now is      108.8 secs

     total energy              =    -735.82523310 Ry
     estimated scf accuracy    <       0.00115923 Ry

     total magnetization       =     2.55 Bohr mag/cell
     absolute magnetization    =     2.64 Bohr mag/cell

     iteration # 39     ecut=    65.00 Ry     beta= 0.40
     Davidson diagonalization with overlap

---- Real-time Memory Report at c_bands before calling an iterative solver
           139 MiB given to the printing process from OS
            99 MiB allocation reported by mallinfo(arena+hblkhd)
        486168 MiB available memory on the node where the printing process lives
------------------
     ethr =  3.01E-07,  avg # of iterations =  2.3

     negative rho (up, down):  6.599E-02 6.599E-02

     total cpu time spent up to now is      111.2 secs

     total energy              =    -735.79594444 Ry
     estimated scf accuracy    <       0.00079769 Ry

     total magnetization       =     2.78 Bohr mag/cell
     absolute magnetization    =     2.87 Bohr mag/cell

     iteration # 40     ecut=    65.00 Ry     beta= 0.40
     Davidson diagonalization with overlap

---- Real-time Memory Report at c_bands before calling an iterative solver
           139 MiB given to the printing process from OS
            99 MiB allocation reported by mallinfo(arena+hblkhd)
        486167 MiB available memory on the node where the printing process lives
------------------
     ethr =  3.01E-07,  avg # of iterations =  5.9

     negative rho (up, down):  6.600E-02 6.598E-02

     total cpu time spent up to now is      114.9 secs

     total energy              =    -735.80182225 Ry
     estimated scf accuracy    <       0.00086894 Ry

     total magnetization       =     4.06 Bohr mag/cell
     absolute magnetization    =     4.15 Bohr mag/cell

     iteration # 41     ecut=    65.00 Ry     beta= 0.40
     Davidson diagonalization with overlap

---- Real-time Memory Report at c_bands before calling an iterative solver
           139 MiB given to the printing process from OS
            99 MiB allocation reported by mallinfo(arena+hblkhd)
        486167 MiB available memory on the node where the printing process lives
------------------
     ethr =  3.01E-07,  avg # of iterations =  6.0

     negative rho (up, down):  6.599E-02 6.598E-02

     total cpu time spent up to now is      118.6 secs

     total energy              =    -735.82500973 Ry
     estimated scf accuracy    <       0.00118058 Ry

     total magnetization       =     2.52 Bohr mag/cell
     absolute magnetization    =     2.61 Bohr mag/cell

     iteration # 42     ecut=    65.00 Ry     beta= 0.40
     Davidson diagonalization with overlap

---- Real-time Memory Report at c_bands before calling an iterative solver
           139 MiB given to the printing process from OS
            99 MiB allocation reported by mallinfo(arena+hblkhd)
        486167 MiB available memory on the node where the printing process lives
------------------
     ethr =  3.01E-07,  avg # of iterations =  2.8

     negative rho (up, down):  6.599E-02 6.599E-02

     total cpu time spent up to now is      121.1 secs

     total energy              =    -735.80807740 Ry
     estimated scf accuracy    <       0.00073337 Ry

     total magnetization       =     2.79 Bohr mag/cell
     absolute magnetization    =     2.88 Bohr mag/cell

     iteration # 43     ecut=    65.00 Ry     beta= 0.40
     Davidson diagonalization with overlap

---- Real-time Memory Report at c_bands before calling an iterative solver
           139 MiB given to the printing process from OS
            99 MiB allocation reported by mallinfo(arena+hblkhd)
        486164 MiB available memory on the node where the printing process lives
------------------
     ethr =  3.01E-07,  avg # of iterations =  5.7

     negative rho (up, down):  6.598E-02 6.599E-02

     total cpu time spent up to now is      124.6 secs

     total energy              =    -735.81672553 Ry
     estimated scf accuracy    <       0.00046103 Ry

     total magnetization       =     3.79 Bohr mag/cell
     absolute magnetization    =     3.87 Bohr mag/cell

     iteration # 44     ecut=    65.00 Ry     beta= 0.40
     Davidson diagonalization with overlap

---- Real-time Memory Report at c_bands before calling an iterative solver
           139 MiB given to the printing process from OS
            99 MiB allocation reported by mallinfo(arena+hblkhd)
        486164 MiB available memory on the node where the printing process lives
------------------
     ethr =  3.01E-07,  avg # of iterations =  4.1

     negative rho (up, down):  6.600E-02 6.597E-02

     total cpu time spent up to now is      127.4 secs

     total energy              =    -735.78844770 Ry
     estimated scf accuracy    <       0.00087168 Ry

     total magnetization       =     4.10 Bohr mag/cell
     absolute magnetization    =     4.19 Bohr mag/cell

     iteration # 45     ecut=    65.00 Ry     beta= 0.40
     Davidson diagonalization with overlap

---- Real-time Memory Report at c_bands before calling an iterative solver
           139 MiB given to the printing process from OS
            99 MiB allocation reported by mallinfo(arena+hblkhd)
        486163 MiB available memory on the node where the printing process lives
------------------
     ethr =  3.01E-07,  avg # of iterations =  6.1

     negative rho (up, down):  6.599E-02 6.599E-02

     total cpu time spent up to now is      131.4 secs

     total energy              =    -735.77458944 Ry
     estimated scf accuracy    <       0.00255523 Ry

     total magnetization       =     2.03 Bohr mag/cell
     absolute magnetization    =     2.45 Bohr mag/cell

     iteration # 46     ecut=    65.00 Ry     beta= 0.40
     Davidson diagonalization with overlap

---- Real-time Memory Report at c_bands before calling an iterative solver
           139 MiB given to the printing process from OS
            99 MiB allocation reported by mallinfo(arena+hblkhd)
        486163 MiB available memory on the node where the printing process lives
------------------
     ethr =  3.01E-07,  avg # of iterations =  6.1

     negative rho (up, down):  6.597E-02 6.600E-02

     total cpu time spent up to now is      135.3 secs

     total energy              =    -735.73337557 Ry
     estimated scf accuracy    <       0.00064785 Ry

     total magnetization       =     3.94 Bohr mag/cell
     absolute magnetization    =     4.02 Bohr mag/cell

     iteration # 47     ecut=    65.00 Ry     beta= 0.40
     Davidson diagonalization with overlap

---- Real-time Memory Report at c_bands before calling an iterative solver
           139 MiB given to the printing process from OS
            99 MiB allocation reported by mallinfo(arena+hblkhd)
        486162 MiB available memory on the node where the printing process lives
------------------
     c_bands:  1 eigenvalues not converged
     ethr =  3.01E-07,  avg # of iterations =  7.7

     negative rho (up, down):  6.597E-02 6.600E-02

     total cpu time spent up to now is      139.9 secs

     total energy              =    -735.77254244 Ry
     estimated scf accuracy    <       0.01488509 Ry

     total magnetization       =     4.99 Bohr mag/cell
     absolute magnetization    =     5.17 Bohr mag/cell

     iteration # 48     ecut=    65.00 Ry     beta= 0.40
     Davidson diagonalization with overlap

---- Real-time Memory Report at c_bands before calling an iterative solver
           139 MiB given to the printing process from OS
            99 MiB allocation reported by mallinfo(arena+hblkhd)
        486161 MiB available memory on the node where the printing process lives
------------------
     ethr =  3.01E-07,  avg # of iterations =  1.9

     negative rho (up, down):  6.596E-02 6.601E-02

     total cpu time spent up to now is      142.2 secs

     total energy              =    -735.71719445 Ry
     estimated scf accuracy    <       0.01591985 Ry

     total magnetization       =     4.99 Bohr mag/cell
     absolute magnetization    =     5.18 Bohr mag/cell

     iteration # 49     ecut=    65.00 Ry     beta= 0.40
     Davidson diagonalization with overlap

---- Real-time Memory Report at c_bands before calling an iterative solver
           139 MiB given to the printing process from OS
            99 MiB allocation reported by mallinfo(arena+hblkhd)
        486161 MiB available memory on the node where the printing process lives
------------------
     ethr =  3.01E-07,  avg # of iterations =  5.7

     negative rho (up, down):  6.597E-02 6.600E-02

     total cpu time spent up to now is      145.9 secs

     total energy              =    -735.78253303 Ry
     estimated scf accuracy    <       0.03225400 Ry

     total magnetization       =     5.00 Bohr mag/cell
     absolute magnetization    =     5.26 Bohr mag/cell

     iteration # 50     ecut=    65.00 Ry     beta= 0.40
     Davidson diagonalization with overlap

---- Real-time Memory Report at c_bands before calling an iterative solver
           139 MiB given to the printing process from OS
            99 MiB allocation reported by mallinfo(arena+hblkhd)
        486158 MiB available memory on the node where the printing process lives
------------------
     ethr =  3.01E-07,  avg # of iterations =  5.7

     negative rho (up, down):  6.598E-02 6.600E-02

     total cpu time spent up to now is      149.9 secs

     total energy              =    -735.80045365 Ry
     estimated scf accuracy    <       0.01067139 Ry

     total magnetization       =     4.96 Bohr mag/cell
     absolute magnetization    =     5.12 Bohr mag/cell

     iteration # 51     ecut=    65.00 Ry     beta= 0.40
     Davidson diagonalization with overlap

---- Real-time Memory Report at c_bands before calling an iterative solver
           139 MiB given to the printing process from OS
            99 MiB allocation reported by mallinfo(arena+hblkhd)
        486158 MiB available memory on the node where the printing process lives
------------------
     ethr =  3.01E-07,  avg # of iterations =  4.1

     negative rho (up, down):  6.598E-02 6.600E-02

     total cpu time spent up to now is      152.9 secs

     total energy              =    -735.80374767 Ry
     estimated scf accuracy    <       0.00619699 Ry

     total magnetization       =     4.84 Bohr mag/cell
     absolute magnetization    =     4.97 Bohr mag/cell

     iteration # 52     ecut=    65.00 Ry     beta= 0.40
     Davidson diagonalization with overlap

---- Real-time Memory Report at c_bands before calling an iterative solver
           139 MiB given to the printing process from OS
            99 MiB allocation reported by mallinfo(arena+hblkhd)
        486158 MiB available memory on the node where the printing process lives
------------------
     ethr =  3.01E-07,  avg # of iterations =  2.1

     negative rho (up, down):  6.598E-02 6.599E-02

     total cpu time spent up to now is      155.3 secs

     total energy              =    -735.80903810 Ry
     estimated scf accuracy    <       0.00539273 Ry

     total magnetization       =     4.80 Bohr mag/cell
     absolute magnetization    =     4.93 Bohr mag/cell

     iteration # 53     ecut=    65.00 Ry     beta= 0.40
     Davidson diagonalization with overlap

---- Real-time Memory Report at c_bands before calling an iterative solver
           139 MiB given to the printing process from OS
            99 MiB allocation reported by mallinfo(arena+hblkhd)
        486158 MiB available memory on the node where the printing process lives
------------------
     ethr =  3.01E-07,  avg # of iterations =  3.6

     negative rho (up, down):  6.598E-02 6.600E-02

     total cpu time spent up to now is      158.1 secs

     total energy              =    -735.80621755 Ry
     estimated scf accuracy    <       0.00333041 Ry

     total magnetization       =     4.62 Bohr mag/cell
     absolute magnetization    =     4.74 Bohr mag/cell

     iteration # 54     ecut=    65.00 Ry     beta= 0.40
     Davidson diagonalization with overlap

---- Real-time Memory Report at c_bands before calling an iterative solver
           139 MiB given to the printing process from OS
            99 MiB allocation reported by mallinfo(arena+hblkhd)
        486158 MiB available memory on the node where the printing process lives
------------------
     ethr =  3.01E-07,  avg # of iterations =  2.4

     negative rho (up, down):  6.600E-02 6.598E-02

     total cpu time spent up to now is      160.6 secs

     total energy              =    -735.78541332 Ry
     estimated scf accuracy    <       0.00447282 Ry

     total magnetization       =     4.73 Bohr mag/cell
     absolute magnetization    =     4.85 Bohr mag/cell

     iteration # 55     ecut=    65.00 Ry     beta= 0.40
     Davidson diagonalization with overlap

---- Real-time Memory Report at c_bands before calling an iterative solver
           139 MiB given to the printing process from OS
            99 MiB allocation reported by mallinfo(arena+hblkhd)
        486158 MiB available memory on the node where the printing process lives
------------------
     ethr =  3.01E-07,  avg # of iterations =  7.5

     negative rho (up, down):  6.600E-02 6.597E-02

     total cpu time spent up to now is      165.0 secs

     total energy              =    -735.82162878 Ry
     estimated scf accuracy    <       0.00063030 Ry

     total magnetization       =     3.00 Bohr mag/cell
     absolute magnetization    =     3.09 Bohr mag/cell

     iteration # 56     ecut=    65.00 Ry     beta= 0.40
     Davidson diagonalization with overlap

---- Real-time Memory Report at c_bands before calling an iterative solver
           139 MiB given to the printing process from OS
            99 MiB allocation reported by mallinfo(arena+hblkhd)
        486158 MiB available memory on the node where the printing process lives
------------------
     ethr =  3.01E-07,  avg # of iterations =  5.3

     negative rho (up, down):  6.599E-02 6.598E-02

[...]
------------------
     ethr =  3.01E-07,  avg # of iterations =  2.3

     negative rho (up, down):  6.600E-02 6.598E-02

     total cpu time spent up to now is     1508.5 secs

     total energy              =    -735.82133346 Ry
     estimated scf accuracy    <       0.00034566 Ry

     total magnetization       =     3.50 Bohr mag/cell
     absolute magnetization    =     3.59 Bohr mag/cell

     iteration #481     ecut=    65.00 Ry     beta= 0.40
     Davidson diagonalization with overlap

---- Real-time Memory Report at c_bands before calling an iterative solver
           141 MiB given to the printing process from OS
            99 MiB allocation reported by mallinfo(arena+hblkhd)
        486197 MiB available memory on the node where the printing process lives
------------------
     ethr =  3.01E-07,  avg # of iterations =  5.0

     negative rho (up, down):  6.601E-02 6.597E-02

     total cpu time spent up to now is     1511.6 secs

     total energy              =    -735.82576613 Ry
     estimated scf accuracy    <       0.00043517 Ry

     total magnetization       =     2.86 Bohr mag/cell
     absolute magnetization    =     2.95 Bohr mag/cell

     iteration #482     ecut=    65.00 Ry     beta= 0.40
     Davidson diagonalization with overlap

---- Real-time Memory Report at c_bands before calling an iterative solver
           141 MiB given to the printing process from OS
            99 MiB allocation reported by mallinfo(arena+hblkhd)
        486197 MiB available memory on the node where the printing process lives
------------------
     ethr =  3.01E-07,  avg # of iterations =  4.6

     negative rho (up, down):  6.600E-02 6.597E-02

     total cpu time spent up to now is     1514.7 secs

     total energy              =    -735.82407985 Ry
     estimated scf accuracy    <       0.00149778 Ry

     total magnetization       =     2.18 Bohr mag/cell
     absolute magnetization    =     2.41 Bohr mag/cell

     iteration #483     ecut=    65.00 Ry     beta= 0.40
     Davidson diagonalization with overlap

---- Real-time Memory Report at c_bands before calling an iterative solver
           141 MiB given to the printing process from OS
            99 MiB allocation reported by mallinfo(arena+hblkhd)
        486203 MiB available memory on the node where the printing process lives
------------------
     ethr =  3.01E-07,  avg # of iterations =  3.9

     negative rho (up, down):  6.596E-02 6.601E-02

     total cpu time spent up to now is     1517.4 secs

     total energy              =    -735.60912694 Ry
     estimated scf accuracy    <       0.00058998 Ry

     total magnetization       =     2.69 Bohr mag/cell
     absolute magnetization    =     2.78 Bohr mag/cell

     iteration #484     ecut=    65.00 Ry     beta= 0.40
     Davidson diagonalization with overlap

---- Real-time Memory Report at c_bands before calling an iterative solver
           141 MiB given to the printing process from OS
            99 MiB allocation reported by mallinfo(arena+hblkhd)
        486202 MiB available memory on the node where the printing process lives
------------------
     ethr =  3.01E-07,  avg # of iterations =  8.0

     negative rho (up, down):  6.603E-02 6.596E-02

     total cpu time spent up to now is     1522.3 secs

     total energy              =    -735.52103643 Ry
     estimated scf accuracy    <       0.01935775 Ry

     total magnetization       =     5.00 Bohr mag/cell
     absolute magnetization    =     5.20 Bohr mag/cell

     iteration #485     ecut=    65.00 Ry     beta= 0.40
     Davidson diagonalization with overlap

---- Real-time Memory Report at c_bands before calling an iterative solver
           141 MiB given to the printing process from OS
            99 MiB allocation reported by mallinfo(arena+hblkhd)
        486202 MiB available memory on the node where the printing process lives
------------------
     c_bands:  1 eigenvalues not converged
     c_bands:  1 eigenvalues not converged
     ethr =  3.01E-07,  avg # of iterations = 10.7

     negative rho (up, down):  6.602E-02 6.596E-02

     total cpu time spent up to now is     1528.1 secs

     total energy              =    -735.85582857 Ry
     estimated scf accuracy    <       0.06183242 Ry

     total magnetization       =     0.32 Bohr mag/cell
     absolute magnetization    =     3.92 Bohr mag/cell

     iteration #486     ecut=    65.00 Ry     beta= 0.40
     Davidson diagonalization with overlap

---- Real-time Memory Report at c_bands before calling an iterative solver
           141 MiB given to the printing process from OS
            99 MiB allocation reported by mallinfo(arena+hblkhd)
        486203 MiB available memory on the node where the printing process lives
------------------
     ethr =  3.01E-07,  avg # of iterations =  3.6

     negative rho (up, down):  6.603E-02 6.595E-02

     total cpu time spent up to now is     1530.8 secs

     total energy              =    -735.85649895 Ry
     estimated scf accuracy    <       0.02980465 Ry

     total magnetization       =     0.62 Bohr mag/cell
     absolute magnetization    =     3.78 Bohr mag/cell

     iteration #487     ecut=    65.00 Ry     beta= 0.40
     Davidson diagonalization with overlap

---- Real-time Memory Report at c_bands before calling an iterative solver
           141 MiB given to the printing process from OS
            99 MiB allocation reported by mallinfo(arena+hblkhd)
        486202 MiB available memory on the node where the printing process lives
------------------
     ethr =  3.01E-07,  avg # of iterations =  2.1

     negative rho (up, down):  6.600E-02 6.597E-02

     total cpu time spent up to now is     1533.2 secs

     total energy              =    -735.82806214 Ry
     estimated scf accuracy    <       0.02607607 Ry

     total magnetization       =     0.70 Bohr mag/cell
     absolute magnetization    =     3.79 Bohr mag/cell

     iteration #488     ecut=    65.00 Ry     beta= 0.40
     Davidson diagonalization with overlap

---- Real-time Memory Report at c_bands before calling an iterative solver
           141 MiB given to the printing process from OS
            99 MiB allocation reported by mallinfo(arena+hblkhd)
        486202 MiB available memory on the node where the printing process lives
------------------
     ethr =  3.01E-07,  avg # of iterations =  5.6

     negative rho (up, down):  6.601E-02 6.597E-02

     total cpu time spent up to now is     1536.9 secs

     total energy              =    -735.83825984 Ry
     estimated scf accuracy    <       0.00668568 Ry

     total magnetization       =     1.35 Bohr mag/cell
     absolute magnetization    =     3.07 Bohr mag/cell

     iteration #489     ecut=    65.00 Ry     beta= 0.40
     Davidson diagonalization with overlap

---- Real-time Memory Report at c_bands before calling an iterative solver
           141 MiB given to the printing process from OS
            99 MiB allocation reported by mallinfo(arena+hblkhd)
        486201 MiB available memory on the node where the printing process lives
------------------
     ethr =  3.01E-07,  avg # of iterations =  1.5

     negative rho (up, down):  6.601E-02 6.597E-02

     total cpu time spent up to now is     1539.2 secs

     total energy              =    -735.84351160 Ry
     estimated scf accuracy    <       0.00627151 Ry

     total magnetization       =     1.40 Bohr mag/cell
     absolute magnetization    =     3.01 Bohr mag/cell

     iteration #490     ecut=    65.00 Ry     beta= 0.40
     Davidson diagonalization with overlap

---- Real-time Memory Report at c_bands before calling an iterative solver
           141 MiB given to the printing process from OS
            99 MiB allocation reported by mallinfo(arena+hblkhd)
        486201 MiB available memory on the node where the printing process lives
------------------
     ethr =  3.01E-07,  avg # of iterations =  4.0

     negative rho (up, down):  6.598E-02 6.599E-02

     total cpu time spent up to now is     1541.9 secs

     total energy              =    -735.75643637 Ry
     estimated scf accuracy    <       0.00786070 Ry

     total magnetization       =     1.11 Bohr mag/cell
     absolute magnetization    =     3.36 Bohr mag/cell

     iteration #491     ecut=    65.00 Ry     beta= 0.40
     Davidson diagonalization with overlap

---- Real-time Memory Report at c_bands before calling an iterative solver
           141 MiB given to the printing process from OS
            99 MiB allocation reported by mallinfo(arena+hblkhd)
        486201 MiB available memory on the node where the printing process lives
------------------
     ethr =  3.01E-07,  avg # of iterations =  7.0

     negative rho (up, down):  6.599E-02 6.598E-02

     total cpu time spent up to now is     1546.2 secs

     total energy              =    -735.81782869 Ry
     estimated scf accuracy    <       0.00274412 Ry

     total magnetization       =     3.39 Bohr mag/cell
     absolute magnetization    =     3.47 Bohr mag/cell

     iteration #492     ecut=    65.00 Ry     beta= 0.40
     Davidson diagonalization with overlap

---- Real-time Memory Report at c_bands before calling an iterative solver
           141 MiB given to the printing process from OS
            99 MiB allocation reported by mallinfo(arena+hblkhd)
        486200 MiB available memory on the node where the printing process lives
------------------
     ethr =  3.01E-07,  avg # of iterations =  4.9

     negative rho (up, down):  6.600E-02 6.598E-02

     total cpu time spent up to now is     1549.5 secs

     total energy              =    -735.82809095 Ry
     estimated scf accuracy    <       0.00266899 Ry

     total magnetization       =     2.47 Bohr mag/cell
     absolute magnetization    =     2.56 Bohr mag/cell

     iteration #493     ecut=    65.00 Ry     beta= 0.40
     Davidson diagonalization with overlap

---- Real-time Memory Report at c_bands before calling an iterative solver
           141 MiB given to the printing process from OS
            99 MiB allocation reported by mallinfo(arena+hblkhd)
        486200 MiB available memory on the node where the printing process lives
------------------
     ethr =  3.01E-07,  avg # of iterations =  4.6

     negative rho (up, down):  6.600E-02 6.598E-02

     total cpu time spent up to now is     1552.4 secs

     total energy              =    -735.80931394 Ry
     estimated scf accuracy    <       0.00473040 Ry

     total magnetization       =     1.83 Bohr mag/cell
     absolute magnetization    =     2.53 Bohr mag/cell

     iteration #494     ecut=    65.00 Ry     beta= 0.40
     Davidson diagonalization with overlap

---- Real-time Memory Report at c_bands before calling an iterative solver
           141 MiB given to the printing process from OS
            99 MiB allocation reported by mallinfo(arena+hblkhd)
        486200 MiB available memory on the node where the printing process lives
------------------
     ethr =  3.01E-07,  avg # of iterations =  5.5

     negative rho (up, down):  6.599E-02 6.598E-02

     total cpu time spent up to now is     1555.8 secs

     total energy              =    -735.82113664 Ry
     estimated scf accuracy    <       0.00149159 Ry

     total magnetization       =     3.04 Bohr mag/cell
     absolute magnetization    =     3.12 Bohr mag/cell

     iteration #495     ecut=    65.00 Ry     beta= 0.40
     Davidson diagonalization with overlap

---- Real-time Memory Report at c_bands before calling an iterative solver
           141 MiB given to the printing process from OS
            99 MiB allocation reported by mallinfo(arena+hblkhd)
        486200 MiB available memory on the node where the printing process lives
------------------
     ethr =  3.01E-07,  avg # of iterations =  4.1

     negative rho (up, down):  6.599E-02 6.598E-02

     total cpu time spent up to now is     1558.6 secs

     total energy              =    -735.82179698 Ry
     estimated scf accuracy    <       0.00069970 Ry

     total magnetization       =     3.40 Bohr mag/cell
     absolute magnetization    =     3.48 Bohr mag/cell

     iteration #496     ecut=    65.00 Ry     beta= 0.40
     Davidson diagonalization with overlap

---- Real-time Memory Report at c_bands before calling an iterative solver
           141 MiB given to the printing process from OS
            99 MiB allocation reported by mallinfo(arena+hblkhd)
        486199 MiB available memory on the node where the printing process lives
------------------
     ethr =  3.01E-07,  avg # of iterations =  2.2

     negative rho (up, down):  6.599E-02 6.598E-02

     total cpu time spent up to now is     1561.1 secs

     total energy              =    -735.81943441 Ry
     estimated scf accuracy    <       0.00028198 Ry

     total magnetization       =     3.56 Bohr mag/cell
     absolute magnetization    =     3.64 Bohr mag/cell

     iteration #497     ecut=    65.00 Ry     beta= 0.40
     Davidson diagonalization with overlap

---- Real-time Memory Report at c_bands before calling an iterative solver
           141 MiB given to the printing process from OS
            99 MiB allocation reported by mallinfo(arena+hblkhd)
        486203 MiB available memory on the node where the printing process lives
------------------
     ethr =  3.01E-07,  avg # of iterations =  4.1

     negative rho (up, down):  6.599E-02 6.598E-02

     total cpu time spent up to now is     1563.9 secs

     total energy              =    -735.82001569 Ry
     estimated scf accuracy    <       0.00034085 Ry

     total magnetization       =     3.84 Bohr mag/cell
     absolute magnetization    =     3.93 Bohr mag/cell

     iteration #498     ecut=    65.00 Ry     beta= 0.40
     Davidson diagonalization with overlap

---- Real-time Memory Report at c_bands before calling an iterative solver
           141 MiB given to the printing process from OS
            99 MiB allocation reported by mallinfo(arena+hblkhd)
        486203 MiB available memory on the node where the printing process lives
------------------
     ethr =  3.01E-07,  avg # of iterations =  1.4

     negative rho (up, down):  6.598E-02 6.599E-02

     total cpu time spent up to now is     1566.1 secs

     total energy              =    -735.80832765 Ry
     estimated scf accuracy    <       0.00042022 Ry

     total magnetization       =     3.90 Bohr mag/cell
     absolute magnetization    =     3.99 Bohr mag/cell

     iteration #499     ecut=    65.00 Ry     beta= 0.40
     Davidson diagonalization with overlap

---- Real-time Memory Report at c_bands before calling an iterative solver
           141 MiB given to the printing process from OS
            99 MiB allocation reported by mallinfo(arena+hblkhd)
        486201 MiB available memory on the node where the printing process lives
------------------
     ethr =  3.01E-07,  avg # of iterations =  4.9

     negative rho (up, down):  6.597E-02 6.600E-02

     total cpu time spent up to now is     1569.3 secs

     total energy              =    -735.75720981 Ry
     estimated scf accuracy    <       0.00185507 Ry

     total magnetization       =     4.45 Bohr mag/cell
     absolute magnetization    =     4.55 Bohr mag/cell

     iteration #500     ecut=    65.00 Ry     beta= 0.40
     Davidson diagonalization with overlap

---- Real-time Memory Report at c_bands before calling an iterative solver
           141 MiB given to the printing process from OS
            99 MiB allocation reported by mallinfo(arena+hblkhd)
        486201 MiB available memory on the node where the printing process lives
------------------
     c_bands:  1 eigenvalues not converged
     ethr =  3.01E-07,  avg # of iterations =  7.0

     negative rho (up, down):  6.598E-02 6.599E-02

     total cpu time spent up to now is     1573.6 secs

     total energy              =    -735.80045845 Ry
     estimated scf accuracy    <       0.01546157 Ry

     total magnetization       =     4.99 Bohr mag/cell
     absolute magnetization    =     5.17 Bohr mag/cell

     End of self-consistent calculation

     convergence NOT achieved after 500 iterations: stopping

     Writing config to output data dir ./out/aiida.save/ :
     XML data file, charge density

     init_run     :      2.63s CPU      2.77s WALL (       1 calls)
     electrons    :   1503.70s CPU   1570.42s WALL (       1 calls)

     Called by init_run:
     wfcinit      :      0.87s CPU      0.92s WALL (       1 calls)
     wfcinit:atom :      0.02s CPU      0.02s WALL (      12 calls)
     wfcinit:wfcr :      0.79s CPU      0.84s WALL (      12 calls)
     potinit      :      0.69s CPU      0.73s WALL (       1 calls)
     hinit0       :      0.91s CPU      0.93s WALL (       1 calls)

     Called by electrons:
     c_bands      :   1138.72s CPU   1191.29s WALL (     500 calls)
     sum_band     :    195.82s CPU    206.79s WALL (     500 calls)
     v_of_rho     :     96.94s CPU     98.87s WALL (     501 calls)
     v_h          :      3.33s CPU      3.45s WALL (     501 calls)
     v_xc         :     93.60s CPU     95.41s WALL (     501 calls)
     newd         :     29.77s CPU     30.00s WALL (     501 calls)
     PAW_pot      :     17.89s CPU     17.90s WALL (     501 calls)
     mix_rho      :      9.26s CPU      9.56s WALL (     500 calls)

     Called by c_bands:
     init_us_2    :     12.09s CPU     12.45s WALL (   12012 calls)
     init_us_2:cp :     12.05s CPU     12.41s WALL (   12012 calls)
     cegterg      :   1025.74s CPU   1074.84s WALL (    6000 calls)

     Called by sum_band:
     sum_band:wei :      0.60s CPU      0.62s WALL (     500 calls)
     sum_band:loo :    137.58s CPU    145.35s WALL (     500 calls)
     sum_band:buf :      2.47s CPU      2.51s WALL (    6000 calls)
     sum_band:ini :      5.01s CPU      5.06s WALL (    6000 calls)
     sum_band:cal :     15.76s CPU     15.79s WALL (    6000 calls)
     sum_band:bec :      0.30s CPU      0.31s WALL (    6000 calls)
     addusdens    :     45.33s CPU     46.17s WALL (     500 calls)
                                        0.00s GPU  (     500 calls)
     addusd:skk   :      0.18s CPU      0.18s WALL (    1500 calls)
                                        0.00s GPU  (    1500 calls)

     Called by *egterg:
     cdiaghg      :    104.36s CPU    104.81s WALL (   33414 calls)
     cegterg:over :     49.95s CPU     50.56s WALL (   27414 calls)
     cegterg:upda :     31.65s CPU     31.73s WALL (   27414 calls)
     cegterg:last :     62.27s CPU     62.31s WALL (   15031 calls)
     h_psi        :    710.78s CPU    758.26s WALL (   33426 calls)
     s_psi        :     38.67s CPU     38.84s WALL (   33426 calls)
     g_psi        :      2.08s CPU      2.10s WALL (   27414 calls)

     Called by h_psi:
     h_psi:calbec :     62.14s CPU     63.08s WALL (   33426 calls)
     vloc_psi     :    602.18s CPU    647.98s WALL (   33426 calls)
     add_vuspsi   :     40.75s CPU     41.43s WALL (   33426 calls)

     General routines
     calbec       :     77.78s CPU     78.73s WALL (   39426 calls)
     fft          :     31.43s CPU     34.07s WALL (   12523 calls)
     ffts         :      1.44s CPU      1.52s WALL (    2002 calls)
     fftw         :    540.23s CPU    586.53s WALL ( 2172812 calls)
     interpolate  :      4.43s CPU      4.78s WALL (    1002 calls)
     davcio       :      0.00s CPU      0.02s WALL (      30 calls)

     Parallel routines

     PAW routines
     PAW_pot      :     17.89s CPU     17.90s WALL (     501 calls)
     PAW_symme    :      0.19s CPU      0.19s WALL (    1001 calls)

     PWSCF        :  25m 6.99s CPU  26m14.21s WALL


   This run was terminated on:  22:10:47  28Nov2023            

=------------------------------------------------------------------------------=
   JOB DONE.
=------------------------------------------------------------------------------=
