
     Program PWSCF v.7.2 starts on 23Oct2023 at 18: 5: 2 

     This program is part of the open-source Quantum ESPRESSO suite
     for quantum simulation of materials; please cite
         "P. Giannozzi et al., J. Phys.:Condens. Matter 21 395502 (2009);
         "P. Giannozzi et al., J. Phys.:Condens. Matter 29 465901 (2017);
         "P. Giannozzi et al., J. Chem. Phys. 152 154105 (2020);
          URL http://www.quantum-espresso.org", 
     in publications or presentations arising from this work. More details at
     http://www.quantum-espresso.org/quote

     Parallel version (MPI & OpenMP), running on      12 processor cores
     Number of MPI processes:                 1
     Threads/MPI process:                    12

     MPI processes distributed on     1 nodes
     60335 MiB available memory on the printing compute node when the environment starts
 
     Reading input from aiida.in

     Current dimensions of program PWSCF are:
     Max number of different atomic species (ntypx) = 10
     Max number of k-points (npk) =  40000
     Max angular momentum in pseudopotentials (lmaxx) =  4
     file In.pbesol-dn-rrkjus_psl.0.2.2.UPF: wavefunction(s)  5S renormalized
     Message from routine setup:
     using ibrav=0 with symmetry is DISCOURAGED, use correct ibrav instead
 
     Subspace diagonalization in iterative solution of the eigenvalue problem:
     a serial algorithm will be used

 
     G-vector sticks info
     --------------------
     sticks:   dense  smooth     PW     G-vecs:    dense   smooth      PW
     Sum        1915     955    295                55369    19603    3287
 
     Using Slab Decomposition
 


     bravais-lattice index     =            0
     lattice parameter (alat)  =       8.3381  a.u.
     unit-cell volume          =     409.9118 (a.u.)^3
     number of atoms/cell      =            4
     number of atomic types    =            4
     number of electrons       =        52.00
     number of Kohn-Sham states=           31
     kinetic-energy cutoff     =      50.0000  Ry
     charge density cutoff     =     400.0000  Ry
     scf convergence threshold =      8.0E-10
     mixing beta               =       0.2000
     number of iterations used =            8  plain     mixing
     Exchange-correlation= SLA  PW   PSX  PSC
                           (   1   4  10   8   0   0   0)

     GPU acceleration is ACTIVE.


     GPU used by master process:

        Device Number: 0
        Device name: Tesla P100-PCIE-16GB
        Compute capability : 60
        Ratio of single to double precision performance  : 2
        Memory Clock Rate (KHz): 715000
        Memory Bus Width (bits): 4096
        Peak Memory Bandwidth (GB/s): 732.16

     celldm(1)=   8.338126  celldm(2)=   0.000000  celldm(3)=   0.000000
     celldm(4)=   0.000000  celldm(5)=   0.000000  celldm(6)=   0.000000

     crystal axes: (cart. coord. in units of alat)
               a(1) = (   0.000000   0.707107   0.707107 )  
               a(2) = (   0.707107   0.000000   0.707107 )  
               a(3) = (   0.707107   0.707107   0.000000 )  

     reciprocal axes: (cart. coord. in units 2 pi/alat)
               b(1) = ( -0.707107  0.707107  0.707107 )  
               b(2) = (  0.707107 -0.707107  0.707107 )  
               b(3) = (  0.707107  0.707107 -0.707107 )  


     PseudoPot. # 1 for Cr read from file:
     ./pseudo/cr_pbesol_v1.5.uspp.F.UPF
     MD5 check sum: a621641e0be27168676a837af8893d0f
     Pseudo is Ultrasoft + core correction, Zval = 14.0
     Generated by new atomic code, or converted to UPF format
     Using radial grid of  857 points,  6 beta functions with: 
                l(1) =   0
                l(2) =   0
                l(3) =   1
                l(4) =   1
                l(5) =   2
                l(6) =   2
     Q(r) pseudized with  8 coefficients,  rinner =    0.950   0.950   0.950
                                                       0.950   0.950

     PseudoPot. # 2 for In read from file:
     ./pseudo/In.pbesol-dn-rrkjus_psl.0.2.2.UPF
     MD5 check sum: 2a3399a31491503da6b8c7d8e01e9843
     Pseudo is Ultrasoft + core correction, Zval = 13.0
     Generated using "atomic" code by A. Dal Corso  v.6.0 svn rev. 13079
     Using radial grid of 1241 points,  6 beta functions with: 
                l(1) =   0
                l(2) =   0
                l(3) =   1
                l(4) =   1
                l(5) =   2
                l(6) =   2
     Q(r) pseudized with 0 coefficients 


     PseudoPot. # 3 for Ti read from file:
     ./pseudo/ti_pbesol_v1.4.uspp.F.UPF
     MD5 check sum: 193cf2c0c3c6a4da613d69453fa7e3e9
     Pseudo is Ultrasoft + core correction, Zval = 12.0
     Generated by new atomic code, or converted to UPF format
     Using radial grid of  851 points,  6 beta functions with: 
                l(1) =   0
                l(2) =   0
                l(3) =   1
                l(4) =   1
                l(5) =   2
                l(6) =   2
     Q(r) pseudized with  6 coefficients,  rinner =    1.000   1.000   1.000
                                                       1.000   1.000

     PseudoPot. # 4 for V  read from file:
     ./pseudo/v_pbesol_v1.4.uspp.F.UPF
     MD5 check sum: 72fa7d0034c41d8adc50bbc8c632b9f9
     Pseudo is Ultrasoft + core correction, Zval = 13.0
     Generated by new atomic code, or converted to UPF format
     Using radial grid of  853 points,  6 beta functions with: 
                l(1) =   0
                l(2) =   0
                l(3) =   1
                l(4) =   1
                l(5) =   2
                l(6) =   2
     Q(r) pseudized with  8 coefficients,  rinner =    1.100   1.100   1.100
                                                       1.100   1.100

     atomic species   valence    mass     pseudopotential
        Cr            14.00    51.99610     Cr( 1.00)
        In            13.00   114.81800     In( 1.00)
        Ti            12.00    47.86700     Ti( 1.00)
        V             13.00    50.94150     V ( 1.00)

     Starting magnetic structure 
     atomic species   magnetization
        Cr           0.357
        In           0.100
        Ti           0.417
        V            0.385

     24 Sym. Ops. (no inversion) found


                                    s                        frac. trans.

      isym =  1     identity                                     

 cryst.   s( 1) = (     1          0          0      )
                  (     0          1          0      )
                  (     0          0          1      )

 cart.    s( 1) = (  1.0000000 -0.0000000  0.0000000 )
                  ( -0.0000000  1.0000000  0.0000000 )
                  ( -0.0000000  0.0000000  1.0000000 )


      isym =  2     180 deg rotation - cart. axis [0,0,1]        

 cryst.   s( 2) = (     0          1         -1      )
                  (     1          0         -1      )
                  (     0          0         -1      )

 cart.    s( 2) = ( -1.0000000  0.0000000  0.0000000 )
                  (  0.0000000 -1.0000000  0.0000000 )
                  (  0.0000000 -0.0000000  1.0000000 )


      isym =  3     180 deg rotation - cart. axis [0,1,0]        

 cryst.   s( 3) = (     0         -1          1      )
                  (     0         -1          0      )
                  (     1         -1          0      )

 cart.    s( 3) = ( -1.0000000 -0.0000000 -0.0000000 )
                  (  0.0000000  1.0000000 -0.0000000 )
                  (  0.0000000  0.0000000 -1.0000000 )


      isym =  4     180 deg rotation - cart. axis [1,0,0]        

 cryst.   s( 4) = (    -1          0          0      )
                  (    -1          0          1      )
                  (    -1          1          0      )

 cart.    s( 4) = (  1.0000000  0.0000000 -0.0000000 )
                  ( -0.0000000 -1.0000000 -0.0000000 )
                  ( -0.0000000 -0.0000000 -1.0000000 )


      isym =  5     120 deg rotation - cart. axis [-1,-1,-1]     

 cryst.   s( 5) = (     0          0          1      )
                  (     1          0          0      )
                  (     0          1          0      )

 cart.    s( 5) = (  0.0000000  1.0000000 -0.0000000 )
                  (  0.0000000 -0.0000000  1.0000000 )
                  (  1.0000000 -0.0000000  0.0000000 )


      isym =  6     120 deg rotation - cart. axis [-1,1,1]       

 cryst.   s( 6) = (     1         -1          0      )
                  (     0         -1          1      )
                  (     0         -1          0      )

 cart.    s( 6) = ( -0.0000000 -1.0000000 -0.0000000 )
                  ( -0.0000000  0.0000000  1.0000000 )
                  ( -1.0000000  0.0000000  0.0000000 )


      isym =  7     120 deg rotation - cart. axis [1,1,-1]       

 cryst.   s( 7) = (    -1          1          0      )
                  (    -1          0          0      )
                  (    -1          0          1      )

 cart.    s( 7) = ( -0.0000000  1.0000000  0.0000000 )
                  ( -0.0000000 -0.0000000 -1.0000000 )
                  ( -1.0000000 -0.0000000 -0.0000000 )


      isym =  8     120 deg rotation - cart. axis [1,-1,1]       

 cryst.   s( 8) = (     0          0         -1      )
                  (     0          1         -1      )
                  (     1          0         -1      )

 cart.    s( 8) = (  0.0000000 -1.0000000  0.0000000 )
                  (  0.0000000  0.0000000 -1.0000000 )
                  (  1.0000000  0.0000000 -0.0000000 )


      isym =  9     120 deg rotation - cart. axis [1,1,1]        

 cryst.   s( 9) = (     0          1          0      )
                  (     0          0          1      )
                  (     1          0          0      )

 cart.    s( 9) = ( -0.0000000  0.0000000  1.0000000 )
                  (  1.0000000  0.0000000 -0.0000000 )
                  (  0.0000000  1.0000000 -0.0000000 )


      isym = 10     120 deg rotation - cart. axis [-1,1,-1]      

 cryst.   s(10) = (    -1          0          1      )
                  (    -1          1          0      )
                  (    -1          0          0      )

 cart.    s(10) = (  0.0000000 -0.0000000  1.0000000 )
                  ( -1.0000000 -0.0000000 -0.0000000 )
                  ( -0.0000000 -1.0000000 -0.0000000 )


      isym = 11     120 deg rotation - cart. axis [1,-1,-1]      

 cryst.   s(11) = (     1          0         -1      )
                  (     0          0         -1      )
                  (     0          1         -1      )

 cart.    s(11) = (  0.0000000  0.0000000 -1.0000000 )
                  ( -1.0000000  0.0000000  0.0000000 )
                  ( -0.0000000  1.0000000  0.0000000 )


      isym = 12     120 deg rotation - cart. axis [-1,-1,1]      

 cryst.   s(12) = (     0         -1          0      )
                  (     1         -1          0      )
                  (     0         -1          1      )

 cart.    s(12) = ( -0.0000000 -0.0000000 -1.0000000 )
                  (  1.0000000 -0.0000000  0.0000000 )
                  (  0.0000000 -1.0000000  0.0000000 )


      isym = 13     inv. 180 deg rotation - cart. axis [1,1,0]   

 cryst.   s(13) = (     1          0         -1      )
                  (     0          1         -1      )
                  (     0          0         -1      )

 cart.    s(13) = (  0.0000000 -1.0000000  0.0000000 )
                  ( -1.0000000  0.0000000  0.0000000 )
                  ( -0.0000000  0.0000000  1.0000000 )


      isym = 14     inv. 180 deg rotation - cart. axis [1,-1,0]  

 cryst.   s(14) = (     0          1          0      )
                  (     1          0          0      )
                  (     0          0          1      )

 cart.    s(14) = ( -0.0000000  1.0000000  0.0000000 )
                  (  1.0000000 -0.0000000  0.0000000 )
                  (  0.0000000 -0.0000000  1.0000000 )


      isym = 15     inv.  90 deg rotation - cart. axis [0,0,-1]  

 cryst.   s(15) = (     0         -1          0      )
                  (     0         -1          1      )
                  (     1         -1          0      )

 cart.    s(15) = ( -0.0000000 -1.0000000 -0.0000000 )
                  (  1.0000000  0.0000000 -0.0000000 )
                  (  0.0000000  0.0000000 -1.0000000 )


      isym = 16     inv.  90 deg rotation - cart. axis [0,0,1]   

 cryst.   s(16) = (    -1          0          1      )
                  (    -1          0          0      )
                  (    -1          1          0      )

 cart.    s(16) = (  0.0000000  1.0000000 -0.0000000 )
                  ( -1.0000000 -0.0000000 -0.0000000 )
                  ( -0.0000000 -0.0000000 -1.0000000 )


      isym = 17     inv. 180 deg rotation - cart. axis [1,0,1]   

 cryst.   s(17) = (     1         -1          0      )
                  (     0         -1          0      )
                  (     0         -1          1      )

 cart.    s(17) = ( -0.0000000 -0.0000000 -1.0000000 )
                  ( -0.0000000  1.0000000  0.0000000 )
                  ( -1.0000000  0.0000000  0.0000000 )


      isym = 18     inv. 180 deg rotation - cart. axis [-1,0,1]  

 cryst.   s(18) = (     0          0          1      )
                  (     0          1          0      )
                  (     1          0          0      )

 cart.    s(18) = (  0.0000000 -0.0000000  1.0000000 )
                  (  0.0000000  1.0000000 -0.0000000 )
                  (  1.0000000  0.0000000 -0.0000000 )


      isym = 19     inv.  90 deg rotation - cart. axis [0,1,0]   

 cryst.   s(19) = (     0          0         -1      )
                  (     1          0         -1      )
                  (     0          1         -1      )

 cart.    s(19) = (  0.0000000  0.0000000 -1.0000000 )
                  (  0.0000000 -1.0000000  0.0000000 )
                  (  1.0000000 -0.0000000  0.0000000 )


      isym = 20     inv.  90 deg rotation - cart. axis [0,-1,0]  

 cryst.   s(20) = (    -1          1          0      )
                  (    -1          0          1      )
                  (    -1          0          0      )

 cart.    s(20) = ( -0.0000000  0.0000000  1.0000000 )
                  ( -0.0000000 -1.0000000 -0.0000000 )
                  ( -1.0000000 -0.0000000 -0.0000000 )


      isym = 21     inv. 180 deg rotation - cart. axis [0,1,1]   

 cryst.   s(21) = (    -1          0          0      )
                  (    -1          1          0      )
                  (    -1          0          1      )

 cart.    s(21) = (  1.0000000 -0.0000000  0.0000000 )
                  ( -0.0000000 -0.0000000 -1.0000000 )
                  ( -0.0000000 -1.0000000 -0.0000000 )


      isym = 22     inv. 180 deg rotation - cart. axis [0,1,-1]  

 cryst.   s(22) = (     1          0          0      )
                  (     0          0          1      )
                  (     0          1          0      )

 cart.    s(22) = (  1.0000000  0.0000000 -0.0000000 )
                  ( -0.0000000  0.0000000  1.0000000 )
                  ( -0.0000000  1.0000000  0.0000000 )


      isym = 23     inv.  90 deg rotation - cart. axis [-1,0,0]  

 cryst.   s(23) = (     0          1         -1      )
                  (     0          0         -1      )
                  (     1          0         -1      )

 cart.    s(23) = ( -1.0000000  0.0000000  0.0000000 )
                  (  0.0000000  0.0000000 -1.0000000 )
                  (  0.0000000  1.0000000 -0.0000000 )


      isym = 24     inv.  90 deg rotation - cart. axis [1,0,0]   

 cryst.   s(24) = (     0         -1          1      )
                  (     1         -1          0      )
                  (     0         -1          0      )

 cart.    s(24) = ( -1.0000000 -0.0000000 -0.0000000 )
                  (  0.0000000 -0.0000000  1.0000000 )
                  (  0.0000000 -1.0000000  0.0000000 )


   Cartesian axes

     site n.     atom                  positions (alat units)
         1           Ti  tau(   1) = (   0.3535534   0.3535534   0.3535534  )
         2           V   tau(   2) = (   0.7071068   0.0000000   0.0000000  )
         3           Cr  tau(   3) = (   0.0000000   0.0000000   0.0000000  )
         4           In  tau(   4) = (   0.3535534   0.3535534   1.0606602  )

   Crystallographic axes

     site n.     atom                  positions (cryst. coord.)
         1           Ti  tau(   1) = (  0.2500000  0.2500000  0.2500000  )
         2           V   tau(   2) = ( -0.5000000  0.5000000  0.5000000  )
         3           Cr  tau(   3) = (  0.0000000  0.0000000  0.0000000  )
         4           In  tau(   4) = (  0.7500000  0.7500000 -0.2500000  )

     number of k points=    72  Marzari-Vanderbilt smearing, width (Ry)=  0.0100
                       cart. coord. in units 2pi/alat
        k(    1) = (   0.0000000   0.0000000   0.0000000), wk =   0.0005787
        k(    2) = (   0.0589256   0.0589256  -0.0589256), wk =   0.0046296
        k(    3) = (   0.1178511   0.1178511  -0.1178511), wk =   0.0046296
        k(    4) = (   0.1767767   0.1767767  -0.1767767), wk =   0.0046296
        k(    5) = (   0.2357023   0.2357023  -0.2357023), wk =   0.0046296
        k(    6) = (   0.2946278   0.2946278  -0.2946278), wk =   0.0046296
        k(    7) = (  -0.3535534  -0.3535534   0.3535534), wk =   0.0023148
        k(    8) = (   0.1178511   0.0000000  -0.0000000), wk =   0.0034722
        k(    9) = (   0.1767767   0.0589256  -0.0589256), wk =   0.0138889
        k(   10) = (   0.2357023   0.1178511  -0.1178511), wk =   0.0138889
        k(   11) = (   0.2946278   0.1767767  -0.1767767), wk =   0.0138889
        k(   12) = (   0.3535534   0.2357023  -0.2357023), wk =   0.0138889
        k(   13) = (  -0.2946278  -0.4124790   0.4124790), wk =   0.0138889
        k(   14) = (  -0.2357023  -0.3535534   0.3535534), wk =   0.0138889
        k(   15) = (  -0.1767767  -0.2946278   0.2946278), wk =   0.0138889
        k(   16) = (  -0.1178511  -0.2357023   0.2357023), wk =   0.0138889
        k(   17) = (  -0.0589256  -0.1767767   0.1767767), wk =   0.0138889
        k(   18) = (  -0.0000000  -0.1178511   0.1178511), wk =   0.0069444
        k(   19) = (   0.2357023   0.0000000  -0.0000000), wk =   0.0034722
        k(   20) = (   0.2946278   0.0589256  -0.0589256), wk =   0.0138889
        k(   21) = (   0.3535534   0.1178511  -0.1178511), wk =   0.0138889
        k(   22) = (   0.4124790   0.1767767  -0.1767767), wk =   0.0138889
        k(   23) = (  -0.2357023  -0.4714045   0.4714045), wk =   0.0138889
        k(   24) = (  -0.1767767  -0.4124790   0.4124790), wk =   0.0138889
        k(   25) = (  -0.1178511  -0.3535534   0.3535534), wk =   0.0138889
        k(   26) = (  -0.0589256  -0.2946278   0.2946278), wk =   0.0138889
        k(   27) = (   0.0000000  -0.2357023   0.2357023), wk =   0.0069444
        k(   28) = (   0.3535534   0.0000000   0.0000000), wk =   0.0034722
        k(   29) = (   0.4124790   0.0589256  -0.0589256), wk =   0.0138889
        k(   30) = (   0.4714045   0.1178511  -0.1178511), wk =   0.0138889
        k(   31) = (  -0.1767767  -0.5303301   0.5303301), wk =   0.0138889
        k(   32) = (  -0.1178511  -0.4714045   0.4714045), wk =   0.0138889
        k(   33) = (  -0.0589256  -0.4124790   0.4124790), wk =   0.0138889
        k(   34) = (   0.0000000  -0.3535534   0.3535534), wk =   0.0069444
        k(   35) = (   0.4714045   0.0000000  -0.0000000), wk =   0.0034722
        k(   36) = (   0.5303301   0.0589256  -0.0589256), wk =   0.0138889
        k(   37) = (  -0.1178511  -0.5892557   0.5892557), wk =   0.0138889
        k(   38) = (  -0.0589256  -0.5303301   0.5303301), wk =   0.0138889
        k(   39) = (  -0.0000000  -0.4714045   0.4714045), wk =   0.0069444
        k(   40) = (   0.5892557   0.0000000  -0.0000000), wk =   0.0034722
        k(   41) = (  -0.0589256  -0.6481812   0.6481812), wk =   0.0138889
        k(   42) = (   0.0000000  -0.5892557   0.5892557), wk =   0.0069444
        k(   43) = (  -0.7071068   0.0000000   0.0000000), wk =   0.0017361
        k(   44) = (   0.2357023   0.1178511   0.0000000), wk =   0.0138889
        k(   45) = (   0.2946278   0.1767767  -0.0589256), wk =   0.0277778
        k(   46) = (   0.3535534   0.2357023  -0.1178511), wk =   0.0277778
        k(   47) = (  -0.2946278  -0.4124790   0.5303301), wk =   0.0277778
        k(   48) = (  -0.2357023  -0.3535534   0.4714045), wk =   0.0138889
        k(   49) = (   0.3535534   0.1178511  -0.0000000), wk =   0.0138889
        k(   50) = (   0.4124790   0.1767767  -0.0589256), wk =   0.0277778
        k(   51) = (  -0.2357023  -0.4714045   0.5892557), wk =   0.0277778
        k(   52) = (  -0.1767767  -0.4124790   0.5303301), wk =   0.0277778
        k(   53) = (  -0.1178511  -0.3535534   0.4714045), wk =   0.0277778
        k(   54) = (  -0.0589256  -0.2946278   0.4124790), wk =   0.0277778
        k(   55) = (   0.0000000  -0.2357023   0.3535534), wk =   0.0138889
        k(   56) = (   0.4714045   0.1178511  -0.0000000), wk =   0.0138889
        k(   57) = (  -0.1767767  -0.5303301   0.6481812), wk =   0.0277778
        k(   58) = (  -0.1178511  -0.4714045   0.5892557), wk =   0.0277778
        k(   59) = (  -0.0589256  -0.4124790   0.5303301), wk =   0.0277778
        k(   60) = (   0.0000000  -0.3535534   0.4714045), wk =   0.0138889
        k(   61) = (  -0.1178511  -0.5892557   0.7071068), wk =   0.0138889
        k(   62) = (  -0.0589256  -0.5303301   0.6481812), wk =   0.0277778
        k(   63) = (  -0.0000000  -0.4714045   0.5892557), wk =   0.0138889
        k(   64) = (  -0.7071068   0.1178511  -0.0000000), wk =   0.0069444
        k(   65) = (  -0.2357023  -0.4714045   0.7071068), wk =   0.0138889
        k(   66) = (  -0.1767767  -0.4124790   0.6481812), wk =   0.0277778
        k(   67) = (  -0.1178511  -0.3535534   0.5892557), wk =   0.0138889
        k(   68) = (  -0.1178511  -0.4714045   0.7071068), wk =   0.0138889
        k(   69) = (  -0.0589256  -0.4124790   0.6481812), wk =   0.0277778
        k(   70) = (   0.0000000  -0.3535534   0.5892557), wk =   0.0138889
        k(   71) = (  -0.7071068   0.2357023   0.0000000), wk =   0.0069444
        k(   72) = (  -0.7071068   0.3535534   0.0000000), wk =   0.0034722

                       cryst. coord.
        k(    1) = (   0.0000000   0.0000000   0.0000000), wk =   0.0005787
        k(    2) = (   0.0000000   0.0000000   0.0833333), wk =   0.0046296
        k(    3) = (   0.0000000   0.0000000   0.1666667), wk =   0.0046296
        k(    4) = (   0.0000000   0.0000000   0.2500000), wk =   0.0046296
        k(    5) = (   0.0000000   0.0000000   0.3333333), wk =   0.0046296
        k(    6) = (  -0.0000000  -0.0000000   0.4166667), wk =   0.0046296
        k(    7) = (  -0.0000000  -0.0000000  -0.5000000), wk =   0.0023148
        k(    8) = (  -0.0000000   0.0833333   0.0833333), wk =   0.0034722
        k(    9) = (   0.0000000   0.0833333   0.1666667), wk =   0.0138889
        k(   10) = (  -0.0000000   0.0833333   0.2500000), wk =   0.0138889
        k(   11) = (   0.0000000   0.0833333   0.3333333), wk =   0.0138889
        k(   12) = (  -0.0000000   0.0833333   0.4166667), wk =   0.0138889
        k(   13) = (  -0.0000000   0.0833333  -0.5000000), wk =   0.0138889
        k(   14) = (  -0.0000000   0.0833333  -0.4166667), wk =   0.0138889
        k(   15) = (  -0.0000000   0.0833333  -0.3333333), wk =   0.0138889
        k(   16) = (  -0.0000000   0.0833333  -0.2500000), wk =   0.0138889
        k(   17) = (  -0.0000000   0.0833333  -0.1666667), wk =   0.0138889
        k(   18) = (   0.0000000   0.0833333  -0.0833333), wk =   0.0069444
        k(   19) = (  -0.0000000   0.1666667   0.1666667), wk =   0.0034722
        k(   20) = (  -0.0000000   0.1666667   0.2500000), wk =   0.0138889
        k(   21) = (   0.0000000   0.1666667   0.3333333), wk =   0.0138889
        k(   22) = (  -0.0000000   0.1666667   0.4166667), wk =   0.0138889
        k(   23) = (  -0.0000000   0.1666667  -0.5000000), wk =   0.0138889
        k(   24) = (  -0.0000000   0.1666667  -0.4166667), wk =   0.0138889
        k(   25) = (  -0.0000000   0.1666667  -0.3333333), wk =   0.0138889
        k(   26) = (   0.0000000   0.1666667  -0.2500000), wk =   0.0138889
        k(   27) = (  -0.0000000   0.1666667  -0.1666667), wk =   0.0069444
        k(   28) = (   0.0000000   0.2500000   0.2500000), wk =   0.0034722
        k(   29) = (   0.0000000   0.2500000   0.3333333), wk =   0.0138889
        k(   30) = (  -0.0000000   0.2500000   0.4166667), wk =   0.0138889
        k(   31) = (   0.0000000   0.2500000  -0.5000000), wk =   0.0138889
        k(   32) = (  -0.0000000   0.2500000  -0.4166667), wk =   0.0138889
        k(   33) = (  -0.0000000   0.2500000  -0.3333333), wk =   0.0138889
        k(   34) = (  -0.0000000   0.2500000  -0.2500000), wk =   0.0069444
        k(   35) = (  -0.0000000   0.3333333   0.3333333), wk =   0.0034722
        k(   36) = (  -0.0000000   0.3333333   0.4166667), wk =   0.0138889
        k(   37) = (   0.0000000   0.3333333  -0.5000000), wk =   0.0138889
        k(   38) = (  -0.0000000   0.3333333  -0.4166667), wk =   0.0138889
        k(   39) = (   0.0000000   0.3333333  -0.3333333), wk =   0.0069444
        k(   40) = (   0.0000000   0.4166667   0.4166667), wk =   0.0034722
        k(   41) = (  -0.0000000   0.4166667  -0.5000000), wk =   0.0138889
        k(   42) = (   0.0000000   0.4166667  -0.4166667), wk =   0.0069444
        k(   43) = (   0.0000000  -0.5000000  -0.5000000), wk =   0.0017361
        k(   44) = (   0.0833333   0.1666667   0.2500000), wk =   0.0138889
        k(   45) = (   0.0833333   0.1666667   0.3333333), wk =   0.0277778
        k(   46) = (   0.0833333   0.1666667   0.4166667), wk =   0.0277778
        k(   47) = (   0.0833333   0.1666667  -0.5000000), wk =   0.0277778
        k(   48) = (   0.0833333   0.1666667  -0.4166667), wk =   0.0138889
        k(   49) = (   0.0833333   0.2500000   0.3333333), wk =   0.0138889
        k(   50) = (   0.0833333   0.2500000   0.4166667), wk =   0.0277778
        k(   51) = (   0.0833333   0.2500000  -0.5000000), wk =   0.0277778
        k(   52) = (   0.0833333   0.2500000  -0.4166667), wk =   0.0277778
        k(   53) = (   0.0833333   0.2500000  -0.3333333), wk =   0.0277778
        k(   54) = (   0.0833333   0.2500000  -0.2500000), wk =   0.0277778
        k(   55) = (   0.0833333   0.2500000  -0.1666667), wk =   0.0138889
        k(   56) = (   0.0833333   0.3333333   0.4166667), wk =   0.0138889
        k(   57) = (   0.0833333   0.3333333  -0.5000000), wk =   0.0277778
        k(   58) = (   0.0833333   0.3333333  -0.4166667), wk =   0.0277778
        k(   59) = (   0.0833333   0.3333333  -0.3333333), wk =   0.0277778
        k(   60) = (   0.0833333   0.3333333  -0.2500000), wk =   0.0138889
        k(   61) = (   0.0833333   0.4166667  -0.5000000), wk =   0.0138889
        k(   62) = (   0.0833333   0.4166667  -0.4166667), wk =   0.0277778
        k(   63) = (   0.0833333   0.4166667  -0.3333333), wk =   0.0138889
        k(   64) = (   0.0833333  -0.5000000  -0.4166667), wk =   0.0069444
        k(   65) = (   0.1666667   0.3333333  -0.5000000), wk =   0.0138889
        k(   66) = (   0.1666667   0.3333333  -0.4166667), wk =   0.0277778
        k(   67) = (   0.1666667   0.3333333  -0.3333333), wk =   0.0138889
        k(   68) = (   0.1666667   0.4166667  -0.4166667), wk =   0.0138889
        k(   69) = (   0.1666667   0.4166667  -0.3333333), wk =   0.0277778
        k(   70) = (   0.1666667   0.4166667  -0.2500000), wk =   0.0138889
        k(   71) = (   0.1666667  -0.5000000  -0.3333333), wk =   0.0069444
        k(   72) = (   0.2500000  -0.5000000  -0.2500000), wk =   0.0034722

     Dense  grid:    55369 G-vectors     FFT dimensions: (  54,  54,  54)

     Smooth grid:    19603 G-vectors     FFT dimensions: (  40,  40,  40)

     Dynamical RAM for                 wfc:       1.16 MB

     Dynamical RAM for     wfc (w. buffer):     167.84 MB

     Dynamical RAM for           str. fact:       3.38 MB

     Dynamical RAM for           local pot:       0.00 MB

     Dynamical RAM for          nlocal pot:       2.69 MB

     Dynamical RAM for                qrad:       6.42 MB

     Dynamical RAM for          rho,v,vnew:      12.28 MB

     Dynamical RAM for               rhoin:       4.09 MB

     Dynamical RAM for            rho*nmix:      27.04 MB

     Dynamical RAM for           G-vectors:       3.32 MB

     Dynamical RAM for          h,s,v(r/c):       0.18 MB

     Dynamical RAM for          <psi|beta>:       0.03 MB

     Dynamical RAM for                 psi:       2.31 MB

     Dynamical RAM for                hpsi:       2.31 MB

     Dynamical RAM for                spsi:       2.31 MB

     Dynamical RAM for      wfcinit/wfcrot:       2.34 MB

     Dynamical RAM for           addusdens:     158.83 MB

     Dynamical RAM for          addusforce:     158.84 MB

     Dynamical RAM for         addusstress:     171.08 MB

     Estimated static dynamical RAM per process >     211.44 MB

     Estimated max dynamical RAM per process >     409.57 MB

     Atomic positions and unit cell read from directory:
     ./out/aiida.save/
 

     Check: negative core charge=   -0.000004
     Generating pointlists ...
     new r_m :   0.2526 (alat units)  2.1062 (a.u.) for type    1
     new r_m :   0.2526 (alat units)  2.1062 (a.u.) for type    2
     new r_m :   0.2526 (alat units)  2.1062 (a.u.) for type    3
     new r_m :   0.2526 (alat units)  2.1062 (a.u.) for type    4

     The initial density is read from file :
     ./out/aiida.save/charge-density


     negative rho (up, down):  4.189E-04 2.337E-03
     Starting wfcs from file

     total cpu time spent up to now is        3.6 secs

     per-process dynamical memory:   400.7 Mb

     Self-consistent Calculation
[tb_dev] Currently allocated     3.05E-05 Mbytes, locked:    0 /   2
[tb_pin] Currently allocated     0.00E+00 Mbytes, locked:    0 /   0

     iteration #  1     ecut=    50.00 Ry     beta= 0.20
     Davidson diagonalization with overlap

---- Real-time Memory Report at c_bands before calling an iterative solver
           514 MiB given to the printing process from OS
           393 MiB allocation reported by mallinfo(arena+hblkhd)
         59700 MiB available memory on the node where the printing process lives
     GPU memory used/free/total (MiB): 628 / 15652 / 16280
------------------
     ethr =  1.00E-05,  avg # of iterations =  4.7

     negative rho (up, down):  4.295E-04 2.285E-03

     total cpu time spent up to now is        8.9 secs

     total energy              =    -583.84229965 Ry
     estimated scf accuracy    <       0.00102220 Ry

     total magnetization       =     3.46 Bohr mag/cell
     absolute magnetization    =     3.58 Bohr mag/cell
[tb_dev] Currently allocated     1.03E+00 Mbytes, locked:    0 /   8
[tb_pin] Currently allocated     0.00E+00 Mbytes, locked:    0 /   0

     iteration #  2     ecut=    50.00 Ry     beta= 0.20
     Davidson diagonalization with overlap

---- Real-time Memory Report at c_bands before calling an iterative solver
          1068 MiB given to the printing process from OS
           888 MiB allocation reported by mallinfo(arena+hblkhd)
         58617 MiB available memory on the node where the printing process lives
     GPU memory used/free/total (MiB): 1056 / 15224 / 16280
------------------
     ethr =  1.97E-06,  avg # of iterations =  5.0

     negative rho (up, down):  4.312E-04 2.291E-03

     total cpu time spent up to now is       13.3 secs

     total energy              =    -583.84227883 Ry
     estimated scf accuracy    <       0.00512484 Ry

     total magnetization       =     3.49 Bohr mag/cell
     absolute magnetization    =     3.60 Bohr mag/cell
[tb_dev] Currently allocated     1.03E+00 Mbytes, locked:    0 /   8
[tb_pin] Currently allocated     0.00E+00 Mbytes, locked:    0 /   0

     iteration #  3     ecut=    50.00 Ry     beta= 0.20
     Davidson diagonalization with overlap

---- Real-time Memory Report at c_bands before calling an iterative solver
          1073 MiB given to the printing process from OS
           890 MiB allocation reported by mallinfo(arena+hblkhd)
         58615 MiB available memory on the node where the printing process lives
     GPU memory used/free/total (MiB): 1074 / 15206 / 16280
------------------
     ethr =  1.97E-06,  avg # of iterations =  3.0

     negative rho (up, down):  4.411E-04 2.274E-03

     total cpu time spent up to now is       16.5 secs

     total energy              =    -583.84265012 Ry
     estimated scf accuracy    <       0.00024272 Ry

     total magnetization       =     3.45 Bohr mag/cell
     absolute magnetization    =     3.57 Bohr mag/cell
[tb_dev] Currently allocated     1.03E+00 Mbytes, locked:    0 /   8
[tb_pin] Currently allocated     0.00E+00 Mbytes, locked:    0 /   0

     iteration #  4     ecut=    50.00 Ry     beta= 0.20
     Davidson diagonalization with overlap

---- Real-time Memory Report at c_bands before calling an iterative solver
          1075 MiB given to the printing process from OS
           890 MiB allocation reported by mallinfo(arena+hblkhd)
         58616 MiB available memory on the node where the printing process lives
     GPU memory used/free/total (MiB): 1074 / 15206 / 16280
------------------
     ethr =  4.67E-07,  avg # of iterations =  3.6

     negative rho (up, down):  5.146E-04 2.148E-03

     total cpu time spent up to now is       20.0 secs

     total energy              =    -583.84279512 Ry
     estimated scf accuracy    <       0.00047159 Ry

     total magnetization       =     3.40 Bohr mag/cell
     absolute magnetization    =     3.52 Bohr mag/cell
[tb_dev] Currently allocated     1.03E+00 Mbytes, locked:    0 /   8
[tb_pin] Currently allocated     0.00E+00 Mbytes, locked:    0 /   0

     iteration #  5     ecut=    50.00 Ry     beta= 0.20
     Davidson diagonalization with overlap

---- Real-time Memory Report at c_bands before calling an iterative solver
          1078 MiB given to the printing process from OS
           891 MiB allocation reported by mallinfo(arena+hblkhd)
         58613 MiB available memory on the node where the printing process lives
     GPU memory used/free/total (MiB): 1074 / 15206 / 16280
------------------
     ethr =  4.67E-07,  avg # of iterations =  6.2

     negative rho (up, down):  5.341E-04 2.117E-03

     total cpu time spent up to now is       25.3 secs

     total energy              =    -583.84371908 Ry
     estimated scf accuracy    <       0.00177758 Ry

     total magnetization       =     3.13 Bohr mag/cell
     absolute magnetization    =     3.26 Bohr mag/cell
[tb_dev] Currently allocated     1.03E+00 Mbytes, locked:    0 /   8
[tb_pin] Currently allocated     0.00E+00 Mbytes, locked:    0 /   0

     iteration #  6     ecut=    50.00 Ry     beta= 0.20
     Davidson diagonalization with overlap

---- Real-time Memory Report at c_bands before calling an iterative solver
          1080 MiB given to the printing process from OS
           893 MiB allocation reported by mallinfo(arena+hblkhd)
         58613 MiB available memory on the node where the printing process lives
     GPU memory used/free/total (MiB): 1088 / 15192 / 16280
------------------
     ethr =  4.67E-07,  avg # of iterations =  2.4

     negative rho (up, down):  5.022E-04 2.163E-03

     total cpu time spent up to now is       28.4 secs

     total energy              =    -583.84328419 Ry
     estimated scf accuracy    <       0.00112133 Ry

     total magnetization       =     3.04 Bohr mag/cell
     absolute magnetization    =     3.17 Bohr mag/cell
[tb_dev] Currently allocated     1.03E+00 Mbytes, locked:    0 /   8
[tb_pin] Currently allocated     0.00E+00 Mbytes, locked:    0 /   0

     iteration #  7     ecut=    50.00 Ry     beta= 0.20
     Davidson diagonalization with overlap

---- Real-time Memory Report at c_bands before calling an iterative solver
          1085 MiB given to the printing process from OS
           894 MiB allocation reported by mallinfo(arena+hblkhd)
         58609 MiB available memory on the node where the printing process lives
     GPU memory used/free/total (MiB): 1088 / 15192 / 16280
------------------
     ethr =  4.67E-07,  avg # of iterations =  2.7

     negative rho (up, down):  5.333E-04 2.146E-03

     total cpu time spent up to now is       31.5 secs

     total energy              =    -583.84355143 Ry
     estimated scf accuracy    <       0.00099224 Ry

     total magnetization       =     3.19 Bohr mag/cell
     absolute magnetization    =     3.31 Bohr mag/cell
[tb_dev] Currently allocated     1.03E+00 Mbytes, locked:    0 /   8
[tb_pin] Currently allocated     0.00E+00 Mbytes, locked:    0 /   0

     iteration #  8     ecut=    50.00 Ry     beta= 0.20
     Davidson diagonalization with overlap

---- Real-time Memory Report at c_bands before calling an iterative solver
          1087 MiB given to the printing process from OS
           896 MiB allocation reported by mallinfo(arena+hblkhd)
         58607 MiB available memory on the node where the printing process lives
     GPU memory used/free/total (MiB): 1088 / 15192 / 16280
------------------
     ethr =  4.67E-07,  avg # of iterations =  6.7

     negative rho (up, down):  5.413E-04 2.154E-03

     total cpu time spent up to now is       37.2 secs

     total energy              =    -583.84403661 Ry
     estimated scf accuracy    <       0.00370134 Ry

     total magnetization       =     3.13 Bohr mag/cell
     absolute magnetization    =     3.25 Bohr mag/cell
[tb_dev] Currently allocated     1.03E+00 Mbytes, locked:    0 /   8
[tb_pin] Currently allocated     0.00E+00 Mbytes, locked:    0 /   0

     iteration #  9     ecut=    50.00 Ry     beta= 0.20
     Davidson diagonalization with overlap

---- Real-time Memory Report at c_bands before calling an iterative solver
          1091 MiB given to the printing process from OS
           897 MiB allocation reported by mallinfo(arena+hblkhd)
         58604 MiB available memory on the node where the printing process lives
     GPU memory used/free/total (MiB): 1088 / 15192 / 16280
------------------
     ethr =  4.67E-07,  avg # of iterations =  1.1

     negative rho (up, down):  6.765E-04 2.020E-03

     total cpu time spent up to now is       39.5 secs

     total energy              =    -583.84175387 Ry
     estimated scf accuracy    <       0.00240019 Ry

     total magnetization       =     3.07 Bohr mag/cell
     absolute magnetization    =     3.19 Bohr mag/cell
[tb_dev] Currently allocated     1.03E+00 Mbytes, locked:    0 /   8
[tb_pin] Currently allocated     0.00E+00 Mbytes, locked:    0 /   0

     iteration # 10     ecut=    50.00 Ry     beta= 0.20
     Davidson diagonalization with overlap

---- Real-time Memory Report at c_bands before calling an iterative solver
          1094 MiB given to the printing process from OS
           899 MiB allocation reported by mallinfo(arena+hblkhd)
         58601 MiB available memory on the node where the printing process lives
     GPU memory used/free/total (MiB): 1088 / 15192 / 16280
------------------
     c_bands:  1 eigenvalues not converged
     c_bands:  1 eigenvalues not converged
     c_bands:  1 eigenvalues not converged
     c_bands:  1 eigenvalues not converged
     c_bands:  1 eigenvalues not converged
     c_bands:  1 eigenvalues not converged
     ethr =  4.67E-07,  avg # of iterations =  9.0

     negative rho (up, down):  4.231E-04 2.310E-03

     total cpu time spent up to now is       46.7 secs

     total energy              =    -583.82524244 Ry
     estimated scf accuracy    <       0.00195800 Ry

     total magnetization       =     2.17 Bohr mag/cell
     absolute magnetization    =     2.58 Bohr mag/cell
[tb_dev] Currently allocated     1.03E+00 Mbytes, locked:    0 /   8
[tb_pin] Currently allocated     0.00E+00 Mbytes, locked:    0 /   0

     iteration # 11     ecut=    50.00 Ry     beta= 0.20
     Davidson diagonalization with overlap

---- Real-time Memory Report at c_bands before calling an iterative solver
          1095 MiB given to the printing process from OS
           901 MiB allocation reported by mallinfo(arena+hblkhd)
         58588 MiB available memory on the node where the printing process lives
     GPU memory used/free/total (MiB): 1088 / 15192 / 16280
------------------
     c_bands:  1 eigenvalues not converged
     c_bands:  1 eigenvalues not converged
     c_bands:  1 eigenvalues not converged
     c_bands:  1 eigenvalues not converged
     c_bands:  1 eigenvalues not converged
     ethr =  4.67E-07,  avg # of iterations = 10.5

     negative rho (up, down):  4.646E-04 2.263E-03

     total cpu time spent up to now is       54.9 secs

     total energy              =    -583.84277297 Ry
     estimated scf accuracy    <       0.00074485 Ry

     total magnetization       =     3.45 Bohr mag/cell
     absolute magnetization    =     3.57 Bohr mag/cell
[tb_dev] Currently allocated     1.03E+00 Mbytes, locked:    0 /   8
[tb_pin] Currently allocated     0.00E+00 Mbytes, locked:    0 /   0

     iteration # 12     ecut=    50.00 Ry     beta= 0.20
     Davidson diagonalization with overlap

---- Real-time Memory Report at c_bands before calling an iterative solver
          1096 MiB given to the printing process from OS
           901 MiB allocation reported by mallinfo(arena+hblkhd)
         58594 MiB available memory on the node where the printing process lives
     GPU memory used/free/total (MiB): 1088 / 15192 / 16280
------------------
     ethr =  4.67E-07,  avg # of iterations =  4.6

     negative rho (up, down):  4.963E-04 2.241E-03

     total cpu time spent up to now is       59.1 secs

     total energy              =    -583.84325531 Ry
     estimated scf accuracy    <       0.00023645 Ry

     total magnetization       =     3.33 Bohr mag/cell
     absolute magnetization    =     3.45 Bohr mag/cell
[tb_dev] Currently allocated     1.03E+00 Mbytes, locked:    0 /   8
[tb_pin] Currently allocated     0.00E+00 Mbytes, locked:    0 /   0

     iteration # 13     ecut=    50.00 Ry     beta= 0.20
     Davidson diagonalization with overlap

---- Real-time Memory Report at c_bands before calling an iterative solver
          1096 MiB given to the printing process from OS
           901 MiB allocation reported by mallinfo(arena+hblkhd)
         58596 MiB available memory on the node where the printing process lives
     GPU memory used/free/total (MiB): 1088 / 15192 / 16280
------------------
     ethr =  4.55E-07,  avg # of iterations =  5.4

     negative rho (up, down):  4.884E-04 2.261E-03

     total cpu time spent up to now is       63.8 secs

     total energy              =    -583.84335693 Ry
     estimated scf accuracy    <       0.00020775 Ry

     total magnetization       =     3.21 Bohr mag/cell
     absolute magnetization    =     3.34 Bohr mag/cell
[tb_dev] Currently allocated     1.03E+00 Mbytes, locked:    0 /   8
[tb_pin] Currently allocated     0.00E+00 Mbytes, locked:    0 /   0

     iteration # 14     ecut=    50.00 Ry     beta= 0.20
     Davidson diagonalization with overlap

---- Real-time Memory Report at c_bands before calling an iterative solver
          1096 MiB given to the printing process from OS
           901 MiB allocation reported by mallinfo(arena+hblkhd)
         58596 MiB available memory on the node where the printing process lives
     GPU memory used/free/total (MiB): 1088 / 15192 / 16280
------------------
     ethr =  4.00E-07,  avg # of iterations =  1.0

     negative rho (up, down):  4.955E-04 2.264E-03

     total cpu time spent up to now is       66.1 secs

     total energy              =    -583.84344503 Ry
     estimated scf accuracy    <       0.00021232 Ry

     total magnetization       =     3.24 Bohr mag/cell
     absolute magnetization    =     3.36 Bohr mag/cell
[tb_dev] Currently allocated     1.03E+00 Mbytes, locked:    0 /   8
[tb_pin] Currently allocated     0.00E+00 Mbytes, locked:    0 /   0

     iteration # 15     ecut=    50.00 Ry     beta= 0.20
     Davidson diagonalization with overlap

---- Real-time Memory Report at c_bands before calling an iterative solver
          1096 MiB given to the printing process from OS
           901 MiB allocation reported by mallinfo(arena+hblkhd)
         58597 MiB available memory on the node where the printing process lives
     GPU memory used/free/total (MiB): 1088 / 15192 / 16280
------------------
     ethr =  4.00E-07,  avg # of iterations =  1.0

     negative rho (up, down):  4.868E-04 2.283E-03

     total cpu time spent up to now is       68.4 secs

     total energy              =    -583.84334372 Ry
     estimated scf accuracy    <       0.00021605 Ry

     total magnetization       =     3.21 Bohr mag/cell
     absolute magnetization    =     3.33 Bohr mag/cell
[tb_dev] Currently allocated     1.03E+00 Mbytes, locked:    0 /   8
[tb_pin] Currently allocated     0.00E+00 Mbytes, locked:    0 /   0

     iteration # 16     ecut=    50.00 Ry     beta= 0.20
     Davidson diagonalization with overlap

---- Real-time Memory Report at c_bands before calling an iterative solver
          1096 MiB given to the printing process from OS
           901 MiB allocation reported by mallinfo(arena+hblkhd)
         58597 MiB available memory on the node where the printing process lives
     GPU memory used/free/total (MiB): 1088 / 15192 / 16280
------------------
     ethr =  4.00E-07,  avg # of iterations =  1.1

     negative rho (up, down):  4.384E-04 2.285E-03

     total cpu time spent up to now is       70.8 secs

     total energy              =    -583.84218261 Ry
     estimated scf accuracy    <       0.00023987 Ry

     total magnetization       =     3.24 Bohr mag/cell
     absolute magnetization    =     3.36 Bohr mag/cell
[tb_dev] Currently allocated     1.03E+00 Mbytes, locked:    0 /   8
[tb_pin] Currently allocated     0.00E+00 Mbytes, locked:    0 /   0

     iteration # 17     ecut=    50.00 Ry     beta= 0.20
     Davidson diagonalization with overlap

---- Real-time Memory Report at c_bands before calling an iterative solver
          1096 MiB given to the printing process from OS
           901 MiB allocation reported by mallinfo(arena+hblkhd)
         58597 MiB available memory on the node where the printing process lives
     GPU memory used/free/total (MiB): 1088 / 15192 / 16280
------------------
     ethr =  4.00E-07,  avg # of iterations =  4.9

     negative rho (up, down):  3.965E-04 2.456E-03

     total cpu time spent up to now is       75.3 secs

     total energy              =    -583.84142339 Ry
     estimated scf accuracy    <       0.00048662 Ry

     total magnetization       =     3.41 Bohr mag/cell
     absolute magnetization    =     3.53 Bohr mag/cell
[tb_dev] Currently allocated     1.03E+00 Mbytes, locked:    0 /   8
[tb_pin] Currently allocated     0.00E+00 Mbytes, locked:    0 /   0

     iteration # 18     ecut=    50.00 Ry     beta= 0.20
     Davidson diagonalization with overlap

---- Real-time Memory Report at c_bands before calling an iterative solver
          1096 MiB given to the printing process from OS
           901 MiB allocation reported by mallinfo(arena+hblkhd)
         58598 MiB available memory on the node where the printing process lives
     GPU memory used/free/total (MiB): 1088 / 15192 / 16280
------------------
     ethr =  4.00E-07,  avg # of iterations =  6.0

     negative rho (up, down):  4.025E-04 2.425E-03

     total cpu time spent up to now is       80.4 secs

     total energy              =    -583.84194449 Ry
     estimated scf accuracy    <       0.00087951 Ry

     total magnetization       =     3.53 Bohr mag/cell
     absolute magnetization    =     3.65 Bohr mag/cell
[tb_dev] Currently allocated     1.03E+00 Mbytes, locked:    0 /   8
[tb_pin] Currently allocated     0.00E+00 Mbytes, locked:    0 /   0

     iteration # 19     ecut=    50.00 Ry     beta= 0.20
     Davidson diagonalization with overlap

---- Real-time Memory Report at c_bands before calling an iterative solver
          1096 MiB given to the printing process from OS
           901 MiB allocation reported by mallinfo(arena+hblkhd)
         58598 MiB available memory on the node where the printing process lives
     GPU memory used/free/total (MiB): 1088 / 15192 / 16280
------------------
     ethr =  4.00E-07,  avg # of iterations =  1.0

     negative rho (up, down):  5.753E-04 2.287E-03

     total cpu time spent up to now is       82.8 secs

     total energy              =    -583.83853759 Ry
     estimated scf accuracy    <       0.00085158 Ry

     total magnetization       =     3.52 Bohr mag/cell
     absolute magnetization    =     3.64 Bohr mag/cell
[tb_dev] Currently allocated     1.03E+00 Mbytes, locked:    0 /   8
[tb_pin] Currently allocated     0.00E+00 Mbytes, locked:    0 /   0

     iteration # 20     ecut=    50.00 Ry     beta= 0.20
     Davidson diagonalization with overlap

---- Real-time Memory Report at c_bands before calling an iterative solver
          1096 MiB given to the printing process from OS
           901 MiB allocation reported by mallinfo(arena+hblkhd)
         58599 MiB available memory on the node where the printing process lives
     GPU memory used/free/total (MiB): 1088 / 15192 / 16280
------------------
     c_bands:  1 eigenvalues not converged
     c_bands:  1 eigenvalues not converged
     c_bands:  1 eigenvalues not converged
     c_bands:  1 eigenvalues not converged
     c_bands:  1 eigenvalues not converged
     c_bands:  1 eigenvalues not converged
     c_bands:  1 eigenvalues not converged
     c_bands:  1 eigenvalues not converged
     c_bands:  1 eigenvalues not converged
     ethr =  4.00E-07,  avg # of iterations =  9.9

     negative rho (up, down):  5.334E-04 2.308E-03

     total cpu time spent up to now is       90.3 secs

     total energy              =    -583.84345276 Ry
     estimated scf accuracy    <       0.00072832 Ry

     total magnetization       =     2.78 Bohr mag/cell
     absolute magnetization    =     2.95 Bohr mag/cell
[tb_dev] Currently allocated     1.03E+00 Mbytes, locked:    0 /   8
[tb_pin] Currently allocated     0.00E+00 Mbytes, locked:    0 /   0

     iteration # 21     ecut=    50.00 Ry     beta= 0.20
     Davidson diagonalization with overlap

---- Real-time Memory Report at c_bands before calling an iterative solver
          1096 MiB given to the printing process from OS
           901 MiB allocation reported by mallinfo(arena+hblkhd)
         58600 MiB available memory on the node where the printing process lives
     GPU memory used/free/total (MiB): 1088 / 15192 / 16280
------------------
     ethr =  4.00E-07,  avg # of iterations =  4.7

     negative rho (up, down):  4.661E-04 2.317E-03

     total cpu time spent up to now is       94.6 secs

     total energy              =    -583.84196364 Ry
     estimated scf accuracy    <       0.00061620 Ry

     total magnetization       =     3.02 Bohr mag/cell
     absolute magnetization    =     3.16 Bohr mag/cell
[tb_dev] Currently allocated     1.03E+00 Mbytes, locked:    0 /   8
[tb_pin] Currently allocated     0.00E+00 Mbytes, locked:    0 /   0

     iteration # 22     ecut=    50.00 Ry     beta= 0.20
     Davidson diagonalization with overlap

---- Real-time Memory Report at c_bands before calling an iterative solver
          1096 MiB given to the printing process from OS
           901 MiB allocation reported by mallinfo(arena+hblkhd)
         58600 MiB available memory on the node where the printing process lives
     GPU memory used/free/total (MiB): 1088 / 15192 / 16280
------------------
     ethr =  4.00E-07,  avg # of iterations =  6.9

     negative rho (up, down):  5.127E-04 2.326E-03

     total cpu time spent up to now is      100.4 secs

     total energy              =    -583.84321097 Ry
     estimated scf accuracy    <       0.00071187 Ry

     total magnetization       =     3.32 Bohr mag/cell
     absolute magnetization    =     3.44 Bohr mag/cell
[tb_dev] Currently allocated     1.03E+00 Mbytes, locked:    0 /   8
[tb_pin] Currently allocated     0.00E+00 Mbytes, locked:    0 /   0

     iteration # 23     ecut=    50.00 Ry     beta= 0.20
     Davidson diagonalization with overlap

---- Real-time Memory Report at c_bands before calling an iterative solver
          1096 MiB given to the printing process from OS
           901 MiB allocation reported by mallinfo(arena+hblkhd)
         58600 MiB available memory on the node where the printing process lives
     GPU memory used/free/total (MiB): 1088 / 15192 / 16280
------------------
     ethr =  4.00E-07,  avg # of iterations =  4.9

     negative rho (up, down):  4.358E-04 2.320E-03

     total cpu time spent up to now is      104.8 secs

     total energy              =    -583.84142449 Ry
     estimated scf accuracy    <       0.00088100 Ry

     total magnetization       =     3.12 Bohr mag/cell
     absolute magnetization    =     3.25 Bohr mag/cell
[tb_dev] Currently allocated     1.03E+00 Mbytes, locked:    0 /   8
[tb_pin] Currently allocated     0.00E+00 Mbytes, locked:    0 /   0

     iteration # 24     ecut=    50.00 Ry     beta= 0.20
     Davidson diagonalization with overlap

---- Real-time Memory Report at c_bands before calling an iterative solver
          1097 MiB given to the printing process from OS
           901 MiB allocation reported by mallinfo(arena+hblkhd)
         58599 MiB available memory on the node where the printing process lives
     GPU memory used/free/total (MiB): 1088 / 15192 / 16280
------------------
     ethr =  4.00E-07,  avg # of iterations =  6.8

     negative rho (up, down):  4.372E-04 2.324E-03

     total cpu time spent up to now is      110.5 secs

     total energy              =    -583.84268106 Ry
     estimated scf accuracy    <       0.00119803 Ry

     total magnetization       =     3.41 Bohr mag/cell
     absolute magnetization    =     3.53 Bohr mag/cell
[tb_dev] Currently allocated     1.03E+00 Mbytes, locked:    0 /   8
[tb_pin] Currently allocated     0.00E+00 Mbytes, locked:    0 /   0

     iteration # 25     ecut=    50.00 Ry     beta= 0.20
     Davidson diagonalization with overlap

---- Real-time Memory Report at c_bands before calling an iterative solver
          1097 MiB given to the printing process from OS
           901 MiB allocation reported by mallinfo(arena+hblkhd)
         58600 MiB available memory on the node where the printing process lives
     GPU memory used/free/total (MiB): 1088 / 15192 / 16280
------------------
     ethr =  4.00E-07,  avg # of iterations =  1.0

     negative rho (up, down):  4.119E-04 2.401E-03

     total cpu time spent up to now is      112.8 secs

     total energy              =    -583.84206965 Ry
     estimated scf accuracy    <       0.00119902 Ry

     total magnetization       =     3.40 Bohr mag/cell
     absolute magnetization    =     3.52 Bohr mag/cell
[tb_dev] Currently allocated     1.03E+00 Mbytes, locked:    0 /   8
[tb_pin] Currently allocated     0.00E+00 Mbytes, locked:    0 /   0

     iteration # 26     ecut=    50.00 Ry     beta= 0.20
     Davidson diagonalization with overlap

---- Real-time Memory Report at c_bands before calling an iterative solver
          1097 MiB given to the printing process from OS
           901 MiB allocation reported by mallinfo(arena+hblkhd)
         58600 MiB available memory on the node where the printing process lives
     GPU memory used/free/total (MiB): 1088 / 15192 / 16280
------------------
     ethr =  4.00E-07,  avg # of iterations =  3.7

     negative rho (up, down):  2.669E-04 3.114E-03

     total cpu time spent up to now is      116.5 secs

     total energy              =    -583.83423192 Ry
     estimated scf accuracy    <       0.00143106 Ry

     total magnetization       =     3.48 Bohr mag/cell
     absolute magnetization    =     3.60 Bohr mag/cell
[tb_dev] Currently allocated     1.03E+00 Mbytes, locked:    0 /   8
[tb_pin] Currently allocated     0.00E+00 Mbytes, locked:    0 /   0

     iteration # 27     ecut=    50.00 Ry     beta= 0.20
     Davidson diagonalization with overlap

---- Real-time Memory Report at c_bands before calling an iterative solver
          1097 MiB given to the printing process from OS
           901 MiB allocation reported by mallinfo(arena+hblkhd)
         58600 MiB available memory on the node where the printing process lives
     GPU memory used/free/total (MiB): 1088 / 15192 / 16280
------------------
     c_bands:  1 eigenvalues not converged
     c_bands:  1 eigenvalues not converged
     c_bands:  1 eigenvalues not converged
     c_bands:  1 eigenvalues not converged
     c_bands:  1 eigenvalues not converged
     c_bands:  1 eigenvalues not converged
     c_bands:  1 eigenvalues not converged
     c_bands:  1 eigenvalues not converged
     c_bands:  1 eigenvalues not converged
     c_bands:  1 eigenvalues not converged
     c_bands:  1 eigenvalues not converged
     c_bands:  1 eigenvalues not converged
     c_bands:  1 eigenvalues not converged
     c_bands:  1 eigenvalues not converged
     c_bands:  1 eigenvalues not converged
     c_bands:  1 eigenvalues not converged
     ethr =  4.00E-07,  avg # of iterations = 10.0

     negative rho (up, down):  5.052E-04 2.293E-03

     total cpu time spent up to now is      124.1 secs

     total energy              =    -583.83528515 Ry
     estimated scf accuracy    <       0.00593058 Ry

     total magnetization       =     3.79 Bohr mag/cell
     absolute magnetization    =     3.92 Bohr mag/cell
[tb_dev] Currently allocated     1.03E+00 Mbytes, locked:    0 /   8
[tb_pin] Currently allocated     0.00E+00 Mbytes, locked:    0 /   0

     iteration # 28     ecut=    50.00 Ry     beta= 0.20
     Davidson diagonalization with overlap

---- Real-time Memory Report at c_bands before calling an iterative solver
          1097 MiB given to the printing process from OS
           901 MiB allocation reported by mallinfo(arena+hblkhd)
         58601 MiB available memory on the node where the printing process lives
     GPU memory used/free/total (MiB): 1088 / 15192 / 16280
------------------
     c_bands:  1 eigenvalues not converged
     c_bands:  1 eigenvalues not converged
     c_bands:  1 eigenvalues not converged
     c_bands:  1 eigenvalues not converged
     c_bands:  1 eigenvalues not converged
     c_bands:  1 eigenvalues not converged
     c_bands:  1 eigenvalues not converged
     c_bands:  1 eigenvalues not converged
     c_bands:  1 eigenvalues not converged
     c_bands:  1 eigenvalues not converged
     ethr =  4.00E-07,  avg # of iterations = 10.9

     negative rho (up, down):  4.643E-04 2.312E-03

     total cpu time spent up to now is      132.4 secs

     total energy              =    -583.84273878 Ry
     estimated scf accuracy    <       0.00026243 Ry

     total magnetization       =     3.19 Bohr mag/cell
     absolute magnetization    =     3.31 Bohr mag/cell
[tb_dev] Currently allocated     1.03E+00 Mbytes, locked:    0 /   8
[tb_pin] Currently allocated     0.00E+00 Mbytes, locked:    0 /   0

     iteration # 29     ecut=    50.00 Ry     beta= 0.20
     Davidson diagonalization with overlap

---- Real-time Memory Report at c_bands before calling an iterative solver
          1097 MiB given to the printing process from OS
           901 MiB allocation reported by mallinfo(arena+hblkhd)
         58601 MiB available memory on the node where the printing process lives
     GPU memory used/free/total (MiB): 1088 / 15192 / 16280
------------------
     ethr =  4.00E-07,  avg # of iterations =  4.7

     negative rho (up, down):  4.692E-04 2.331E-03

     total cpu time spent up to now is      136.8 secs

     total energy              =    -583.84304590 Ry
     estimated scf accuracy    <       0.00057167 Ry

     total magnetization       =     3.33 Bohr mag/cell
     absolute magnetization    =     3.45 Bohr mag/cell
[tb_dev] Currently allocated     1.03E+00 Mbytes, locked:    0 /   8
[tb_pin] Currently allocated     0.00E+00 Mbytes, locked:    0 /   0

     iteration # 30     ecut=    50.00 Ry     beta= 0.20
     Davidson diagonalization with overlap

---- Real-time Memory Report at c_bands before calling an iterative solver
          1097 MiB given to the printing process from OS
           901 MiB allocation reported by mallinfo(arena+hblkhd)
         58601 MiB available memory on the node where the printing process lives
     GPU memory used/free/total (MiB): 1088 / 15192 / 16280
------------------
     ethr =  4.00E-07,  avg # of iterations =  1.0

     negative rho (up, down):  5.034E-04 2.324E-03

     total cpu time spent up to now is      139.4 secs

     total energy              =    -583.84325380 Ry
     estimated scf accuracy    <       0.00064729 Ry

     total magnetization       =     3.33 Bohr mag/cell
     absolute magnetization    =     3.45 Bohr mag/cell
[tb_dev] Currently allocated     1.03E+00 Mbytes, locked:    0 /   8
[tb_pin] Currently allocated     0.00E+00 Mbytes, locked:    0 /   0

     iteration # 31     ecut=    50.00 Ry     beta= 0.20
     Davidson diagonalization with overlap

---- Real-time Memory Report at c_bands before calling an iterative solver
          1097 MiB given to the printing process from OS
           901 MiB allocation reported by mallinfo(arena+hblkhd)
         58601 MiB available memory on the node where the printing process lives
     GPU memory used/free/total (MiB): 1088 / 15192 / 16280
------------------
     ethr =  4.00E-07,  avg # of iterations =  4.0

     negative rho (up, down):  5.087E-04 2.313E-03

     total cpu time spent up to now is      143.3 secs

     total energy              =    -583.84354955 Ry
     estimated scf accuracy    <       0.00051997 Ry

     total magnetization       =     3.20 Bohr mag/cell
     absolute magnetization    =     3.33 Bohr mag/cell
[tb_dev] Currently allocated     1.03E+00 Mbytes, locked:    0 /   8
[tb_pin] Currently allocated     0.00E+00 Mbytes, locked:    0 /   0

     iteration # 32     ecut=    50.00 Ry     beta= 0.20
     Davidson diagonalization with overlap

---- Real-time Memory Report at c_bands before calling an iterative solver
          1097 MiB given to the printing process from OS
           901 MiB allocation reported by mallinfo(arena+hblkhd)
         58602 MiB available memory on the node where the printing process lives
     GPU memory used/free/total (MiB): 1088 / 15192 / 16280
------------------
     ethr =  4.00E-07,  avg # of iterations =  1.1

     negative rho (up, down):  5.405E-04 2.313E-03

     total cpu time spent up to now is      145.7 secs

     total energy              =    -583.84368309 Ry
     estimated scf accuracy    <       0.00059776 Ry

     total magnetization       =     3.17 Bohr mag/cell
     absolute magnetization    =     3.30 Bohr mag/cell
[tb_dev] Currently allocated     1.03E+00 Mbytes, locked:    0 /   8
[tb_pin] Currently allocated     0.00E+00 Mbytes, locked:    0 /   0

     iteration # 33     ecut=    50.00 Ry     beta= 0.20
     Davidson diagonalization with overlap

---- Real-time Memory Report at c_bands before calling an iterative solver
          1097 MiB given to the printing process from OS
           901 MiB allocation reported by mallinfo(arena+hblkhd)
         58601 MiB available memory on the node where the printing process lives
     GPU memory used/free/total (MiB): 1088 / 15192 / 16280
------------------
     ethr =  4.00E-07,  avg # of iterations =  5.3

     negative rho (up, down):  5.026E-04 2.323E-03

     total cpu time spent up to now is      150.4 secs

     total energy              =    -583.84312823 Ry
     estimated scf accuracy    <       0.00067180 Ry

     total magnetization       =     3.01 Bohr mag/cell
     absolute magnetization    =     3.15 Bohr mag/cell
[tb_dev] Currently allocated     1.03E+00 Mbytes, locked:    0 /   8
[tb_pin] Currently allocated     0.00E+00 Mbytes, locked:    0 /   0

     iteration # 34     ecut=    50.00 Ry     beta= 0.20
     Davidson diagonalization with overlap

---- Real-time Memory Report at c_bands before calling an iterative solver
          1097 MiB given to the printing process from OS
           901 MiB allocation reported by mallinfo(arena+hblkhd)
         58601 MiB available memory on the node where the printing process lives
     GPU memory used/free/total (MiB): 1088 / 15192 / 16280
------------------
     ethr =  4.00E-07,  avg # of iterations =  4.5

     negative rho (up, down):  4.999E-04 2.326E-03

     total cpu time spent up to now is      154.6 secs

     total energy              =    -583.84341421 Ry
     estimated scf accuracy    <       0.00060806 Ry

     total magnetization       =     3.19 Bohr mag/cell
     absolute magnetization    =     3.32 Bohr mag/cell
[tb_dev] Currently allocated     1.03E+00 Mbytes, locked:    0 /   8
[tb_pin] Currently allocated     0.00E+00 Mbytes, locked:    0 /   0

     iteration # 35     ecut=    50.00 Ry     beta= 0.20
     Davidson diagonalization with overlap

---- Real-time Memory Report at c_bands before calling an iterative solver
          1097 MiB given to the printing process from OS
           901 MiB allocation reported by mallinfo(arena+hblkhd)
         58601 MiB available memory on the node where the printing process lives
     GPU memory used/free/total (MiB): 1088 / 15192 / 16280
------------------
     ethr =  4.00E-07,  avg # of iterations =  1.0

     negative rho (up, down):  5.035E-04 2.331E-03

     total cpu time spent up to now is      156.9 secs

     total energy              =    -583.84346690 Ry
     estimated scf accuracy    <       0.00056413 Ry

     total magnetization       =     3.22 Bohr mag/cell
     absolute magnetization    =     3.34 Bohr mag/cell
[tb_dev] Currently allocated     1.03E+00 Mbytes, locked:    0 /   8
[tb_pin] Currently allocated     0.00E+00 Mbytes, locked:    0 /   0

     iteration # 36     ecut=    50.00 Ry     beta= 0.20
     Davidson diagonalization with overlap

---- Real-time Memory Report at c_bands before calling an iterative solver
          1097 MiB given to the printing process from OS
           901 MiB allocation reported by mallinfo(arena+hblkhd)
         58601 MiB available memory on the node where the printing process lives
     GPU memory used/free/total (MiB): 1088 / 15192 / 16280
------------------
     ethr =  4.00E-07,  avg # of iterations =  1.0

     negative rho (up, down):  3.275E-04 2.922E-03

     total cpu time spent up to now is      159.3 secs

     total energy              =    -583.83431833 Ry
     estimated scf accuracy    <       0.00054500 Ry

     total magnetization       =     3.20 Bohr mag/cell
     absolute magnetization    =     3.33 Bohr mag/cell
[tb_dev] Currently allocated     1.03E+00 Mbytes, locked:    0 /   8
[tb_pin] Currently allocated     0.00E+00 Mbytes, locked:    0 /   0

     iteration # 37     ecut=    50.00 Ry     beta= 0.20
     Davidson diagonalization with overlap

---- Real-time Memory Report at c_bands before calling an iterative solver
          1097 MiB given to the printing process from OS
           901 MiB allocation reported by mallinfo(arena+hblkhd)
         58602 MiB available memory on the node where the printing process lives
     GPU memory used/free/total (MiB): 1088 / 15192 / 16280
------------------
     c_bands:  1 eigenvalues not converged
     c_bands:  1 eigenvalues not converged
     c_bands:  1 eigenvalues not converged
     c_bands:  1 eigenvalues not converged
     c_bands:  1 eigenvalues not converged
     c_bands:  1 eigenvalues not converged
     c_bands:  1 eigenvalues not converged
     c_bands:  1 eigenvalues not converged
     c_bands:  1 eigenvalues not converged
     c_bands:  1 eigenvalues not converged
     c_bands:  1 eigenvalues not converged
     c_bands:  1 eigenvalues not converged
     c_bands:  1 eigenvalues not converged
     c_bands:  1 eigenvalues not converged
     c_bands:  1 eigenvalues not converged
     ethr =  4.00E-07,  avg # of iterations = 10.1

     negative rho (up, down):  6.127E-04 2.294E-03

     total cpu time spent up to now is      166.9 secs

     total energy              =    -583.83093294 Ry
     estimated scf accuracy    <       0.00394404 Ry

     total magnetization       =     3.69 Bohr mag/cell
     absolute magnetization    =     3.82 Bohr mag/cell
[tb_dev] Currently allocated     1.03E+00 Mbytes, locked:    0 /   8
[tb_pin] Currently allocated     0.00E+00 Mbytes, locked:    0 /   0

     iteration # 38     ecut=    50.00 Ry     beta= 0.20
     Davidson diagonalization with overlap

---- Real-time Memory Report at c_bands before calling an iterative solver
          1097 MiB given to the printing process from OS
           901 MiB allocation reported by mallinfo(arena+hblkhd)
         58602 MiB available memory on the node where the printing process lives
     GPU memory used/free/total (MiB): 1088 / 15192 / 16280
------------------
     c_bands:  2 eigenvalues not converged
     c_bands:  1 eigenvalues not converged
     c_bands:  2 eigenvalues not converged
     c_bands:  2 eigenvalues not converged
     c_bands:  1 eigenvalues not converged
     c_bands:  1 eigenvalues not converged
     c_bands:  1 eigenvalues not converged
     c_bands:  1 eigenvalues not converged
     c_bands:  2 eigenvalues not converged
     c_bands:  1 eigenvalues not converged
     c_bands:  1 eigenvalues not converged
     c_bands:  1 eigenvalues not converged
     c_bands:  1 eigenvalues not converged
     c_bands:  1 eigenvalues not converged
     c_bands:  1 eigenvalues not converged
     ethr =  4.00E-07,  avg # of iterations = 11.8

     negative rho (up, down):  5.419E-04 2.310E-03

     total cpu time spent up to now is      175.8 secs

     total energy              =    -583.84244264 Ry
     estimated scf accuracy    <       0.00113785 Ry

     total magnetization       =     2.57 Bohr mag/cell
     absolute magnetization    =     2.82 Bohr mag/cell
[tb_dev] Currently allocated     1.03E+00 Mbytes, locked:    0 /   8
[tb_pin] Currently allocated     0.00E+00 Mbytes, locked:    0 /   0

     iteration # 39     ecut=    50.00 Ry     beta= 0.20
     Davidson diagonalization with overlap

---- Real-time Memory Report at c_bands before calling an iterative solver
          1097 MiB given to the printing process from OS
           901 MiB allocation reported by mallinfo(arena+hblkhd)
         58602 MiB available memory on the node where the printing process lives
     GPU memory used/free/total (MiB): 1088 / 15192 / 16280
------------------
     ethr =  4.00E-07,  avg # of iterations =  6.9

     negative rho (up, down):  4.819E-04 2.341E-03

     total cpu time spent up to now is      181.5 secs

     total energy              =    -583.84237267 Ry
     estimated scf accuracy    <       0.00050227 Ry

     total magnetization       =     3.01 Bohr mag/cell
     absolute magnetization    =     3.15 Bohr mag/cell
[tb_dev] Currently allocated     1.03E+00 Mbytes, locked:    0 /   8
[tb_pin] Currently allocated     0.00E+00 Mbytes, locked:    0 /   0

     iteration # 40     ecut=    50.00 Ry     beta= 0.20
     Davidson diagonalization with overlap

---- Real-time Memory Report at c_bands before calling an iterative solver
          1097 MiB given to the printing process from OS
           901 MiB allocation reported by mallinfo(arena+hblkhd)
         58602 MiB available memory on the node where the printing process lives
     GPU memory used/free/total (MiB): 1088 / 15192 / 16280
------------------
     ethr =  4.00E-07,  avg # of iterations =  6.4

     negative rho (up, down):  3.968E-04 2.513E-03

     total cpu time spent up to now is      186.9 secs

     total energy              =    -583.84053195 Ry
     estimated scf accuracy    <       0.00054578 Ry

     total magnetization       =     3.28 Bohr mag/cell
     absolute magnetization    =     3.41 Bohr mag/cell
[tb_dev] Currently allocated     1.03E+00 Mbytes, locked:    0 /   8
[tb_pin] Currently allocated     0.00E+00 Mbytes, locked:    0 /   0

     iteration # 41     ecut=    50.00 Ry     beta= 0.20
     Davidson diagonalization with overlap

---- Real-time Memory Report at c_bands before calling an iterative solver
          1097 MiB given to the printing process from OS
           901 MiB allocation reported by mallinfo(arena+hblkhd)
         58602 MiB available memory on the node where the printing process lives
     GPU memory used/free/total (MiB): 1088 / 15192 / 16280
------------------
     c_bands:  1 eigenvalues not converged
     ethr =  4.00E-07,  avg # of iterations =  7.6

     negative rho (up, down):  4.489E-04 2.353E-03

     total cpu time spent up to now is      193.1 secs

     total energy              =    -583.84235773 Ry
     estimated scf accuracy    <       0.00179549 Ry

     total magnetization       =     3.53 Bohr mag/cell
     absolute magnetization    =     3.65 Bohr mag/cell
[tb_dev] Currently allocated     1.03E+00 Mbytes, locked:    0 /   8
[tb_pin] Currently allocated     0.00E+00 Mbytes, locked:    0 /   0

     iteration # 42     ecut=    50.00 Ry     beta= 0.20
     Davidson diagonalization with overlap

---- Real-time Memory Report at c_bands before calling an iterative solver
          1097 MiB given to the printing process from OS
           901 MiB allocation reported by mallinfo(arena+hblkhd)
         58602 MiB available memory on the node where the printing process lives
     GPU memory used/free/total (MiB): 1088 / 15192 / 16280
------------------
     ethr =  4.00E-07,  avg # of iterations =  5.3

     negative rho (up, down):  5.084E-04 2.339E-03

     total cpu time spent up to now is      197.9 secs

     total energy              =    -583.84286699 Ry
     estimated scf accuracy    <       0.00090672 Ry

     total magnetization       =     3.39 Bohr mag/cell
     absolute magnetization    =     3.51 Bohr mag/cell
[tb_dev] Currently allocated     1.03E+00 Mbytes, locked:    0 /   8
[tb_pin] Currently allocated     0.00E+00 Mbytes, locked:    0 /   0

     iteration # 43     ecut=    50.00 Ry     beta= 0.20
     Davidson diagonalization with overlap

---- Real-time Memory Report at c_bands before calling an iterative solver
          1097 MiB given to the printing process from OS
           901 MiB allocation reported by mallinfo(arena+hblkhd)
         58602 MiB available memory on the node where the printing process lives
     GPU memory used/free/total (MiB): 1088 / 15192 / 16280
------------------
     ethr =  4.00E-07,  avg # of iterations =  6.6

     negative rho (up, down):  5.324E-04 2.339E-03

     total cpu time spent up to now is      203.7 secs

     total energy              =    -583.84372137 Ry
     estimated scf accuracy    <       0.00053719 Ry

     total magnetization       =     3.17 Bohr mag/cell
     absolute magnetization    =     3.30 Bohr mag/cell
[tb_dev] Currently allocated     1.03E+00 Mbytes, locked:    0 /   8
[tb_pin] Currently allocated     0.00E+00 Mbytes, locked:    0 /   0

     iteration # 44     ecut=    50.00 Ry     beta= 0.20
     Davidson diagonalization with overlap

---- Real-time Memory Report at c_bands before calling an iterative solver
          1097 MiB given to the printing process from OS
           901 MiB allocation reported by mallinfo(arena+hblkhd)
         58603 MiB available memory on the node where the printing process lives
     GPU memory used/free/total (MiB): 1088 / 15192 / 16280
------------------
     ethr =  4.00E-07,  avg # of iterations =  3.8

     negative rho (up, down):  5.785E-04 2.337E-03

     total cpu time spent up to now is      208.0 secs

     total energy              =    -583.84388652 Ry
     estimated scf accuracy    <       0.00050558 Ry

     total magnetization       =     3.06 Bohr mag/cell
     absolute magnetization    =     3.20 Bohr mag/cell
[tb_dev] Currently allocated     1.03E+00 Mbytes, locked:    0 /   8
[tb_pin] Currently allocated     0.00E+00 Mbytes, locked:    0 /   0

     iteration # 45     ecut=    50.00 Ry     beta= 0.20
     Davidson diagonalization with overlap

---- Real-time Memory Report at c_bands before calling an iterative solver
          1097 MiB given to the printing process from OS
           901 MiB allocation reported by mallinfo(arena+hblkhd)
         58603 MiB available memory on the node where the printing process lives
     GPU memory used/free/total (MiB): 1088 / 15192 / 16280
------------------
     ethr =  4.00E-07,  avg # of iterations =  5.7

     negative rho (up, down):  5.701E-04 2.334E-03

     total cpu time spent up to now is      213.0 secs

     total energy              =    -583.84432865 Ry
     estimated scf accuracy    <       0.00068545 Ry

     total magnetization       =     2.80 Bohr mag/cell
     absolute magnetization    =     2.97 Bohr mag/cell
[tb_dev] Currently allocated     1.03E+00 Mbytes, locked:    0 /   8
[tb_pin] Currently allocated     0.00E+00 Mbytes, locked:    0 /   0

     iteration # 46     ecut=    50.00 Ry     beta= 0.20
     Davidson diagonalization with overlap

---- Real-time Memory Report at c_bands before calling an iterative solver
          1097 MiB given to the printing process from OS
           901 MiB allocation reported by mallinfo(arena+hblkhd)
         58604 MiB available memory on the node where the printing process lives
     GPU memory used/free/total (MiB): 1088 / 15192 / 16280
------------------
     ethr =  4.00E-07,  avg # of iterations =  1.0

     negative rho (up, down):  5.363E-04 2.346E-03

     total cpu time spent up to now is      215.4 secs

     total energy              =    -583.84360134 Ry
     estimated scf accuracy    <       0.00057732 Ry

     total magnetization       =     2.85 Bohr mag/cell
     absolute magnetization    =     3.01 Bohr mag/cell
[tb_dev] Currently allocated     1.03E+00 Mbytes, locked:    0 /   8
[tb_pin] Currently allocated     0.00E+00 Mbytes, locked:    0 /   0

     iteration # 47     ecut=    50.00 Ry     beta= 0.20
     Davidson diagonalization with overlap

---- Real-time Memory Report at c_bands before calling an iterative solver
          1097 MiB given to the printing process from OS
           901 MiB allocation reported by mallinfo(arena+hblkhd)
         58603 MiB available memory on the node where the printing process lives
     GPU memory used/free/total (MiB): 1088 / 15192 / 16280
------------------
     ethr =  4.00E-07,  avg # of iterations =  4.0

     negative rho (up, down):  5.149E-04 2.346E-03

     total cpu time spent up to now is      219.4 secs

     total energy              =    -583.84349766 Ry
     estimated scf accuracy    <       0.00050219 Ry

     total magnetization       =     3.04 Bohr mag/cell
     absolute magnetization    =     3.17 Bohr mag/cell
[tb_dev] Currently allocated     1.03E+00 Mbytes, locked:    0 /   8
[tb_pin] Currently allocated     0.00E+00 Mbytes, locked:    0 /   0

     iteration # 48     ecut=    50.00 Ry     beta= 0.20
     Davidson diagonalization with overlap

---- Real-time Memory Report at c_bands before calling an iterative solver
          1097 MiB given to the printing process from OS
           901 MiB allocation reported by mallinfo(arena+hblkhd)
         58604 MiB available memory on the node where the printing process lives
     GPU memory used/free/total (MiB): 1088 / 15192 / 16280
------------------
     ethr =  4.00E-07,  avg # of iterations =  4.2

     negative rho (up, down):  5.860E-04 2.330E-03

     total cpu time spent up to now is      223.2 secs

     total energy              =    -583.84334798 Ry
     estimated scf accuracy    <       0.00043636 Ry

[...]
         58613 MiB available memory on the node where the printing process lives
     GPU memory used/free/total (MiB): 1088 / 15192 / 16280
------------------
     ethr =  4.00E-07,  avg # of iterations =  3.3

     negative rho (up, down):  4.703E-04 2.267E-03

     total cpu time spent up to now is      310.4 secs

     total energy              =    -583.84310944 Ry
     estimated scf accuracy    <       0.00027692 Ry

     total magnetization       =     3.32 Bohr mag/cell
     absolute magnetization    =     3.44 Bohr mag/cell
[tb_dev] Currently allocated     1.03E+00 Mbytes, locked:    0 /   8
[tb_pin] Currently allocated     0.00E+00 Mbytes, locked:    0 /   0

     iteration # 67     ecut=    50.00 Ry     beta= 0.20
     Davidson diagonalization with overlap

---- Real-time Memory Report at c_bands before calling an iterative solver
          1097 MiB given to the printing process from OS
           901 MiB allocation reported by mallinfo(arena+hblkhd)
         58613 MiB available memory on the node where the printing process lives
     GPU memory used/free/total (MiB): 1088 / 15192 / 16280
------------------
     ethr =  4.00E-07,  avg # of iterations =  1.0

     negative rho (up, down):  4.461E-04 2.262E-03

     total cpu time spent up to now is      312.7 secs

     total energy              =    -583.84264731 Ry
     estimated scf accuracy    <       0.00024371 Ry

     total magnetization       =     3.32 Bohr mag/cell
     absolute magnetization    =     3.44 Bohr mag/cell
[tb_dev] Currently allocated     1.03E+00 Mbytes, locked:    0 /   8
[tb_pin] Currently allocated     0.00E+00 Mbytes, locked:    0 /   0

     iteration # 68     ecut=    50.00 Ry     beta= 0.20
     Davidson diagonalization with overlap

---- Real-time Memory Report at c_bands before calling an iterative solver
          1097 MiB given to the printing process from OS
           901 MiB allocation reported by mallinfo(arena+hblkhd)
         58613 MiB available memory on the node where the printing process lives
     GPU memory used/free/total (MiB): 1088 / 15192 / 16280
------------------
     ethr =  4.00E-07,  avg # of iterations =  2.9

     negative rho (up, down):  3.668E-04 2.589E-03

     total cpu time spent up to now is      315.9 secs

     total energy              =    -583.83966010 Ry
     estimated scf accuracy    <       0.00036487 Ry

     total magnetization       =     3.40 Bohr mag/cell
     absolute magnetization    =     3.52 Bohr mag/cell
[tb_dev] Currently allocated     1.03E+00 Mbytes, locked:    0 /   8
[tb_pin] Currently allocated     0.00E+00 Mbytes, locked:    0 /   0

     iteration # 69     ecut=    50.00 Ry     beta= 0.20
     Davidson diagonalization with overlap

---- Real-time Memory Report at c_bands before calling an iterative solver
          1097 MiB given to the printing process from OS
           901 MiB allocation reported by mallinfo(arena+hblkhd)
         58614 MiB available memory on the node where the printing process lives
     GPU memory used/free/total (MiB): 1088 / 15192 / 16280
------------------
     c_bands:  1 eigenvalues not converged
     c_bands:  1 eigenvalues not converged
     ethr =  4.00E-07,  avg # of iterations =  7.8

     negative rho (up, down):  6.093E-04 2.348E-03

     total cpu time spent up to now is      322.3 secs

     total energy              =    -583.83365986 Ry
     estimated scf accuracy    <       0.00138365 Ry

     total magnetization       =     3.60 Bohr mag/cell
     absolute magnetization    =     3.72 Bohr mag/cell
[tb_dev] Currently allocated     1.03E+00 Mbytes, locked:    0 /   8
[tb_pin] Currently allocated     0.00E+00 Mbytes, locked:    0 /   0

     iteration # 70     ecut=    50.00 Ry     beta= 0.20
     Davidson diagonalization with overlap

---- Real-time Memory Report at c_bands before calling an iterative solver
          1097 MiB given to the printing process from OS
           901 MiB allocation reported by mallinfo(arena+hblkhd)
         58614 MiB available memory on the node where the printing process lives
     GPU memory used/free/total (MiB): 1088 / 15192 / 16280
------------------
     c_bands:  1 eigenvalues not converged
     c_bands:  1 eigenvalues not converged
     c_bands:  1 eigenvalues not converged
     c_bands:  1 eigenvalues not converged
     c_bands:  1 eigenvalues not converged
     c_bands:  1 eigenvalues not converged
     ethr =  4.00E-07,  avg # of iterations = 10.8

     negative rho (up, down):  5.136E-04 2.324E-03

     total cpu time spent up to now is      330.6 secs

     total energy              =    -583.84115255 Ry
     estimated scf accuracy    <       0.00104845 Ry

     total magnetization       =     2.62 Bohr mag/cell
     absolute magnetization    =     2.86 Bohr mag/cell
[tb_dev] Currently allocated     1.03E+00 Mbytes, locked:    0 /   8
[tb_pin] Currently allocated     0.00E+00 Mbytes, locked:    0 /   0

     iteration # 71     ecut=    50.00 Ry     beta= 0.20
     Davidson diagonalization with overlap

---- Real-time Memory Report at c_bands before calling an iterative solver
          1097 MiB given to the printing process from OS
           901 MiB allocation reported by mallinfo(arena+hblkhd)
         58614 MiB available memory on the node where the printing process lives
     GPU memory used/free/total (MiB): 1088 / 15192 / 16280
------------------
     ethr =  4.00E-07,  avg # of iterations =  7.4

     negative rho (up, down):  4.619E-04 2.313E-03

     total cpu time spent up to now is      336.7 secs

     total energy              =    -583.84243866 Ry
     estimated scf accuracy    <       0.00044277 Ry

     total magnetization       =     3.14 Bohr mag/cell
     absolute magnetization    =     3.27 Bohr mag/cell
[tb_dev] Currently allocated     1.03E+00 Mbytes, locked:    0 /   8
[tb_pin] Currently allocated     0.00E+00 Mbytes, locked:    0 /   0

     iteration # 72     ecut=    50.00 Ry     beta= 0.20
     Davidson diagonalization with overlap

---- Real-time Memory Report at c_bands before calling an iterative solver
          1097 MiB given to the printing process from OS
           901 MiB allocation reported by mallinfo(arena+hblkhd)
         58614 MiB available memory on the node where the printing process lives
     GPU memory used/free/total (MiB): 1088 / 15192 / 16280
------------------
     c_bands:  1 eigenvalues not converged
     ethr =  4.00E-07,  avg # of iterations =  5.8

     negative rho (up, down):  4.610E-04 2.312E-03

     total cpu time spent up to now is      341.8 secs

     total energy              =    -583.84299009 Ry
     estimated scf accuracy    <       0.00060557 Ry

     total magnetization       =     3.34 Bohr mag/cell
     absolute magnetization    =     3.46 Bohr mag/cell
[tb_dev] Currently allocated     1.03E+00 Mbytes, locked:    0 /   8
[tb_pin] Currently allocated     0.00E+00 Mbytes, locked:    0 /   0

     iteration # 73     ecut=    50.00 Ry     beta= 0.20
     Davidson diagonalization with overlap

---- Real-time Memory Report at c_bands before calling an iterative solver
          1097 MiB given to the printing process from OS
           901 MiB allocation reported by mallinfo(arena+hblkhd)
         58614 MiB available memory on the node where the printing process lives
     GPU memory used/free/total (MiB): 1088 / 15192 / 16280
------------------
     ethr =  4.00E-07,  avg # of iterations =  1.0

     negative rho (up, down):  3.927E-04 2.483E-03

     total cpu time spent up to now is      344.2 secs

     total energy              =    -583.84085189 Ry
     estimated scf accuracy    <       0.00059193 Ry

     total magnetization       =     3.34 Bohr mag/cell
     absolute magnetization    =     3.46 Bohr mag/cell
[tb_dev] Currently allocated     1.03E+00 Mbytes, locked:    0 /   8
[tb_pin] Currently allocated     0.00E+00 Mbytes, locked:    0 /   0

     iteration # 74     ecut=    50.00 Ry     beta= 0.20
     Davidson diagonalization with overlap

---- Real-time Memory Report at c_bands before calling an iterative solver
          1097 MiB given to the printing process from OS
           901 MiB allocation reported by mallinfo(arena+hblkhd)
         58614 MiB available memory on the node where the printing process lives
     GPU memory used/free/total (MiB): 1088 / 15192 / 16280
------------------
     c_bands:  1 eigenvalues not converged
     ethr =  4.00E-07,  avg # of iterations =  7.1

     negative rho (up, down):  6.337E-04 2.348E-03

     total cpu time spent up to now is      350.1 secs

     total energy              =    -583.83389748 Ry
     estimated scf accuracy    <       0.00152769 Ry

     total magnetization       =     3.53 Bohr mag/cell
     absolute magnetization    =     3.65 Bohr mag/cell
[tb_dev] Currently allocated     1.03E+00 Mbytes, locked:    0 /   8
[tb_pin] Currently allocated     0.00E+00 Mbytes, locked:    0 /   0

     iteration # 75     ecut=    50.00 Ry     beta= 0.20
     Davidson diagonalization with overlap

---- Real-time Memory Report at c_bands before calling an iterative solver
          1097 MiB given to the printing process from OS
           901 MiB allocation reported by mallinfo(arena+hblkhd)
         58615 MiB available memory on the node where the printing process lives
     GPU memory used/free/total (MiB): 1088 / 15192 / 16280
------------------
     c_bands:  1 eigenvalues not converged
     ethr =  4.00E-07,  avg # of iterations = 10.7

     negative rho (up, down):  3.711E-04 2.590E-03

     total cpu time spent up to now is      358.4 secs

     total energy              =    -583.82302047 Ry
     estimated scf accuracy    <       0.00162453 Ry

     total magnetization       =     2.44 Bohr mag/cell
     absolute magnetization    =     2.76 Bohr mag/cell
[tb_dev] Currently allocated     1.03E+00 Mbytes, locked:    0 /   8
[tb_pin] Currently allocated     0.00E+00 Mbytes, locked:    0 /   0

     iteration # 76     ecut=    50.00 Ry     beta= 0.20
     Davidson diagonalization with overlap

---- Real-time Memory Report at c_bands before calling an iterative solver
          1097 MiB given to the printing process from OS
           901 MiB allocation reported by mallinfo(arena+hblkhd)
         58615 MiB available memory on the node where the printing process lives
     GPU memory used/free/total (MiB): 1088 / 15192 / 16280
------------------
     c_bands:  1 eigenvalues not converged
     c_bands:  1 eigenvalues not converged
     c_bands:  1 eigenvalues not converged
     c_bands:  1 eigenvalues not converged
     c_bands:  1 eigenvalues not converged
     c_bands:  1 eigenvalues not converged
     c_bands:  1 eigenvalues not converged
     c_bands:  1 eigenvalues not converged
     ethr =  4.00E-07,  avg # of iterations = 11.1

     negative rho (up, down):  3.043E-04 2.938E-03

     total cpu time spent up to now is      366.9 secs

     total energy              =    -583.83798779 Ry
     estimated scf accuracy    <       0.00194306 Ry

     total magnetization       =     3.58 Bohr mag/cell
     absolute magnetization    =     3.70 Bohr mag/cell
[tb_dev] Currently allocated     1.03E+00 Mbytes, locked:    0 /   8
[tb_pin] Currently allocated     0.00E+00 Mbytes, locked:    0 /   0

     iteration # 77     ecut=    50.00 Ry     beta= 0.20
     Davidson diagonalization with overlap

---- Real-time Memory Report at c_bands before calling an iterative solver
          1097 MiB given to the printing process from OS
           901 MiB allocation reported by mallinfo(arena+hblkhd)
         58615 MiB available memory on the node where the printing process lives
     GPU memory used/free/total (MiB): 1088 / 15192 / 16280
------------------
     c_bands:  1 eigenvalues not converged
     c_bands:  1 eigenvalues not converged
     c_bands:  1 eigenvalues not converged
     c_bands:  1 eigenvalues not converged
     c_bands:  1 eigenvalues not converged
     ethr =  4.00E-07,  avg # of iterations =  7.4

     negative rho (up, down):  2.668E-04 3.131E-03

     total cpu time spent up to now is      373.0 secs

     total energy              =    -583.83674445 Ry
     estimated scf accuracy    <       0.00418517 Ry

     total magnetization       =     3.72 Bohr mag/cell
     absolute magnetization    =     3.85 Bohr mag/cell
[tb_dev] Currently allocated     1.03E+00 Mbytes, locked:    0 /   8
[tb_pin] Currently allocated     0.00E+00 Mbytes, locked:    0 /   0

     iteration # 78     ecut=    50.00 Ry     beta= 0.20
     Davidson diagonalization with overlap

---- Real-time Memory Report at c_bands before calling an iterative solver
          1097 MiB given to the printing process from OS
           901 MiB allocation reported by mallinfo(arena+hblkhd)
         58615 MiB available memory on the node where the printing process lives
     GPU memory used/free/total (MiB): 1088 / 15192 / 16280
------------------
     ethr =  4.00E-07,  avg # of iterations =  5.7

     negative rho (up, down):  1.779E-04 3.589E-03

     total cpu time spent up to now is      377.9 secs

     total energy              =    -583.83016166 Ry
     estimated scf accuracy    <       0.00560936 Ry

     total magnetization       =     3.80 Bohr mag/cell
     absolute magnetization    =     3.93 Bohr mag/cell
[tb_dev] Currently allocated     1.03E+00 Mbytes, locked:    0 /   8
[tb_pin] Currently allocated     0.00E+00 Mbytes, locked:    0 /   0

     iteration # 79     ecut=    50.00 Ry     beta= 0.20
     Davidson diagonalization with overlap

---- Real-time Memory Report at c_bands before calling an iterative solver
          1097 MiB given to the printing process from OS
           901 MiB allocation reported by mallinfo(arena+hblkhd)
         58615 MiB available memory on the node where the printing process lives
     GPU memory used/free/total (MiB): 1088 / 15192 / 16280
------------------
     c_bands:  1 eigenvalues not converged
     ethr =  4.00E-07,  avg # of iterations =  8.4

     negative rho (up, down):  1.487E-04 3.836E-03

     total cpu time spent up to now is      384.7 secs

     total energy              =    -583.82714007 Ry
     estimated scf accuracy    <       0.00968047 Ry

     total magnetization       =     3.98 Bohr mag/cell
     absolute magnetization    =     4.11 Bohr mag/cell
[tb_dev] Currently allocated     1.03E+00 Mbytes, locked:    0 /   8
[tb_pin] Currently allocated     0.00E+00 Mbytes, locked:    0 /   0

     iteration # 80     ecut=    50.00 Ry     beta= 0.20
     Davidson diagonalization with overlap

---- Real-time Memory Report at c_bands before calling an iterative solver
          1097 MiB given to the printing process from OS
           901 MiB allocation reported by mallinfo(arena+hblkhd)
         58616 MiB available memory on the node where the printing process lives
     GPU memory used/free/total (MiB): 1088 / 15192 / 16280
------------------
     c_bands:  1 eigenvalues not converged
     ethr =  4.00E-07,  avg # of iterations =  6.9

     negative rho (up, down):  1.522E-04 3.804E-03

     total cpu time spent up to now is      390.4 secs

     total energy              =    -583.82802978 Ry
     estimated scf accuracy    <       0.01244475 Ry

     total magnetization       =     4.07 Bohr mag/cell
     absolute magnetization    =     4.21 Bohr mag/cell

     End of self-consistent calculation

     convergence NOT achieved after  80 iterations: stopping

     Writing config to output data dir ./out/aiida.save/
 
     init_run     :     10.03s CPU      2.36s WALL (       1 calls)
     electrons    :    510.60s CPU    386.90s WALL (       1 calls)

     Called by init_run:
     wfcinit      :      0.24s CPU      0.24s WALL (       1 calls)
                                        0.24s GPU  (       1 calls)
     potinit      :      0.23s CPU      0.08s WALL (       1 calls)
     hinit0       :      7.34s CPU      1.49s WALL (       1 calls)

     Called by electrons:
     c_bands      :    427.97s CPU    345.88s WALL (      80 calls)
     sum_band     :     30.01s CPU     35.85s WALL (      80 calls)
     v_of_rho     :      9.13s CPU      0.83s WALL (      81 calls)
     v_h          :      1.48s CPU      0.13s WALL (      81 calls)
     v_xc         :      7.63s CPU      0.69s WALL (      81 calls)
     newd         :     27.73s CPU      2.85s WALL (      81 calls)
                                        2.85s GPU  (      81 calls)
     mix_rho      :     10.69s CPU      1.05s WALL (      80 calls)

     Called by c_bands:
     init_us_2    :     29.96s CPU     26.63s WALL (   23040 calls)
     init_us_2:gp :     29.47s CPU     26.23s WALL (   23040 calls)
     cegterg      :    383.57s CPU    313.46s WALL (   11520 calls)

     Called by sum_band:
     sum_band:wei :      0.36s CPU      0.37s WALL (      80 calls)
                                        0.37s GPU  (      80 calls)
     sum_band:loo :     25.99s CPU     31.46s WALL (      80 calls)
                                       31.46s GPU  (      80 calls)
     sum_band:buf :      3.74s CPU      4.48s WALL (   11520 calls)
                                        4.41s GPU  (   11520 calls)
     sum_band:ini :     10.08s CPU     12.83s WALL (   11520 calls)
                                       12.77s GPU  (   11520 calls)
     sum_band:cal :      0.35s CPU      0.83s WALL (   11520 calls)
                                        0.73s GPU  (   11520 calls)
     sum_band:bec :      2.09s CPU      2.58s WALL (   11520 calls)
                                        2.50s GPU  (   11520 calls)
     addusdens    :      3.08s CPU      3.41s WALL (      80 calls)
                                        3.41s GPU  (      80 calls)
     addusd:skk   :      0.01s CPU      0.02s WALL (     320 calls)
                                        0.01s GPU  (     320 calls)

     Called by *egterg:
     cdiaghg      :    206.13s CPU    175.03s WALL (   72488 calls)
                                      174.55s GPU  (   72488 calls)
     cegterg:over :      8.80s CPU      7.35s WALL (   61112 calls)
     cegterg:upda :     18.31s CPU     14.84s WALL (   61112 calls)
     cegterg:last :      3.38s CPU      2.78s WALL (   28298 calls)
     h_psi        :    111.90s CPU     87.05s WALL (   72632 calls)
                                       86.66s GPU  (   72632 calls)
     s_psi        :      7.60s CPU      8.72s WALL (   72632 calls)
                                        8.19s GPU  (   72632 calls)
     g_psi        :      0.55s CPU      1.25s WALL (   61112 calls)
                                        0.86s GPU  (   61112 calls)

     Called by h_psi:
     h_psi:calbec :      2.99s CPU      5.98s WALL (   72632 calls)
                                        5.54s GPU  (   72632 calls)
     vloc_psi     :     86.67s CPU     67.02s WALL (   72632 calls)
                                       66.60s GPU  (   72632 calls)
     add_vuspsi   :      9.85s CPU      9.63s WALL (   72632 calls)
                                        9.20s GPU  (   72632 calls)

     General routines
     calbec       :      2.51s CPU      2.09s WALL (   84152 calls)
     fft          :      2.95s CPU      0.34s WALL (    2023 calls)
                                        0.24s GPU  (    1861 calls)
     ffts         :      0.16s CPU      0.03s WALL (     322 calls)
                                        0.01s GPU  (     160 calls)
     fftw         :      5.64s CPU     41.73s WALL (  220930 calls)
                                       40.51s GPU  (  220930 calls)
     interpolate  :      2.18s CPU      0.20s WALL (     162 calls)
     davcio       :      1.01s CPU      0.41s WALL (     306 calls)
 
     Parallel routines
 
     PWSCF        :   8m44.47s CPU   6m30.69s WALL

 
   This run was terminated on:  18:11:32  23Oct2023            

=------------------------------------------------------------------------------=
   JOB DONE.
=------------------------------------------------------------------------------=
