
     Program PWSCF v.7.2 starts on 23Oct2023 at 21:28:35 

     This program is part of the open-source Quantum ESPRESSO suite
     for quantum simulation of materials; please cite
         "P. Giannozzi et al., J. Phys.:Condens. Matter 21 395502 (2009);
         "P. Giannozzi et al., J. Phys.:Condens. Matter 29 465901 (2017);
         "P. Giannozzi et al., J. Chem. Phys. 152 154105 (2020);
          URL http://www.quantum-espresso.org", 
     in publications or presentations arising from this work. More details at
     http://www.quantum-espresso.org/quote

     Parallel version (MPI & OpenMP), running on      12 processor cores
     Number of MPI processes:                 1
     Threads/MPI process:                    12

     MPI processes distributed on     1 nodes
     60511 MiB available memory on the printing compute node when the environment starts
 
     Reading input from aiida.in

     Current dimensions of program PWSCF are:
     Max number of different atomic species (ntypx) = 10
     Max number of k-points (npk) =  40000
     Max angular momentum in pseudopotentials (lmaxx) =  4
     Message from routine setup:
     using ibrav=0 with symmetry is DISCOURAGED, use correct ibrav instead
 
     Subspace diagonalization in iterative solution of the eigenvalue problem:
     a serial algorithm will be used

 
     G-vector sticks info
     --------------------
     sticks:   dense  smooth     PW     G-vecs:    dense   smooth      PW
     Sum        2917    1483    433               104579    37117    5817
 
     Using Slab Decomposition
 


     bravais-lattice index     =            0
     lattice parameter (alat)  =      10.8636  a.u.
     unit-cell volume          =     906.5844 (a.u.)^3
     number of atoms/cell      =           10
     number of atomic types    =            3
     number of electrons       =        86.00
     number of Kohn-Sham states=           52
     kinetic-energy cutoff     =      45.0000  Ry
     charge density cutoff     =     360.0000  Ry
     scf convergence threshold =      2.0E-09
     mixing beta               =       0.2000
     number of iterations used =            8  plain     mixing
     Exchange-correlation= SLA  PW   PSX  PSC
                           (   1   4  10   8   0   0   0)

     GPU acceleration is ACTIVE.


     GPU used by master process:

        Device Number: 0
        Device name: Tesla P100-PCIE-16GB
        Compute capability : 60
        Ratio of single to double precision performance  : 2
        Memory Clock Rate (KHz): 715000
        Memory Bus Width (bits): 4096
        Peak Memory Bandwidth (GB/s): 732.16

     celldm(1)=  10.863616  celldm(2)=   0.000000  celldm(3)=   0.000000
     celldm(4)=   0.000000  celldm(5)=   0.000000  celldm(6)=   0.000000

     crystal axes: (cart. coord. in units of alat)
               a(1) = (   0.000000   0.707107   0.707107 )  
               a(2) = (   0.707107   0.000000   0.707107 )  
               a(3) = (   0.707107   0.707107   0.000000 )  

     reciprocal axes: (cart. coord. in units 2 pi/alat)
               b(1) = ( -0.707107  0.707107  0.707107 )  
               b(2) = (  0.707107 -0.707107  0.707107 )  
               b(3) = (  0.707107  0.707107 -0.707107 )  


     PseudoPot. # 1 for Co read from file:
     ./pseudo/co_pbesol_v1.2.uspp.F.UPF
     MD5 check sum: 3b4cd4e7cc7df4da9fdede0fd33e2193
     Pseudo is Ultrasoft + core correction, Zval = 17.0
     Generated by new atomic code, or converted to UPF format
     Using radial grid of  863 points,  6 beta functions with: 
                l(1) =   0
                l(2) =   0
                l(3) =   1
                l(4) =   1
                l(5) =   2
                l(6) =   2
     Q(r) pseudized with  8 coefficients,  rinner =    1.200   1.200   1.200
                                                       1.200   1.200

     PseudoPot. # 2 for F  read from file:
     ./pseudo/f_pbesol_v1.4.uspp.F.UPF
     MD5 check sum: d2815ecb49b17b99c5724ffd2f9bbd8d
     Pseudo is Ultrasoft, Zval =  7.0
     Generated by new atomic code, or converted to UPF format
     Using radial grid of  799 points,  4 beta functions with: 
                l(1) =   0
                l(2) =   0
                l(3) =   1
                l(4) =   1
     Q(r) pseudized with  8 coefficients,  rinner =    0.950   0.950   0.950


     PseudoPot. # 3 for Na read from file:
     ./pseudo/na_pbesol_v1.5.uspp.F.UPF
     MD5 check sum: 164b46c7694b4bc5b1217b5d1ae6f423
     Pseudo is Ultrasoft, Zval =  9.0
     Generated by new atomic code, or converted to UPF format
     Using radial grid of  819 points,  5 beta functions with: 
                l(1) =   0
                l(2) =   0
                l(3) =   1
                l(4) =   1
                l(5) =   2
     Q(r) pseudized with  8 coefficients,  rinner =    1.250   1.250   1.250
                                                       1.250   1.250

     atomic species   valence    mass     pseudopotential
        Co            17.00    58.93319     Co( 1.00)
        F              7.00    18.99840     F ( 1.00)
        Na             9.00    22.98977     Na( 1.00)

     Starting magnetic structure 
     atomic species   magnetization
        Co           0.294
        F            0.100
        Na           0.100

     48 Sym. Ops., with inversion, found


                                    s                        frac. trans.

      isym =  1     identity                                     

 cryst.   s( 1) = (     1          0          0      )
                  (     0          1          0      )
                  (     0          0          1      )

 cart.    s( 1) = (  1.0000000 -0.0000000  0.0000000 )
                  ( -0.0000000  1.0000000  0.0000000 )
                  ( -0.0000000  0.0000000  1.0000000 )


      isym =  2     180 deg rotation - cart. axis [0,0,1]        

 cryst.   s( 2) = (     0          1         -1      )
                  (     1          0         -1      )
                  (     0          0         -1      )

 cart.    s( 2) = ( -1.0000000  0.0000000  0.0000000 )
                  (  0.0000000 -1.0000000  0.0000000 )
                  (  0.0000000 -0.0000000  1.0000000 )


      isym =  3     180 deg rotation - cart. axis [0,1,0]        

 cryst.   s( 3) = (     0         -1          1      )
                  (     0         -1          0      )
                  (     1         -1          0      )

 cart.    s( 3) = ( -1.0000000 -0.0000000 -0.0000000 )
                  (  0.0000000  1.0000000 -0.0000000 )
                  (  0.0000000  0.0000000 -1.0000000 )


      isym =  4     180 deg rotation - cart. axis [1,0,0]        

 cryst.   s( 4) = (    -1          0          0      )
                  (    -1          0          1      )
                  (    -1          1          0      )

 cart.    s( 4) = (  1.0000000  0.0000000 -0.0000000 )
                  ( -0.0000000 -1.0000000 -0.0000000 )
                  ( -0.0000000 -0.0000000 -1.0000000 )


      isym =  5     180 deg rotation - cart. axis [1,1,0]        

 cryst.   s( 5) = (    -1          0          1      )
                  (     0         -1          1      )
                  (     0          0          1      )

 cart.    s( 5) = ( -0.0000000  1.0000000 -0.0000000 )
                  (  1.0000000 -0.0000000 -0.0000000 )
                  (  0.0000000 -0.0000000 -1.0000000 )


      isym =  6     180 deg rotation - cart. axis [1,-1,0]       

 cryst.   s( 6) = (     0         -1          0      )
                  (    -1          0          0      )
                  (     0          0         -1      )

 cart.    s( 6) = (  0.0000000 -1.0000000 -0.0000000 )
                  ( -1.0000000  0.0000000 -0.0000000 )
                  ( -0.0000000  0.0000000 -1.0000000 )


      isym =  7      90 deg rotation - cart. axis [0,0,-1]       

 cryst.   s( 7) = (     0          1          0      )
                  (     0          1         -1      )
                  (    -1          1          0      )

 cart.    s( 7) = (  0.0000000  1.0000000  0.0000000 )
                  ( -1.0000000 -0.0000000  0.0000000 )
                  ( -0.0000000 -0.0000000  1.0000000 )


      isym =  8      90 deg rotation - cart. axis [0,0,1]        

 cryst.   s( 8) = (     1          0         -1      )
                  (     1          0          0      )
                  (     1         -1          0      )

 cart.    s( 8) = ( -0.0000000 -1.0000000  0.0000000 )
                  (  1.0000000  0.0000000  0.0000000 )
                  (  0.0000000  0.0000000  1.0000000 )


      isym =  9     180 deg rotation - cart. axis [1,0,1]        

 cryst.   s( 9) = (    -1          1          0      )
                  (     0          1          0      )
                  (     0          1         -1      )

 cart.    s( 9) = (  0.0000000  0.0000000  1.0000000 )
                  (  0.0000000 -1.0000000 -0.0000000 )
                  (  1.0000000 -0.0000000 -0.0000000 )


      isym = 10     180 deg rotation - cart. axis [-1,0,1]       

 cryst.   s(10) = (     0          0         -1      )
                  (     0         -1          0      )
                  (    -1          0          0      )

 cart.    s(10) = ( -0.0000000  0.0000000 -1.0000000 )
                  ( -0.0000000 -1.0000000  0.0000000 )
                  ( -1.0000000 -0.0000000  0.0000000 )


      isym = 11      90 deg rotation - cart. axis [0,1,0]        

 cryst.   s(11) = (     0          0          1      )
                  (    -1          0          1      )
                  (     0         -1          1      )

 cart.    s(11) = ( -0.0000000 -0.0000000  1.0000000 )
                  ( -0.0000000  1.0000000 -0.0000000 )
                  ( -1.0000000  0.0000000 -0.0000000 )


      isym = 12      90 deg rotation - cart. axis [0,-1,0]       

 cryst.   s(12) = (     1         -1          0      )
                  (     1          0         -1      )
                  (     1          0          0      )

 cart.    s(12) = (  0.0000000 -0.0000000 -1.0000000 )
                  (  0.0000000  1.0000000  0.0000000 )
                  (  1.0000000  0.0000000  0.0000000 )


      isym = 13     180 deg rotation - cart. axis [0,1,1]        

 cryst.   s(13) = (     1          0          0      )
                  (     1         -1          0      )
                  (     1          0         -1      )

 cart.    s(13) = ( -1.0000000  0.0000000 -0.0000000 )
                  (  0.0000000  0.0000000  1.0000000 )
                  (  0.0000000  1.0000000  0.0000000 )


      isym = 14     180 deg rotation - cart. axis [0,1,-1]       

 cryst.   s(14) = (    -1          0          0      )
                  (     0          0         -1      )
                  (     0         -1          0      )

 cart.    s(14) = ( -1.0000000 -0.0000000  0.0000000 )
                  (  0.0000000 -0.0000000 -1.0000000 )
                  (  0.0000000 -1.0000000 -0.0000000 )


      isym = 15      90 deg rotation - cart. axis [-1,0,0]       

 cryst.   s(15) = (     0         -1          1      )
                  (     0          0          1      )
                  (    -1          0          1      )

 cart.    s(15) = (  1.0000000 -0.0000000 -0.0000000 )
                  ( -0.0000000 -0.0000000  1.0000000 )
                  ( -0.0000000 -1.0000000  0.0000000 )


      isym = 16      90 deg rotation - cart. axis [1,0,0]        

 cryst.   s(16) = (     0          1         -1      )
                  (    -1          1          0      )
                  (     0          1          0      )

 cart.    s(16) = (  1.0000000  0.0000000  0.0000000 )
                  ( -0.0000000  0.0000000 -1.0000000 )
                  ( -0.0000000  1.0000000 -0.0000000 )


      isym = 17     120 deg rotation - cart. axis [-1,-1,-1]     

 cryst.   s(17) = (     0          0          1      )
                  (     1          0          0      )
                  (     0          1          0      )

 cart.    s(17) = (  0.0000000  1.0000000 -0.0000000 )
                  (  0.0000000 -0.0000000  1.0000000 )
                  (  1.0000000 -0.0000000  0.0000000 )


      isym = 18     120 deg rotation - cart. axis [-1,1,1]       

 cryst.   s(18) = (     1         -1          0      )
                  (     0         -1          1      )
                  (     0         -1          0      )

 cart.    s(18) = ( -0.0000000 -1.0000000 -0.0000000 )
                  ( -0.0000000  0.0000000  1.0000000 )
                  ( -1.0000000  0.0000000  0.0000000 )


      isym = 19     120 deg rotation - cart. axis [1,1,-1]       

 cryst.   s(19) = (    -1          1          0      )
                  (    -1          0          0      )
                  (    -1          0          1      )

 cart.    s(19) = ( -0.0000000  1.0000000  0.0000000 )
                  ( -0.0000000 -0.0000000 -1.0000000 )
                  ( -1.0000000 -0.0000000 -0.0000000 )


      isym = 20     120 deg rotation - cart. axis [1,-1,1]       

 cryst.   s(20) = (     0          0         -1      )
                  (     0          1         -1      )
                  (     1          0         -1      )

 cart.    s(20) = (  0.0000000 -1.0000000  0.0000000 )
                  (  0.0000000  0.0000000 -1.0000000 )
                  (  1.0000000  0.0000000 -0.0000000 )


      isym = 21     120 deg rotation - cart. axis [1,1,1]        

 cryst.   s(21) = (     0          1          0      )
                  (     0          0          1      )
                  (     1          0          0      )

 cart.    s(21) = ( -0.0000000  0.0000000  1.0000000 )
                  (  1.0000000  0.0000000 -0.0000000 )
                  (  0.0000000  1.0000000 -0.0000000 )


      isym = 22     120 deg rotation - cart. axis [-1,1,-1]      

 cryst.   s(22) = (    -1          0          1      )
                  (    -1          1          0      )
                  (    -1          0          0      )

 cart.    s(22) = (  0.0000000 -0.0000000  1.0000000 )
                  ( -1.0000000 -0.0000000 -0.0000000 )
                  ( -0.0000000 -1.0000000 -0.0000000 )


      isym = 23     120 deg rotation - cart. axis [1,-1,-1]      

 cryst.   s(23) = (     1          0         -1      )
                  (     0          0         -1      )
                  (     0          1         -1      )

 cart.    s(23) = (  0.0000000  0.0000000 -1.0000000 )
                  ( -1.0000000  0.0000000  0.0000000 )
                  ( -0.0000000  1.0000000  0.0000000 )


      isym = 24     120 deg rotation - cart. axis [-1,-1,1]      

 cryst.   s(24) = (     0         -1          0      )
                  (     1         -1          0      )
                  (     0         -1          1      )

 cart.    s(24) = ( -0.0000000 -0.0000000 -1.0000000 )
                  (  1.0000000 -0.0000000  0.0000000 )
                  (  0.0000000 -1.0000000  0.0000000 )


      isym = 25     inversion                                    

 cryst.   s(25) = (    -1          0          0      )
                  (     0         -1          0      )
                  (     0          0         -1      )

 cart.    s(25) = ( -1.0000000  0.0000000 -0.0000000 )
                  (  0.0000000 -1.0000000 -0.0000000 )
                  (  0.0000000 -0.0000000 -1.0000000 )


      isym = 26     inv. 180 deg rotation - cart. axis [0,0,1]   

 cryst.   s(26) = (     0         -1          1      )
                  (    -1          0          1      )
                  (     0          0          1      )

 cart.    s(26) = (  1.0000000 -0.0000000 -0.0000000 )
                  ( -0.0000000  1.0000000 -0.0000000 )
                  ( -0.0000000  0.0000000 -1.0000000 )


      isym = 27     inv. 180 deg rotation - cart. axis [0,1,0]   

 cryst.   s(27) = (     0          1         -1      )
                  (     0          1          0      )
                  (    -1          1          0      )

 cart.    s(27) = (  1.0000000  0.0000000  0.0000000 )
                  ( -0.0000000 -1.0000000  0.0000000 )
                  ( -0.0000000 -0.0000000  1.0000000 )


      isym = 28     inv. 180 deg rotation - cart. axis [1,0,0]   

 cryst.   s(28) = (     1          0          0      )
                  (     1          0         -1      )
                  (     1         -1          0      )

 cart.    s(28) = ( -1.0000000 -0.0000000  0.0000000 )
                  (  0.0000000  1.0000000  0.0000000 )
                  (  0.0000000  0.0000000  1.0000000 )


      isym = 29     inv. 180 deg rotation - cart. axis [1,1,0]   

 cryst.   s(29) = (     1          0         -1      )
                  (     0          1         -1      )
                  (     0          0         -1      )

 cart.    s(29) = (  0.0000000 -1.0000000  0.0000000 )
                  ( -1.0000000  0.0000000  0.0000000 )
                  ( -0.0000000  0.0000000  1.0000000 )


      isym = 30     inv. 180 deg rotation - cart. axis [1,-1,0]  

 cryst.   s(30) = (     0          1          0      )
                  (     1          0          0      )
                  (     0          0          1      )

 cart.    s(30) = ( -0.0000000  1.0000000  0.0000000 )
                  (  1.0000000 -0.0000000  0.0000000 )
                  (  0.0000000 -0.0000000  1.0000000 )


      isym = 31     inv.  90 deg rotation - cart. axis [0,0,-1]  

 cryst.   s(31) = (     0         -1          0      )
                  (     0         -1          1      )
                  (     1         -1          0      )

 cart.    s(31) = ( -0.0000000 -1.0000000 -0.0000000 )
                  (  1.0000000  0.0000000 -0.0000000 )
                  (  0.0000000  0.0000000 -1.0000000 )


      isym = 32     inv.  90 deg rotation - cart. axis [0,0,1]   

 cryst.   s(32) = (    -1          0          1      )
                  (    -1          0          0      )
                  (    -1          1          0      )

 cart.    s(32) = (  0.0000000  1.0000000 -0.0000000 )
                  ( -1.0000000 -0.0000000 -0.0000000 )
                  ( -0.0000000 -0.0000000 -1.0000000 )


      isym = 33     inv. 180 deg rotation - cart. axis [1,0,1]   

 cryst.   s(33) = (     1         -1          0      )
                  (     0         -1          0      )
                  (     0         -1          1      )

 cart.    s(33) = ( -0.0000000 -0.0000000 -1.0000000 )
                  ( -0.0000000  1.0000000  0.0000000 )
                  ( -1.0000000  0.0000000  0.0000000 )


      isym = 34     inv. 180 deg rotation - cart. axis [-1,0,1]  

 cryst.   s(34) = (     0          0          1      )
                  (     0          1          0      )
                  (     1          0          0      )

 cart.    s(34) = (  0.0000000 -0.0000000  1.0000000 )
                  (  0.0000000  1.0000000 -0.0000000 )
                  (  1.0000000  0.0000000 -0.0000000 )


      isym = 35     inv.  90 deg rotation - cart. axis [0,1,0]   

 cryst.   s(35) = (     0          0         -1      )
                  (     1          0         -1      )
                  (     0          1         -1      )

 cart.    s(35) = (  0.0000000  0.0000000 -1.0000000 )
                  (  0.0000000 -1.0000000  0.0000000 )
                  (  1.0000000 -0.0000000  0.0000000 )


      isym = 36     inv.  90 deg rotation - cart. axis [0,-1,0]  

 cryst.   s(36) = (    -1          1          0      )
                  (    -1          0          1      )
                  (    -1          0          0      )

 cart.    s(36) = ( -0.0000000  0.0000000  1.0000000 )
                  ( -0.0000000 -1.0000000 -0.0000000 )
                  ( -1.0000000 -0.0000000 -0.0000000 )


      isym = 37     inv. 180 deg rotation - cart. axis [0,1,1]   

 cryst.   s(37) = (    -1          0          0      )
                  (    -1          1          0      )
                  (    -1          0          1      )

 cart.    s(37) = (  1.0000000 -0.0000000  0.0000000 )
                  ( -0.0000000 -0.0000000 -1.0000000 )
                  ( -0.0000000 -1.0000000 -0.0000000 )


      isym = 38     inv. 180 deg rotation - cart. axis [0,1,-1]  

 cryst.   s(38) = (     1          0          0      )
                  (     0          0          1      )
                  (     0          1          0      )

 cart.    s(38) = (  1.0000000  0.0000000 -0.0000000 )
                  ( -0.0000000  0.0000000  1.0000000 )
                  ( -0.0000000  1.0000000  0.0000000 )


      isym = 39     inv.  90 deg rotation - cart. axis [-1,0,0]  

 cryst.   s(39) = (     0          1         -1      )
                  (     0          0         -1      )
                  (     1          0         -1      )

 cart.    s(39) = ( -1.0000000  0.0000000  0.0000000 )
                  (  0.0000000  0.0000000 -1.0000000 )
                  (  0.0000000  1.0000000 -0.0000000 )


      isym = 40     inv.  90 deg rotation - cart. axis [1,0,0]   

 cryst.   s(40) = (     0         -1          1      )
                  (     1         -1          0      )
                  (     0         -1          0      )

 cart.    s(40) = ( -1.0000000 -0.0000000 -0.0000000 )
                  (  0.0000000 -0.0000000  1.0000000 )
                  (  0.0000000 -1.0000000  0.0000000 )


      isym = 41     inv. 120 deg rotation - cart. axis [-1,-1,-1]

 cryst.   s(41) = (     0          0         -1      )
                  (    -1          0          0      )
                  (     0         -1          0      )

 cart.    s(41) = ( -0.0000000 -1.0000000  0.0000000 )
                  ( -0.0000000  0.0000000 -1.0000000 )
                  ( -1.0000000  0.0000000 -0.0000000 )


      isym = 42     inv. 120 deg rotation - cart. axis [-1,1,1]  

 cryst.   s(42) = (    -1          1          0      )
                  (     0          1         -1      )
                  (     0          1          0      )

 cart.    s(42) = (  0.0000000  1.0000000  0.0000000 )
                  (  0.0000000 -0.0000000 -1.0000000 )
                  (  1.0000000 -0.0000000 -0.0000000 )


      isym = 43     inv. 120 deg rotation - cart. axis [1,1,-1]  

 cryst.   s(43) = (     1         -1          0      )
                  (     1          0          0      )
                  (     1          0         -1      )

 cart.    s(43) = (  0.0000000 -1.0000000 -0.0000000 )
                  (  0.0000000  0.0000000  1.0000000 )
                  (  1.0000000  0.0000000  0.0000000 )


      isym = 44     inv. 120 deg rotation - cart. axis [1,-1,1]  

 cryst.   s(44) = (     0          0          1      )
                  (     0         -1          1      )
                  (    -1          0          1      )

 cart.    s(44) = ( -0.0000000  1.0000000 -0.0000000 )
                  ( -0.0000000 -0.0000000  1.0000000 )
                  ( -1.0000000 -0.0000000  0.0000000 )


      isym = 45     inv. 120 deg rotation - cart. axis [1,1,1]   

 cryst.   s(45) = (     0         -1          0      )
                  (     0          0         -1      )
                  (    -1          0          0      )

 cart.    s(45) = (  0.0000000 -0.0000000 -1.0000000 )
                  ( -1.0000000 -0.0000000  0.0000000 )
                  ( -0.0000000 -1.0000000  0.0000000 )


      isym = 46     inv. 120 deg rotation - cart. axis [-1,1,-1] 

 cryst.   s(46) = (     1          0         -1      )
                  (     1         -1          0      )
                  (     1          0          0      )

 cart.    s(46) = ( -0.0000000  0.0000000 -1.0000000 )
                  (  1.0000000  0.0000000  0.0000000 )
                  (  0.0000000  1.0000000  0.0000000 )


      isym = 47     inv. 120 deg rotation - cart. axis [1,-1,-1] 

 cryst.   s(47) = (    -1          0          1      )
                  (     0          0          1      )
                  (     0         -1          1      )

 cart.    s(47) = ( -0.0000000 -0.0000000  1.0000000 )
                  (  1.0000000 -0.0000000 -0.0000000 )
                  (  0.0000000 -1.0000000 -0.0000000 )


      isym = 48     inv. 120 deg rotation - cart. axis [-1,-1,1] 

 cryst.   s(48) = (     0          1          0      )
                  (    -1          1          0      )
                  (     0          1         -1      )

 cart.    s(48) = (  0.0000000  0.0000000  1.0000000 )
                  ( -1.0000000  0.0000000 -0.0000000 )
                  ( -0.0000000  1.0000000 -0.0000000 )


   Cartesian axes

     site n.     atom                  positions (alat units)
         1           Na  tau(   1) = (   0.7071068   0.0000000   0.0000000  )
         2           Na  tau(   2) = (   0.3535534   0.3535534   1.0606602  )
         3           Na  tau(   3) = (   0.3535534   1.0606602   1.0606602  )
         4           Co  tau(   4) = (   0.0000000   0.0000000   0.0000000  )
         5           F   tau(   5) = (   1.1172287   0.0000000   0.0000000  )
         6           F   tau(   6) = (   0.7071068   0.4101219   0.0000000  )
         7           F   tau(   7) = (  -0.0000000  -0.0000000   1.1172287  )
         8           F   tau(   8) = (   0.7071068  -0.0000000   1.0040916  )
         9           F   tau(   9) = (   0.7071068   1.0040916  -0.0000000  )
        10           F   tau(  10) = (   0.2969848   0.0000000   0.0000000  )

   Crystallographic axes

     site n.     atom                  positions (cryst. coord.)
         1           Na  tau(   1) = ( -0.5000000  0.5000000  0.5000000  )
         2           Na  tau(   2) = (  0.7500000  0.7500000 -0.2500000  )
         3           Na  tau(   3) = (  1.2500000  0.2500000  0.2500000  )
         4           Co  tau(   4) = (  0.0000000  0.0000000  0.0000000  )
         5           F   tau(   5) = ( -0.7900000  0.7900000  0.7900000  )
         6           F   tau(   6) = ( -0.2100000  0.2100000  0.7900000  )
         7           F   tau(   7) = (  0.7900000  0.7900000 -0.7900000  )
         8           F   tau(   8) = (  0.2100000  1.2100000 -0.2100000  )
         9           F   tau(   9) = (  0.2100000 -0.2100000  1.2100000  )
        10           F   tau(  10) = ( -0.2100000  0.2100000  0.2100000  )

     number of k points=    35  Marzari-Vanderbilt smearing, width (Ry)=  0.0100
                       cart. coord. in units 2pi/alat
        k(    1) = (   0.0000000   0.0000000   0.0000000), wk =   0.0013717
        k(    2) = (   0.0785674   0.0785674  -0.0785674), wk =   0.0109739
        k(    3) = (   0.1571348   0.1571348  -0.1571348), wk =   0.0109739
        k(    4) = (   0.2357023   0.2357023  -0.2357023), wk =   0.0109739
        k(    5) = (   0.3142697   0.3142697  -0.3142697), wk =   0.0109739
        k(    6) = (   0.1571348   0.0000000  -0.0000000), wk =   0.0082305
        k(    7) = (   0.2357023   0.0785674  -0.0785674), wk =   0.0329218
        k(    8) = (   0.3142697   0.1571348  -0.1571348), wk =   0.0329218
        k(    9) = (   0.3928371   0.2357023  -0.2357023), wk =   0.0329218
        k(   10) = (  -0.2357023  -0.3928371   0.3928371), wk =   0.0329218
        k(   11) = (  -0.1571348  -0.3142697   0.3142697), wk =   0.0329218
        k(   12) = (  -0.0785674  -0.2357023   0.2357023), wk =   0.0329218
        k(   13) = (  -0.0000000  -0.1571348   0.1571348), wk =   0.0164609
        k(   14) = (   0.3142697   0.0000000  -0.0000000), wk =   0.0082305
        k(   15) = (   0.3928371   0.0785674  -0.0785674), wk =   0.0329218
        k(   16) = (   0.4714045   0.1571348  -0.1571348), wk =   0.0329218
        k(   17) = (  -0.1571348  -0.4714045   0.4714045), wk =   0.0329218
        k(   18) = (  -0.0785674  -0.3928371   0.3928371), wk =   0.0329218
        k(   19) = (  -0.0000000  -0.3142697   0.3142697), wk =   0.0164609
        k(   20) = (   0.4714045   0.0000000  -0.0000000), wk =   0.0082305
        k(   21) = (   0.5499719   0.0785674  -0.0785674), wk =   0.0329218
        k(   22) = (  -0.0785674  -0.5499719   0.5499719), wk =   0.0329218
        k(   23) = (  -0.0000000  -0.4714045   0.4714045), wk =   0.0164609
        k(   24) = (   0.6285394   0.0000000  -0.0000000), wk =   0.0082305
        k(   25) = (  -0.0000000  -0.6285394   0.6285394), wk =   0.0164609
        k(   26) = (   0.3142697   0.1571348  -0.0000000), wk =   0.0329218
        k(   27) = (   0.3928371   0.2357023  -0.0785674), wk =   0.0658436
        k(   28) = (  -0.2357023  -0.3928371   0.5499719), wk =   0.0658436
        k(   29) = (   0.4714045   0.1571348  -0.0000000), wk =   0.0329218
        k(   30) = (  -0.1571348  -0.4714045   0.6285394), wk =   0.0658436
        k(   31) = (  -0.0785674  -0.3928371   0.5499719), wk =   0.0658436
        k(   32) = (   0.0000000  -0.3142697   0.4714045), wk =   0.0329218
        k(   33) = (  -0.0785674  -0.5499719   0.7071068), wk =   0.0329218
        k(   34) = (  -0.0000000  -0.4714045   0.6285394), wk =   0.0329218
        k(   35) = (  -0.0785674  -0.3928371   0.7071068), wk =   0.0329218

                       cryst. coord.
        k(    1) = (   0.0000000   0.0000000   0.0000000), wk =   0.0013717
        k(    2) = (  -0.0000000  -0.0000000   0.1111111), wk =   0.0109739
        k(    3) = (  -0.0000000  -0.0000000   0.2222222), wk =   0.0109739
        k(    4) = (   0.0000000   0.0000000   0.3333333), wk =   0.0109739
        k(    5) = (  -0.0000000  -0.0000000   0.4444444), wk =   0.0109739
        k(    6) = (  -0.0000000   0.1111111   0.1111111), wk =   0.0082305
        k(    7) = (   0.0000000   0.1111111   0.2222222), wk =   0.0329218
        k(    8) = (   0.0000000   0.1111111   0.3333333), wk =   0.0329218
        k(    9) = (   0.0000000   0.1111111   0.4444444), wk =   0.0329218
        k(   10) = (   0.0000000   0.1111111  -0.4444444), wk =   0.0329218
        k(   11) = (  -0.0000000   0.1111111  -0.3333333), wk =   0.0329218
        k(   12) = (  -0.0000000   0.1111111  -0.2222222), wk =   0.0329218
        k(   13) = (   0.0000000   0.1111111  -0.1111111), wk =   0.0164609
        k(   14) = (  -0.0000000   0.2222222   0.2222222), wk =   0.0082305
        k(   15) = (   0.0000000   0.2222222   0.3333333), wk =   0.0329218
        k(   16) = (   0.0000000   0.2222222   0.4444444), wk =   0.0329218
        k(   17) = (  -0.0000000   0.2222222  -0.4444444), wk =   0.0329218
        k(   18) = (   0.0000000   0.2222222  -0.3333333), wk =   0.0329218
        k(   19) = (   0.0000000   0.2222222  -0.2222222), wk =   0.0164609
        k(   20) = (  -0.0000000   0.3333333   0.3333333), wk =   0.0082305
        k(   21) = (   0.0000000   0.3333333   0.4444444), wk =   0.0329218
        k(   22) = (   0.0000000   0.3333333  -0.4444444), wk =   0.0329218
        k(   23) = (   0.0000000   0.3333333  -0.3333333), wk =   0.0164609
        k(   24) = (  -0.0000000   0.4444444   0.4444444), wk =   0.0082305
        k(   25) = (   0.0000000   0.4444444  -0.4444444), wk =   0.0164609
        k(   26) = (   0.1111111   0.2222222   0.3333333), wk =   0.0329218
        k(   27) = (   0.1111111   0.2222222   0.4444444), wk =   0.0658436
        k(   28) = (   0.1111111   0.2222222  -0.4444444), wk =   0.0658436
        k(   29) = (   0.1111111   0.3333333   0.4444444), wk =   0.0329218
        k(   30) = (   0.1111111   0.3333333  -0.4444444), wk =   0.0658436
        k(   31) = (   0.1111111   0.3333333  -0.3333333), wk =   0.0658436
        k(   32) = (   0.1111111   0.3333333  -0.2222222), wk =   0.0329218
        k(   33) = (   0.1111111   0.4444444  -0.4444444), wk =   0.0329218
        k(   34) = (   0.1111111   0.4444444  -0.3333333), wk =   0.0329218
        k(   35) = (   0.2222222   0.4444444  -0.3333333), wk =   0.0329218

     Dense  grid:   104579 G-vectors     FFT dimensions: (  72,  72,  72)

     Smooth grid:    37117 G-vectors     FFT dimensions: (  48,  48,  48)

     Dynamical RAM for                 wfc:       3.67 MB

     Dynamical RAM for     wfc (w. buffer):     260.33 MB

     Dynamical RAM for           str. fact:       4.79 MB

     Dynamical RAM for           local pot:       0.00 MB

     Dynamical RAM for          nlocal pot:       7.40 MB

     Dynamical RAM for                qrad:       4.57 MB

     Dynamical RAM for          rho,v,vnew:      26.66 MB

     Dynamical RAM for               rhoin:       8.89 MB

     Dynamical RAM for            rho*nmix:      51.06 MB

     Dynamical RAM for           G-vectors:       6.27 MB

     Dynamical RAM for          h,s,v(r/c):       0.50 MB

     Dynamical RAM for          <psi|beta>:       0.08 MB

     Dynamical RAM for                 psi:       7.33 MB

     Dynamical RAM for                hpsi:       7.33 MB

     Dynamical RAM for                spsi:       7.33 MB

     Dynamical RAM for      wfcinit/wfcrot:       7.40 MB

     Dynamical RAM for           addusdens:     307.98 MB

     Dynamical RAM for          addusforce:     323.98 MB

     Dynamical RAM for         addusstress:     323.14 MB

     Estimated static dynamical RAM per process >     342.37 MB

     Estimated max dynamical RAM per process >     717.42 MB

     Atomic positions and unit cell read from directory:
     ./out/aiida.save/
 

     Check: negative core charge=   -0.000003
     Generating pointlists ...
     new r_m :   0.1225 (alat units)  1.3309 (a.u.) for type    1
     new r_m :   0.1225 (alat units)  1.3309 (a.u.) for type    2
     new r_m :   0.1692 (alat units)  1.8379 (a.u.) for type    3

     The initial density is read from file :
     ./out/aiida.save/charge-density

     Starting wfcs from file

     total cpu time spent up to now is        2.9 secs

     per-process dynamical memory:   445.0 Mb

     Self-consistent Calculation
[tb_dev] Currently allocated     7.63E-05 Mbytes, locked:    0 /   2
[tb_pin] Currently allocated     0.00E+00 Mbytes, locked:    0 /   0

     iteration #  1     ecut=    45.00 Ry     beta= 0.20
     Davidson diagonalization with overlap

---- Real-time Memory Report at c_bands before calling an iterative solver
           577 MiB given to the printing process from OS
           441 MiB allocation reported by mallinfo(arena+hblkhd)
         59816 MiB available memory on the node where the printing process lives
     GPU memory used/free/total (MiB): 702 / 15578 / 16280
------------------
     ethr =  1.00E-05,  avg # of iterations =  2.8

     total cpu time spent up to now is        7.1 secs

     total energy              =    -875.34957123 Ry
     estimated scf accuracy    <       0.00895885 Ry

     total magnetization       =     4.16 Bohr mag/cell
     absolute magnetization    =     4.21 Bohr mag/cell
[tb_dev] Currently allocated     1.95E+00 Mbytes, locked:    0 /   8
[tb_pin] Currently allocated     0.00E+00 Mbytes, locked:    0 /   0

     iteration #  2     ecut=    45.00 Ry     beta= 0.20
     Davidson diagonalization with overlap

---- Real-time Memory Report at c_bands before calling an iterative solver
          1215 MiB given to the printing process from OS
          1018 MiB allocation reported by mallinfo(arena+hblkhd)
         58538 MiB available memory on the node where the printing process lives
     GPU memory used/free/total (MiB): 1500 / 14780 / 16280
------------------
     ethr =  1.04E-05,  avg # of iterations =  1.0

     total cpu time spent up to now is        9.4 secs

     total energy              =    -875.35071242 Ry
     estimated scf accuracy    <       0.00440527 Ry

     total magnetization       =     4.18 Bohr mag/cell
     absolute magnetization    =     4.23 Bohr mag/cell
[tb_dev] Currently allocated     1.95E+00 Mbytes, locked:    0 /   8
[tb_pin] Currently allocated     0.00E+00 Mbytes, locked:    0 /   0

     iteration #  3     ecut=    45.00 Ry     beta= 0.20
     Davidson diagonalization with overlap

---- Real-time Memory Report at c_bands before calling an iterative solver
          1217 MiB given to the printing process from OS
          1021 MiB allocation reported by mallinfo(arena+hblkhd)
         58538 MiB available memory on the node where the printing process lives
     GPU memory used/free/total (MiB): 1500 / 14780 / 16280
------------------
     ethr =  5.12E-06,  avg # of iterations =  1.0

     total cpu time spent up to now is       11.7 secs

     total energy              =    -875.35268362 Ry
     estimated scf accuracy    <       0.00560326 Ry

     total magnetization       =     3.98 Bohr mag/cell
     absolute magnetization    =     4.03 Bohr mag/cell
[tb_dev] Currently allocated     1.95E+00 Mbytes, locked:    0 /   8
[tb_pin] Currently allocated     0.00E+00 Mbytes, locked:    0 /   0

     iteration #  4     ecut=    45.00 Ry     beta= 0.20
     Davidson diagonalization with overlap

---- Real-time Memory Report at c_bands before calling an iterative solver
          1220 MiB given to the printing process from OS
          1023 MiB allocation reported by mallinfo(arena+hblkhd)
         58536 MiB available memory on the node where the printing process lives
     GPU memory used/free/total (MiB): 1500 / 14780 / 16280
------------------
     ethr =  5.12E-06,  avg # of iterations =  2.0

     total cpu time spent up to now is       14.3 secs

     total energy              =    -875.33785278 Ry
     estimated scf accuracy    <       0.08670681 Ry

     total magnetization       =     2.35 Bohr mag/cell
     absolute magnetization    =     2.45 Bohr mag/cell
[tb_dev] Currently allocated     1.95E+00 Mbytes, locked:    0 /   8
[tb_pin] Currently allocated     0.00E+00 Mbytes, locked:    0 /   0

     iteration #  5     ecut=    45.00 Ry     beta= 0.20
     Davidson diagonalization with overlap

---- Real-time Memory Report at c_bands before calling an iterative solver
          1223 MiB given to the printing process from OS
          1026 MiB allocation reported by mallinfo(arena+hblkhd)
         58532 MiB available memory on the node where the printing process lives
     GPU memory used/free/total (MiB): 1500 / 14780 / 16280
------------------
     ethr =  5.12E-06,  avg # of iterations =  2.0

     total cpu time spent up to now is       17.1 secs

     total energy              =    -875.34811111 Ry
     estimated scf accuracy    <       0.00513363 Ry

     total magnetization       =     4.17 Bohr mag/cell
     absolute magnetization    =     4.22 Bohr mag/cell
[tb_dev] Currently allocated     1.95E+00 Mbytes, locked:    0 /   8
[tb_pin] Currently allocated     0.00E+00 Mbytes, locked:    0 /   0

     iteration #  6     ecut=    45.00 Ry     beta= 0.20
     Davidson diagonalization with overlap

---- Real-time Memory Report at c_bands before calling an iterative solver
          1226 MiB given to the printing process from OS
          1029 MiB allocation reported by mallinfo(arena+hblkhd)
         58530 MiB available memory on the node where the printing process lives
     GPU memory used/free/total (MiB): 1500 / 14780 / 16280
------------------
     ethr =  5.12E-06,  avg # of iterations =  1.5

     total cpu time spent up to now is       19.8 secs

     total energy              =    -875.34767607 Ry
     estimated scf accuracy    <       0.01463517 Ry

     total magnetization       =     4.11 Bohr mag/cell
     absolute magnetization    =     4.17 Bohr mag/cell
[tb_dev] Currently allocated     1.95E+00 Mbytes, locked:    0 /   8
[tb_pin] Currently allocated     0.00E+00 Mbytes, locked:    0 /   0

     iteration #  7     ecut=    45.00 Ry     beta= 0.20
     Davidson diagonalization with overlap

---- Real-time Memory Report at c_bands before calling an iterative solver
          1228 MiB given to the printing process from OS
          1031 MiB allocation reported by mallinfo(arena+hblkhd)
         58527 MiB available memory on the node where the printing process lives
     GPU memory used/free/total (MiB): 1500 / 14780 / 16280
------------------
     ethr =  5.12E-06,  avg # of iterations =  1.0

     total cpu time spent up to now is       22.2 secs

     total energy              =    -875.34686635 Ry
     estimated scf accuracy    <       0.01777732 Ry

     total magnetization       =     4.08 Bohr mag/cell
     absolute magnetization    =     4.14 Bohr mag/cell
[tb_dev] Currently allocated     1.95E+00 Mbytes, locked:    0 /   8
[tb_pin] Currently allocated     0.00E+00 Mbytes, locked:    0 /   0

     iteration #  8     ecut=    45.00 Ry     beta= 0.20
     Davidson diagonalization with overlap

---- Real-time Memory Report at c_bands before calling an iterative solver
          1230 MiB given to the printing process from OS
          1033 MiB allocation reported by mallinfo(arena+hblkhd)
         58524 MiB available memory on the node where the printing process lives
     GPU memory used/free/total (MiB): 1500 / 14780 / 16280
------------------
     ethr =  5.12E-06,  avg # of iterations =  1.0

     total cpu time spent up to now is       24.5 secs

     total energy              =    -875.35083127 Ry
     estimated scf accuracy    <       0.02252253 Ry

     total magnetization       =     4.05 Bohr mag/cell
     absolute magnetization    =     4.11 Bohr mag/cell
[tb_dev] Currently allocated     1.95E+00 Mbytes, locked:    0 /   8
[tb_pin] Currently allocated     0.00E+00 Mbytes, locked:    0 /   0

     iteration #  9     ecut=    45.00 Ry     beta= 0.20
     Davidson diagonalization with overlap

---- Real-time Memory Report at c_bands before calling an iterative solver
          1233 MiB given to the printing process from OS
          1036 MiB allocation reported by mallinfo(arena+hblkhd)
         58523 MiB available memory on the node where the printing process lives
     GPU memory used/free/total (MiB): 1500 / 14780 / 16280
------------------
     ethr =  5.12E-06,  avg # of iterations =  1.5

     total cpu time spent up to now is       27.0 secs

     total energy              =    -875.35150407 Ry
     estimated scf accuracy    <       0.00646316 Ry

     total magnetization       =     4.07 Bohr mag/cell
     absolute magnetization    =     4.12 Bohr mag/cell
[tb_dev] Currently allocated     1.95E+00 Mbytes, locked:    0 /   8
[tb_pin] Currently allocated     0.00E+00 Mbytes, locked:    0 /   0

     iteration # 10     ecut=    45.00 Ry     beta= 0.20
     Davidson diagonalization with overlap

---- Real-time Memory Report at c_bands before calling an iterative solver
          1234 MiB given to the printing process from OS
          1037 MiB allocation reported by mallinfo(arena+hblkhd)
         58522 MiB available memory on the node where the printing process lives
     GPU memory used/free/total (MiB): 1500 / 14780 / 16280
------------------
     ethr =  5.12E-06,  avg # of iterations =  1.0

     total cpu time spent up to now is       29.3 secs

     total energy              =    -875.35077558 Ry
     estimated scf accuracy    <       0.01836741 Ry

     total magnetization       =     3.62 Bohr mag/cell
     absolute magnetization    =     3.68 Bohr mag/cell
[tb_dev] Currently allocated     1.95E+00 Mbytes, locked:    0 /   8
[tb_pin] Currently allocated     0.00E+00 Mbytes, locked:    0 /   0

     iteration # 11     ecut=    45.00 Ry     beta= 0.20
     Davidson diagonalization with overlap

---- Real-time Memory Report at c_bands before calling an iterative solver
          1234 MiB given to the printing process from OS
          1037 MiB allocation reported by mallinfo(arena+hblkhd)
         58521 MiB available memory on the node where the printing process lives
     GPU memory used/free/total (MiB): 1500 / 14780 / 16280
------------------
     ethr =  5.12E-06,  avg # of iterations =  1.0

     total cpu time spent up to now is       31.6 secs

     total energy              =    -875.34985234 Ry
     estimated scf accuracy    <       0.00908875 Ry

     total magnetization       =     3.92 Bohr mag/cell
     absolute magnetization    =     3.97 Bohr mag/cell
[tb_dev] Currently allocated     1.95E+00 Mbytes, locked:    0 /   8
[tb_pin] Currently allocated     0.00E+00 Mbytes, locked:    0 /   0

     iteration # 12     ecut=    45.00 Ry     beta= 0.20
     Davidson diagonalization with overlap

---- Real-time Memory Report at c_bands before calling an iterative solver
          1235 MiB given to the printing process from OS
          1037 MiB allocation reported by mallinfo(arena+hblkhd)
         58522 MiB available memory on the node where the printing process lives
     GPU memory used/free/total (MiB): 1500 / 14780 / 16280
------------------
     ethr =  5.12E-06,  avg # of iterations =  1.0

     total cpu time spent up to now is       33.9 secs

     total energy              =    -875.34944080 Ry
     estimated scf accuracy    <       0.00550976 Ry

     total magnetization       =     4.14 Bohr mag/cell
     absolute magnetization    =     4.19 Bohr mag/cell
[tb_dev] Currently allocated     1.95E+00 Mbytes, locked:    0 /   8
[tb_pin] Currently allocated     0.00E+00 Mbytes, locked:    0 /   0

     iteration # 13     ecut=    45.00 Ry     beta= 0.20
     Davidson diagonalization with overlap

---- Real-time Memory Report at c_bands before calling an iterative solver
          1235 MiB given to the printing process from OS
          1037 MiB allocation reported by mallinfo(arena+hblkhd)
         58522 MiB available memory on the node where the printing process lives
     GPU memory used/free/total (MiB): 1500 / 14780 / 16280
------------------
     ethr =  5.12E-06,  avg # of iterations =  1.0

     total cpu time spent up to now is       36.2 secs

     total energy              =    -875.35048129 Ry
     estimated scf accuracy    <       0.00655853 Ry

     total magnetization       =     4.18 Bohr mag/cell
     absolute magnetization    =     4.23 Bohr mag/cell
[tb_dev] Currently allocated     1.95E+00 Mbytes, locked:    0 /   8
[tb_pin] Currently allocated     0.00E+00 Mbytes, locked:    0 /   0

     iteration # 14     ecut=    45.00 Ry     beta= 0.20
     Davidson diagonalization with overlap

---- Real-time Memory Report at c_bands before calling an iterative solver
          1235 MiB given to the printing process from OS
          1037 MiB allocation reported by mallinfo(arena+hblkhd)
         58523 MiB available memory on the node where the printing process lives
     GPU memory used/free/total (MiB): 1500 / 14780 / 16280
------------------
     ethr =  5.12E-06,  avg # of iterations =  1.0

     total cpu time spent up to now is       38.5 secs

     total energy              =    -875.35085559 Ry
     estimated scf accuracy    <       0.00645111 Ry

     total magnetization       =     4.04 Bohr mag/cell
     absolute magnetization    =     4.09 Bohr mag/cell
[tb_dev] Currently allocated     1.95E+00 Mbytes, locked:    0 /   8
[tb_pin] Currently allocated     0.00E+00 Mbytes, locked:    0 /   0

     iteration # 15     ecut=    45.00 Ry     beta= 0.20
     Davidson diagonalization with overlap

---- Real-time Memory Report at c_bands before calling an iterative solver
          1235 MiB given to the printing process from OS
          1037 MiB allocation reported by mallinfo(arena+hblkhd)
         58523 MiB available memory on the node where the printing process lives
     GPU memory used/free/total (MiB): 1500 / 14780 / 16280
------------------
     ethr =  5.12E-06,  avg # of iterations =  1.0

     total cpu time spent up to now is       40.8 secs

     total energy              =    -875.35030905 Ry
     estimated scf accuracy    <       0.00758903 Ry

     total magnetization       =     3.98 Bohr mag/cell
     absolute magnetization    =     4.03 Bohr mag/cell
[tb_dev] Currently allocated     1.95E+00 Mbytes, locked:    0 /   8
[tb_pin] Currently allocated     0.00E+00 Mbytes, locked:    0 /   0

     iteration # 16     ecut=    45.00 Ry     beta= 0.20
     Davidson diagonalization with overlap

---- Real-time Memory Report at c_bands before calling an iterative solver
          1235 MiB given to the printing process from OS
          1037 MiB allocation reported by mallinfo(arena+hblkhd)
         58524 MiB available memory on the node where the printing process lives
     GPU memory used/free/total (MiB): 1500 / 14780 / 16280
------------------
     ethr =  5.12E-06,  avg # of iterations =  1.0

     total cpu time spent up to now is       43.1 secs

     total energy              =    -875.34910392 Ry
     estimated scf accuracy    <       0.00572292 Ry

     total magnetization       =     4.10 Bohr mag/cell
     absolute magnetization    =     4.15 Bohr mag/cell
[tb_dev] Currently allocated     1.95E+00 Mbytes, locked:    0 /   8
[tb_pin] Currently allocated     0.00E+00 Mbytes, locked:    0 /   0

     iteration # 17     ecut=    45.00 Ry     beta= 0.20
     Davidson diagonalization with overlap

---- Real-time Memory Report at c_bands before calling an iterative solver
          1235 MiB given to the printing process from OS
          1037 MiB allocation reported by mallinfo(arena+hblkhd)
         58524 MiB available memory on the node where the printing process lives
     GPU memory used/free/total (MiB): 1500 / 14780 / 16280
------------------
     ethr =  5.12E-06,  avg # of iterations =  1.0

     total cpu time spent up to now is       45.4 secs

     total energy              =    -875.34823652 Ry
     estimated scf accuracy    <       0.00798712 Ry

     total magnetization       =     4.17 Bohr mag/cell
     absolute magnetization    =     4.23 Bohr mag/cell
[tb_dev] Currently allocated     1.95E+00 Mbytes, locked:    0 /   8
[tb_pin] Currently allocated     0.00E+00 Mbytes, locked:    0 /   0

     iteration # 18     ecut=    45.00 Ry     beta= 0.20
     Davidson diagonalization with overlap

---- Real-time Memory Report at c_bands before calling an iterative solver
          1235 MiB given to the printing process from OS
          1037 MiB allocation reported by mallinfo(arena+hblkhd)
         58524 MiB available memory on the node where the printing process lives
     GPU memory used/free/total (MiB): 1500 / 14780 / 16280
------------------
     ethr =  5.12E-06,  avg # of iterations =  1.0

     total cpu time spent up to now is       47.7 secs

     total energy              =    -875.34795590 Ry
     estimated scf accuracy    <       0.01459734 Ry

     total magnetization       =     4.11 Bohr mag/cell
     absolute magnetization    =     4.17 Bohr mag/cell
[tb_dev] Currently allocated     1.95E+00 Mbytes, locked:    0 /   8
[tb_pin] Currently allocated     0.00E+00 Mbytes, locked:    0 /   0

     iteration # 19     ecut=    45.00 Ry     beta= 0.20
     Davidson diagonalization with overlap

---- Real-time Memory Report at c_bands before calling an iterative solver
          1235 MiB given to the printing process from OS
          1037 MiB allocation reported by mallinfo(arena+hblkhd)
         58524 MiB available memory on the node where the printing process lives
     GPU memory used/free/total (MiB): 1500 / 14780 / 16280
------------------
     ethr =  5.12E-06,  avg # of iterations =  1.0

     total cpu time spent up to now is       50.0 secs

     total energy              =    -875.35155092 Ry
     estimated scf accuracy    <       0.01613582 Ry

     total magnetization       =     4.09 Bohr mag/cell
     absolute magnetization    =     4.15 Bohr mag/cell
[tb_dev] Currently allocated     1.95E+00 Mbytes, locked:    0 /   8
[tb_pin] Currently allocated     0.00E+00 Mbytes, locked:    0 /   0

     iteration # 20     ecut=    45.00 Ry     beta= 0.20
     Davidson diagonalization with overlap

---- Real-time Memory Report at c_bands before calling an iterative solver
          1235 MiB given to the printing process from OS
          1037 MiB allocation reported by mallinfo(arena+hblkhd)
         58517 MiB available memory on the node where the printing process lives
     GPU memory used/free/total (MiB): 1500 / 14780 / 16280
------------------
     ethr =  5.12E-06,  avg # of iterations =  2.0

     total cpu time spent up to now is       52.7 secs

     total energy              =    -875.34983034 Ry
     estimated scf accuracy    <       0.03673960 Ry

     total magnetization       =     3.18 Bohr mag/cell
     absolute magnetization    =     3.25 Bohr mag/cell
[tb_dev] Currently allocated     1.95E+00 Mbytes, locked:    0 /   8
[tb_pin] Currently allocated     0.00E+00 Mbytes, locked:    0 /   0

     iteration # 21     ecut=    45.00 Ry     beta= 0.20
     Davidson diagonalization with overlap

---- Real-time Memory Report at c_bands before calling an iterative solver
          1235 MiB given to the printing process from OS
          1037 MiB allocation reported by mallinfo(arena+hblkhd)
         58519 MiB available memory on the node where the printing process lives
     GPU memory used/free/total (MiB): 1500 / 14780 / 16280
------------------
     ethr =  5.12E-06,  avg # of iterations =  1.0

     total cpu time spent up to now is       55.0 secs

     total energy              =    -875.34956380 Ry
     estimated scf accuracy    <       0.00974199 Ry

     total magnetization       =     3.88 Bohr mag/cell
     absolute magnetization    =     3.93 Bohr mag/cell
[tb_dev] Currently allocated     1.95E+00 Mbytes, locked:    0 /   8
[tb_pin] Currently allocated     0.00E+00 Mbytes, locked:    0 /   0

     iteration # 22     ecut=    45.00 Ry     beta= 0.20
     Davidson diagonalization with overlap

---- Real-time Memory Report at c_bands before calling an iterative solver
          1235 MiB given to the printing process from OS
          1037 MiB allocation reported by mallinfo(arena+hblkhd)
         58520 MiB available memory on the node where the printing process lives
     GPU memory used/free/total (MiB): 1500 / 14780 / 16280
------------------
     ethr =  5.12E-06,  avg # of iterations =  1.0

     total cpu time spent up to now is       57.3 secs

     total energy              =    -875.34829470 Ry
     estimated scf accuracy    <       0.00571952 Ry

     total magnetization       =     4.15 Bohr mag/cell
     absolute magnetization    =     4.20 Bohr mag/cell
[tb_dev] Currently allocated     1.95E+00 Mbytes, locked:    0 /   8
[tb_pin] Currently allocated     0.00E+00 Mbytes, locked:    0 /   0

     iteration # 23     ecut=    45.00 Ry     beta= 0.20
     Davidson diagonalization with overlap

---- Real-time Memory Report at c_bands before calling an iterative solver
          1235 MiB given to the printing process from OS
          1037 MiB allocation reported by mallinfo(arena+hblkhd)
         58520 MiB available memory on the node where the printing process lives
     GPU memory used/free/total (MiB): 1500 / 14780 / 16280
------------------
     ethr =  5.12E-06,  avg # of iterations =  1.0

     total cpu time spent up to now is       59.6 secs

     total energy              =    -875.34964479 Ry
     estimated scf accuracy    <       0.01326755 Ry

     total magnetization       =     4.12 Bohr mag/cell
     absolute magnetization    =     4.18 Bohr mag/cell
[tb_dev] Currently allocated     1.95E+00 Mbytes, locked:    0 /   8
[tb_pin] Currently allocated     0.00E+00 Mbytes, locked:    0 /   0

     iteration # 24     ecut=    45.00 Ry     beta= 0.20
     Davidson diagonalization with overlap

---- Real-time Memory Report at c_bands before calling an iterative solver
          1235 MiB given to the printing process from OS
          1037 MiB allocation reported by mallinfo(arena+hblkhd)
         58522 MiB available memory on the node where the printing process lives
     GPU memory used/free/total (MiB): 1500 / 14780 / 16280
------------------
     ethr =  5.12E-06,  avg # of iterations =  1.0

     total cpu time spent up to now is       61.9 secs

     total energy              =    -875.34962890 Ry
     estimated scf accuracy    <       0.00662351 Ry

     total magnetization       =     4.18 Bohr mag/cell
     absolute magnetization    =     4.23 Bohr mag/cell
[tb_dev] Currently allocated     1.95E+00 Mbytes, locked:    0 /   8
[tb_pin] Currently allocated     0.00E+00 Mbytes, locked:    0 /   0

     iteration # 25     ecut=    45.00 Ry     beta= 0.20
     Davidson diagonalization with overlap

---- Real-time Memory Report at c_bands before calling an iterative solver
          1235 MiB given to the printing process from OS
          1037 MiB allocation reported by mallinfo(arena+hblkhd)
         58523 MiB available memory on the node where the printing process lives
     GPU memory used/free/total (MiB): 1500 / 14780 / 16280
------------------
     ethr =  5.12E-06,  avg # of iterations =  1.0

     total cpu time spent up to now is       64.2 secs

     total energy              =    -875.34788333 Ry
     estimated scf accuracy    <       0.00647995 Ry

     total magnetization       =     4.18 Bohr mag/cell
     absolute magnetization    =     4.23 Bohr mag/cell
[tb_dev] Currently allocated     1.95E+00 Mbytes, locked:    0 /   8
[tb_pin] Currently allocated     0.00E+00 Mbytes, locked:    0 /   0

     iteration # 26     ecut=    45.00 Ry     beta= 0.20
     Davidson diagonalization with overlap

---- Real-time Memory Report at c_bands before calling an iterative solver
          1235 MiB given to the printing process from OS
          1037 MiB allocation reported by mallinfo(arena+hblkhd)
         58523 MiB available memory on the node where the printing process lives
     GPU memory used/free/total (MiB): 1500 / 14780 / 16280
------------------
     ethr =  5.12E-06,  avg # of iterations =  1.0

     total cpu time spent up to now is       66.5 secs

     total energy              =    -875.34893659 Ry
     estimated scf accuracy    <       0.01709025 Ry

     total magnetization       =     4.09 Bohr mag/cell
     absolute magnetization    =     4.15 Bohr mag/cell
[tb_dev] Currently allocated     1.95E+00 Mbytes, locked:    0 /   8
[tb_pin] Currently allocated     0.00E+00 Mbytes, locked:    0 /   0

     iteration # 27     ecut=    45.00 Ry     beta= 0.20
     Davidson diagonalization with overlap

---- Real-time Memory Report at c_bands before calling an iterative solver
          1235 MiB given to the printing process from OS
          1037 MiB allocation reported by mallinfo(arena+hblkhd)
         58524 MiB available memory on the node where the printing process lives
     GPU memory used/free/total (MiB): 1500 / 14780 / 16280
------------------
     ethr =  5.12E-06,  avg # of iterations =  1.0

     total cpu time spent up to now is       68.8 secs

     total energy              =    -875.34542644 Ry
     estimated scf accuracy    <       0.01010952 Ry

     total magnetization       =     4.15 Bohr mag/cell
     absolute magnetization    =     4.21 Bohr mag/cell
[tb_dev] Currently allocated     1.95E+00 Mbytes, locked:    0 /   8
[tb_pin] Currently allocated     0.00E+00 Mbytes, locked:    0 /   0

     iteration # 28     ecut=    45.00 Ry     beta= 0.20
     Davidson diagonalization with overlap

---- Real-time Memory Report at c_bands before calling an iterative solver
          1235 MiB given to the printing process from OS
          1037 MiB allocation reported by mallinfo(arena+hblkhd)
         58524 MiB available memory on the node where the printing process lives
     GPU memory used/free/total (MiB): 1500 / 14780 / 16280
------------------
     ethr =  5.12E-06,  avg # of iterations =  1.5

     total cpu time spent up to now is       71.3 secs

     total energy              =    -875.34799212 Ry
     estimated scf accuracy    <       0.03098567 Ry

     total magnetization       =     4.01 Bohr mag/cell
     absolute magnetization    =     4.08 Bohr mag/cell
[tb_dev] Currently allocated     1.95E+00 Mbytes, locked:    0 /   8
[tb_pin] Currently allocated     0.00E+00 Mbytes, locked:    0 /   0

     iteration # 29     ecut=    45.00 Ry     beta= 0.20
     Davidson diagonalization with overlap

---- Real-time Memory Report at c_bands before calling an iterative solver
          1235 MiB given to the printing process from OS
          1037 MiB allocation reported by mallinfo(arena+hblkhd)
         58524 MiB available memory on the node where the printing process lives
     GPU memory used/free/total (MiB): 1500 / 14780 / 16280
------------------
     ethr =  5.12E-06,  avg # of iterations =  1.0

     total cpu time spent up to now is       73.6 secs

     total energy              =    -875.35121788 Ry
     estimated scf accuracy    <       0.01642157 Ry

     total magnetization       =     4.09 Bohr mag/cell
     absolute magnetization    =     4.15 Bohr mag/cell
[tb_dev] Currently allocated     1.95E+00 Mbytes, locked:    0 /   8
[tb_pin] Currently allocated     0.00E+00 Mbytes, locked:    0 /   0

     iteration # 30     ecut=    45.00 Ry     beta= 0.20
     Davidson diagonalization with overlap

---- Real-time Memory Report at c_bands before calling an iterative solver
          1235 MiB given to the printing process from OS
          1037 MiB allocation reported by mallinfo(arena+hblkhd)
         58525 MiB available memory on the node where the printing process lives
     GPU memory used/free/total (MiB): 1500 / 14780 / 16280
------------------
     ethr =  5.12E-06,  avg # of iterations =  2.0

     total cpu time spent up to now is       76.2 secs

     total energy              =    -875.35295786 Ry
     estimated scf accuracy    <       0.01281004 Ry

     total magnetization       =     3.77 Bohr mag/cell
     absolute magnetization    =     3.83 Bohr mag/cell
[tb_dev] Currently allocated     1.95E+00 Mbytes, locked:    0 /   8
[tb_pin] Currently allocated     0.00E+00 Mbytes, locked:    0 /   0

     iteration # 31     ecut=    45.00 Ry     beta= 0.20
     Davidson diagonalization with overlap

---- Real-time Memory Report at c_bands before calling an iterative solver
          1235 MiB given to the printing process from OS
          1037 MiB allocation reported by mallinfo(arena+hblkhd)
         58524 MiB available memory on the node where the printing process lives
     GPU memory used/free/total (MiB): 1500 / 14780 / 16280
------------------
     ethr =  5.12E-06,  avg # of iterations =  1.0

     total cpu time spent up to now is       78.5 secs

     total energy              =    -875.34022290 Ry
     estimated scf accuracy    <       0.03454053 Ry

     total magnetization       =     3.23 Bohr mag/cell
     absolute magnetization    =     3.30 Bohr mag/cell
[tb_dev] Currently allocated     1.95E+00 Mbytes, locked:    0 /   8
[tb_pin] Currently allocated     0.00E+00 Mbytes, locked:    0 /   0

     iteration # 32     ecut=    45.00 Ry     beta= 0.20
     Davidson diagonalization with overlap

---- Real-time Memory Report at c_bands before calling an iterative solver
          1235 MiB given to the printing process from OS
          1037 MiB allocation reported by mallinfo(arena+hblkhd)
         58525 MiB available memory on the node where the printing process lives
     GPU memory used/free/total (MiB): 1500 / 14780 / 16280
------------------
     ethr =  5.12E-06,  avg # of iterations =  2.0

     total cpu time spent up to now is       81.2 secs

     total energy              =    -875.34466870 Ry
     estimated scf accuracy    <       0.01673252 Ry

     total magnetization       =     4.09 Bohr mag/cell
     absolute magnetization    =     4.15 Bohr mag/cell
[tb_dev] Currently allocated     1.95E+00 Mbytes, locked:    0 /   8
[tb_pin] Currently allocated     0.00E+00 Mbytes, locked:    0 /   0

     iteration # 33     ecut=    45.00 Ry     beta= 0.20
     Davidson diagonalization with overlap

---- Real-time Memory Report at c_bands before calling an iterative solver
          1235 MiB given to the printing process from OS
          1037 MiB allocation reported by mallinfo(arena+hblkhd)
         58525 MiB available memory on the node where the printing process lives
     GPU memory used/free/total (MiB): 1500 / 14780 / 16280
------------------
     ethr =  5.12E-06,  avg # of iterations =  1.5

     total cpu time spent up to now is       83.7 secs

     total energy              =    -875.34483799 Ry
     estimated scf accuracy    <       0.03340181 Ry

     total magnetization       =     4.01 Bohr mag/cell
     absolute magnetization    =     4.08 Bohr mag/cell
[tb_dev] Currently allocated     1.95E+00 Mbytes, locked:    0 /   8
[tb_pin] Currently allocated     0.00E+00 Mbytes, locked:    0 /   0

     iteration # 34     ecut=    45.00 Ry     beta= 0.20
     Davidson diagonalization with overlap

---- Real-time Memory Report at c_bands before calling an iterative solver
          1235 MiB given to the printing process from OS
          1037 MiB allocation reported by mallinfo(arena+hblkhd)
         58525 MiB available memory on the node where the printing process lives
     GPU memory used/free/total (MiB): 1500 / 14780 / 16280
------------------
     ethr =  5.12E-06,  avg # of iterations =  1.0

     total cpu time spent up to now is       86.0 secs

     total energy              =    -875.34779388 Ry
     estimated scf accuracy    <       0.03216041 Ry

     total magnetization       =     4.01 Bohr mag/cell
     absolute magnetization    =     4.08 Bohr mag/cell
[tb_dev] Currently allocated     1.95E+00 Mbytes, locked:    0 /   8
[tb_pin] Currently allocated     0.00E+00 Mbytes, locked:    0 /   0

     iteration # 35     ecut=    45.00 Ry     beta= 0.20
     Davidson diagonalization with overlap

---- Real-time Memory Report at c_bands before calling an iterative solver
          1235 MiB given to the printing process from OS
          1037 MiB allocation reported by mallinfo(arena+hblkhd)
         58525 MiB available memory on the node where the printing process lives
     GPU memory used/free/total (MiB): 1500 / 14780 / 16280
------------------
     ethr =  5.12E-06,  avg # of iterations =  1.0

     total cpu time spent up to now is       88.3 secs

     total energy              =    -875.34847720 Ry
     estimated scf accuracy    <       0.01739105 Ry

     total magnetization       =     4.08 Bohr mag/cell
     absolute magnetization    =     4.14 Bohr mag/cell
[tb_dev] Currently allocated     1.95E+00 Mbytes, locked:    0 /   8
[tb_pin] Currently allocated     0.00E+00 Mbytes, locked:    0 /   0

     iteration # 36     ecut=    45.00 Ry     beta= 0.20
     Davidson diagonalization with overlap

---- Real-time Memory Report at c_bands before calling an iterative solver
          1235 MiB given to the printing process from OS
          1037 MiB allocation reported by mallinfo(arena+hblkhd)
         58525 MiB available memory on the node where the printing process lives
     GPU memory used/free/total (MiB): 1500 / 14780 / 16280
------------------
     ethr =  5.12E-06,  avg # of iterations =  1.0

     total cpu time spent up to now is       90.6 secs

     total energy              =    -875.34836565 Ry
     estimated scf accuracy    <       0.01287207 Ry

     total magnetization       =     4.13 Bohr mag/cell
     absolute magnetization    =     4.18 Bohr mag/cell
[tb_dev] Currently allocated     1.95E+00 Mbytes, locked:    0 /   8
[tb_pin] Currently allocated     0.00E+00 Mbytes, locked:    0 /   0

     iteration # 37     ecut=    45.00 Ry     beta= 0.20
     Davidson diagonalization with overlap

---- Real-time Memory Report at c_bands before calling an iterative solver
          1235 MiB given to the printing process from OS
          1037 MiB allocation reported by mallinfo(arena+hblkhd)
         58525 MiB available memory on the node where the printing process lives
     GPU memory used/free/total (MiB): 1500 / 14780 / 16280
------------------
     ethr =  5.12E-06,  avg # of iterations =  1.0

     total cpu time spent up to now is       93.2 secs

     total energy              =    -875.34949922 Ry
     estimated scf accuracy    <       0.01367265 Ry

     total magnetization       =     4.12 Bohr mag/cell
     absolute magnetization    =     4.18 Bohr mag/cell
[tb_dev] Currently allocated     1.95E+00 Mbytes, locked:    0 /   8
[tb_pin] Currently allocated     0.00E+00 Mbytes, locked:    0 /   0

     iteration # 38     ecut=    45.00 Ry     beta= 0.20
     Davidson diagonalization with overlap

---- Real-time Memory Report at c_bands before calling an iterative solver
          1235 MiB given to the printing process from OS
          1037 MiB allocation reported by mallinfo(arena+hblkhd)
         58525 MiB available memory on the node where the printing process lives
     GPU memory used/free/total (MiB): 1500 / 14780 / 16280
------------------
     ethr =  5.12E-06,  avg # of iterations =  1.0

     total cpu time spent up to now is       95.5 secs

     total energy              =    -875.34858086 Ry
     estimated scf accuracy    <       0.00745405 Ry

     total magnetization       =     4.18 Bohr mag/cell
     absolute magnetization    =     4.23 Bohr mag/cell
[tb_dev] Currently allocated     1.95E+00 Mbytes, locked:    0 /   8
[tb_pin] Currently allocated     0.00E+00 Mbytes, locked:    0 /   0

     iteration # 39     ecut=    45.00 Ry     beta= 0.20
     Davidson diagonalization with overlap

---- Real-time Memory Report at c_bands before calling an iterative solver
          1235 MiB given to the printing process from OS
          1037 MiB allocation reported by mallinfo(arena+hblkhd)
         58525 MiB available memory on the node where the printing process lives
     GPU memory used/free/total (MiB): 1500 / 14780 / 16280
------------------
     ethr =  5.12E-06,  avg # of iterations =  1.0

     total cpu time spent up to now is       97.8 secs

     total energy              =    -875.34760528 Ry
     estimated scf accuracy    <       0.01237637 Ry

     total magnetization       =     4.13 Bohr mag/cell
     absolute magnetization    =     4.19 Bohr mag/cell
[tb_dev] Currently allocated     1.95E+00 Mbytes, locked:    0 /   8
[tb_pin] Currently allocated     0.00E+00 Mbytes, locked:    0 /   0

     iteration # 40     ecut=    45.00 Ry     beta= 0.20
     Davidson diagonalization with overlap

---- Real-time Memory Report at c_bands before calling an iterative solver
          1235 MiB given to the printing process from OS
          1037 MiB allocation reported by mallinfo(arena+hblkhd)
         58525 MiB available memory on the node where the printing process lives
     GPU memory used/free/total (MiB): 1500 / 14780 / 16280
------------------
     ethr =  5.12E-06,  avg # of iterations =  1.0

     total cpu time spent up to now is      100.1 secs

     total energy              =    -875.35161391 Ry
     estimated scf accuracy    <       0.01906693 Ry

     total magnetization       =     4.08 Bohr mag/cell
     absolute magnetization    =     4.14 Bohr mag/cell
[tb_dev] Currently allocated     1.95E+00 Mbytes, locked:    0 /   8
[tb_pin] Currently allocated     0.00E+00 Mbytes, locked:    0 /   0

     iteration # 41     ecut=    45.00 Ry     beta= 0.20
     Davidson diagonalization with overlap

---- Real-time Memory Report at c_bands before calling an iterative solver
          1235 MiB given to the printing process from OS
          1037 MiB allocation reported by mallinfo(arena+hblkhd)
         58525 MiB available memory on the node where the printing process lives
     GPU memory used/free/total (MiB): 1500 / 14780 / 16280
------------------
     ethr =  5.12E-06,  avg # of iterations =  2.0

     total cpu time spent up to now is      102.8 secs

     total energy              =    -875.33921743 Ry
     estimated scf accuracy    <       0.02323793 Ry

     total magnetization       =     3.51 Bohr mag/cell
     absolute magnetization    =     3.57 Bohr mag/cell
[tb_dev] Currently allocated     1.95E+00 Mbytes, locked:    0 /   8
[tb_pin] Currently allocated     0.00E+00 Mbytes, locked:    0 /   0

     iteration # 42     ecut=    45.00 Ry     beta= 0.20
     Davidson diagonalization with overlap

---- Real-time Memory Report at c_bands before calling an iterative solver
          1235 MiB given to the printing process from OS
          1037 MiB allocation reported by mallinfo(arena+hblkhd)
         58525 MiB available memory on the node where the printing process lives
     GPU memory used/free/total (MiB): 1500 / 14780 / 16280
------------------
     ethr =  5.12E-06,  avg # of iterations =  2.0

     total cpu time spent up to now is      105.6 secs

     total energy              =    -875.35057907 Ry
     estimated scf accuracy    <       0.02901021 Ry

     total magnetization       =     4.02 Bohr mag/cell
     absolute magnetization    =     4.09 Bohr mag/cell
[tb_dev] Currently allocated     1.95E+00 Mbytes, locked:    0 /   8
[tb_pin] Currently allocated     0.00E+00 Mbytes, locked:    0 /   0

     iteration # 43     ecut=    45.00 Ry     beta= 0.20
     Davidson diagonalization with overlap

---- Real-time Memory Report at c_bands before calling an iterative solver
          1235 MiB given to the printing process from OS
          1037 MiB allocation reported by mallinfo(arena+hblkhd)
         58525 MiB available memory on the node where the printing process lives
     GPU memory used/free/total (MiB): 1500 / 14780 / 16280
------------------
     ethr =  5.12E-06,  avg # of iterations =  1.5

     total cpu time spent up to now is      108.0 secs

     total energy              =    -875.35066811 Ry
     estimated scf accuracy    <       0.00641374 Ry

     total magnetization       =     4.14 Bohr mag/cell
     absolute magnetization    =     4.19 Bohr mag/cell
[tb_dev] Currently allocated     1.95E+00 Mbytes, locked:    0 /   8
[tb_pin] Currently allocated     0.00E+00 Mbytes, locked:    0 /   0

     iteration # 44     ecut=    45.00 Ry     beta= 0.20
     Davidson diagonalization with overlap

---- Real-time Memory Report at c_bands before calling an iterative solver
          1235 MiB given to the printing process from OS
          1037 MiB allocation reported by mallinfo(arena+hblkhd)
         58525 MiB available memory on the node where the printing process lives
     GPU memory used/free/total (MiB): 1500 / 14780 / 16280
------------------
     ethr =  5.12E-06,  avg # of iterations =  1.0

     total cpu time spent up to now is      110.3 secs

     total energy              =    -875.34387052 Ry
     estimated scf accuracy    <       0.00793207 Ry

     total magnetization       =     4.00 Bohr mag/cell
     absolute magnetization    =     4.06 Bohr mag/cell
[tb_dev] Currently allocated     1.95E+00 Mbytes, locked:    0 /   8
[tb_pin] Currently allocated     0.00E+00 Mbytes, locked:    0 /   0

     iteration # 45     ecut=    45.00 Ry     beta= 0.20
     Davidson diagonalization with overlap

---- Real-time Memory Report at c_bands before calling an iterative solver
          1235 MiB given to the printing process from OS
          1037 MiB allocation reported by mallinfo(arena+hblkhd)
         58525 MiB available memory on the node where the printing process lives
     GPU memory used/free/total (MiB): 1500 / 14780 / 16280
------------------
     ethr =  5.12E-06,  avg # of iterations =  2.0

     total cpu time spent up to now is      113.0 secs

     total energy              =    -875.34993596 Ry
     estimated scf accuracy    <       0.03150125 Ry

     total magnetization       =     4.02 Bohr mag/cell
     absolute magnetization    =     4.08 Bohr mag/cell
[tb_dev] Currently allocated     1.95E+00 Mbytes, locked:    0 /   8
[tb_pin] Currently allocated     0.00E+00 Mbytes, locked:    0 /   0

     iteration # 46     ecut=    45.00 Ry     beta= 0.20
     Davidson diagonalization with overlap

---- Real-time Memory Report at c_bands before calling an iterative solver
          1235 MiB given to the printing process from OS
          1037 MiB allocation reported by mallinfo(arena+hblkhd)
         58526 MiB available memory on the node where the printing process lives
     GPU memory used/free/total (MiB): 1500 / 14780 / 16280
------------------
     ethr =  5.12E-06,  avg # of iterations =  1.5

     total cpu time spent up to now is      115.5 secs

     total energy              =    -875.34983771 Ry
     estimated scf accuracy    <       0.00666159 Ry

     total magnetization       =     4.18 Bohr mag/cell
     absolute magnetization    =     4.23 Bohr mag/cell
[tb_dev] Currently allocated     1.95E+00 Mbytes, locked:    0 /   8
[tb_pin] Currently allocated     0.00E+00 Mbytes, locked:    0 /   0

     iteration # 47     ecut=    45.00 Ry     beta= 0.20
     Davidson diagonalization with overlap

---- Real-time Memory Report at c_bands before calling an iterative solver
          1235 MiB given to the printing process from OS
          1037 MiB allocation reported by mallinfo(arena+hblkhd)
         58526 MiB available memory on the node where the printing process lives
     GPU memory used/free/total (MiB): 1500 / 14780 / 16280
------------------
     ethr =  5.12E-06,  avg # of iterations =  1.0

     total cpu time spent up to now is      117.8 secs

     total energy              =    -875.34773093 Ry
     estimated scf accuracy    <       0.00606962 Ry

     total magnetization       =     4.17 Bohr mag/cell
     absolute magnetization    =     4.22 Bohr mag/cell
[tb_dev] Currently allocated     1.95E+00 Mbytes, locked:    0 /   8
[tb_pin] Currently allocated     0.00E+00 Mbytes, locked:    0 /   0

     iteration # 48     ecut=    45.00 Ry     beta= 0.20
     Davidson diagonalization with overlap

---- Real-time Memory Report at c_bands before calling an iterative solver
          1235 MiB given to the printing process from OS
          1037 MiB allocation reported by mallinfo(arena+hblkhd)
         58526 MiB available memory on the node where the printing process lives
     GPU memory used/free/total (MiB): 1500 / 14780 / 16280
------------------
     ethr =  5.12E-06,  avg # of iterations =  1.5

     total cpu time spent up to now is      120.3 secs

     total energy              =    -875.34198361 Ry
     estimated scf accuracy    <       0.01784287 Ry

     total magnetization       =     4.08 Bohr mag/cell
     absolute magnetization    =     4.14 Bohr mag/cell
[tb_dev] Currently allocated     1.95E+00 Mbytes, locked:    0 /   8
[tb_pin] Currently allocated     0.00E+00 Mbytes, locked:    0 /   0

     iteration # 49     ecut=    45.00 Ry     beta= 0.20
     Davidson diagonalization with overlap

---- Real-time Memory Report at c_bands before calling an iterative solver
          1235 MiB given to the printing process from OS
          1037 MiB allocation reported by mallinfo(arena+hblkhd)
         58526 MiB available memory on the node where the printing process lives
     GPU memory used/free/total (MiB): 1500 / 14780 / 16280
------------------
     ethr =  5.12E-06,  avg # of iterations =  1.8

     total cpu time spent up to now is      122.8 secs

     total energy              =    -875.35145698 Ry
     estimated scf accuracy    <       0.04448212 Ry

     total magnetization       =     4.00 Bohr mag/cell
     absolute magnetization    =     4.07 Bohr mag/cell
[tb_dev] Currently allocated     1.95E+00 Mbytes, locked:    0 /   8
[tb_pin] Currently allocated     0.00E+00 Mbytes, locked:    0 /   0

     iteration # 50     ecut=    45.00 Ry     beta= 0.20
     Davidson diagonalization with overlap

---- Real-time Memory Report at c_bands before calling an iterative solver
          1235 MiB given to the printing process from OS
          1037 MiB allocation reported by mallinfo(arena+hblkhd)
         58526 MiB available memory on the node where the printing process lives
     GPU memory used/free/total (MiB): 1500 / 14780 / 16280
------------------
     ethr =  5.12E-06,  avg # of iterations =  2.5

     total cpu time spent up to now is      125.8 secs

     total energy              =    -875.34949444 Ry
     estimated scf accuracy    <       0.01411652 Ry

     total magnetization       =     3.73 Bohr mag/cell
[...]
         58525 MiB available memory on the node where the printing process lives
     GPU memory used/free/total (MiB): 1504 / 14776 / 16280
------------------
     ethr =  5.12E-06,  avg # of iterations =  1.0

     total cpu time spent up to now is      159.5 secs

     total energy              =    -875.34890544 Ry
     estimated scf accuracy    <       0.01538166 Ry

     total magnetization       =     4.10 Bohr mag/cell
     absolute magnetization    =     4.16 Bohr mag/cell
[tb_dev] Currently allocated     1.95E+00 Mbytes, locked:    0 /   8
[tb_pin] Currently allocated     0.00E+00 Mbytes, locked:    0 /   0

     iteration # 65     ecut=    45.00 Ry     beta= 0.20
     Davidson diagonalization with overlap

---- Real-time Memory Report at c_bands before calling an iterative solver
          1236 MiB given to the printing process from OS
          1037 MiB allocation reported by mallinfo(arena+hblkhd)
         58516 MiB available memory on the node where the printing process lives
     GPU memory used/free/total (MiB): 1504 / 14776 / 16280
------------------
     ethr =  5.12E-06,  avg # of iterations =  1.0

     total cpu time spent up to now is      161.8 secs

     total energy              =    -875.34873989 Ry
     estimated scf accuracy    <       0.01028002 Ry

     total magnetization       =     4.15 Bohr mag/cell
     absolute magnetization    =     4.21 Bohr mag/cell
[tb_dev] Currently allocated     1.95E+00 Mbytes, locked:    0 /   8
[tb_pin] Currently allocated     0.00E+00 Mbytes, locked:    0 /   0

     iteration # 66     ecut=    45.00 Ry     beta= 0.20
     Davidson diagonalization with overlap

---- Real-time Memory Report at c_bands before calling an iterative solver
          1236 MiB given to the printing process from OS
          1037 MiB allocation reported by mallinfo(arena+hblkhd)
         58517 MiB available memory on the node where the printing process lives
     GPU memory used/free/total (MiB): 1504 / 14776 / 16280
------------------
     ethr =  5.12E-06,  avg # of iterations =  1.0

     total cpu time spent up to now is      164.1 secs

     total energy              =    -875.35102145 Ry
     estimated scf accuracy    <       0.01107607 Ry

     total magnetization       =     4.14 Bohr mag/cell
     absolute magnetization    =     4.20 Bohr mag/cell
[tb_dev] Currently allocated     1.95E+00 Mbytes, locked:    0 /   8
[tb_pin] Currently allocated     0.00E+00 Mbytes, locked:    0 /   0

     iteration # 67     ecut=    45.00 Ry     beta= 0.20
     Davidson diagonalization with overlap

---- Real-time Memory Report at c_bands before calling an iterative solver
          1236 MiB given to the printing process from OS
          1037 MiB allocation reported by mallinfo(arena+hblkhd)
         58518 MiB available memory on the node where the printing process lives
     GPU memory used/free/total (MiB): 1504 / 14776 / 16280
------------------
     ethr =  5.12E-06,  avg # of iterations =  2.0

     total cpu time spent up to now is      166.8 secs

     total energy              =    -875.34665425 Ry
     estimated scf accuracy    <       0.01377539 Ry

     total magnetization       =     3.73 Bohr mag/cell
     absolute magnetization    =     3.78 Bohr mag/cell
[tb_dev] Currently allocated     1.95E+00 Mbytes, locked:    0 /   8
[tb_pin] Currently allocated     0.00E+00 Mbytes, locked:    0 /   0

     iteration # 68     ecut=    45.00 Ry     beta= 0.20
     Davidson diagonalization with overlap

---- Real-time Memory Report at c_bands before calling an iterative solver
          1236 MiB given to the printing process from OS
          1037 MiB allocation reported by mallinfo(arena+hblkhd)
         58520 MiB available memory on the node where the printing process lives
     GPU memory used/free/total (MiB): 1504 / 14776 / 16280
------------------
     ethr =  5.12E-06,  avg # of iterations =  1.5

     total cpu time spent up to now is      169.3 secs

     total energy              =    -875.34923177 Ry
     estimated scf accuracy    <       0.01036295 Ry

     total magnetization       =     4.15 Bohr mag/cell
     absolute magnetization    =     4.21 Bohr mag/cell
[tb_dev] Currently allocated     1.95E+00 Mbytes, locked:    0 /   8
[tb_pin] Currently allocated     0.00E+00 Mbytes, locked:    0 /   0

     iteration # 69     ecut=    45.00 Ry     beta= 0.20
     Davidson diagonalization with overlap

---- Real-time Memory Report at c_bands before calling an iterative solver
          1236 MiB given to the printing process from OS
          1037 MiB allocation reported by mallinfo(arena+hblkhd)
         58521 MiB available memory on the node where the printing process lives
     GPU memory used/free/total (MiB): 1504 / 14776 / 16280
------------------
     ethr =  5.12E-06,  avg # of iterations =  1.0

     total cpu time spent up to now is      171.5 secs

     total energy              =    -875.35054540 Ry
     estimated scf accuracy    <       0.00853343 Ry

     total magnetization       =     4.17 Bohr mag/cell
     absolute magnetization    =     4.23 Bohr mag/cell
[tb_dev] Currently allocated     1.95E+00 Mbytes, locked:    0 /   8
[tb_pin] Currently allocated     0.00E+00 Mbytes, locked:    0 /   0

     iteration # 70     ecut=    45.00 Ry     beta= 0.20
     Davidson diagonalization with overlap

---- Real-time Memory Report at c_bands before calling an iterative solver
          1236 MiB given to the printing process from OS
          1037 MiB allocation reported by mallinfo(arena+hblkhd)
         58522 MiB available memory on the node where the printing process lives
     GPU memory used/free/total (MiB): 1504 / 14776 / 16280
------------------
     ethr =  5.12E-06,  avg # of iterations =  1.5

     total cpu time spent up to now is      174.0 secs

     total energy              =    -875.35091030 Ry
     estimated scf accuracy    <       0.00744598 Ry

     total magnetization       =     4.01 Bohr mag/cell
     absolute magnetization    =     4.07 Bohr mag/cell
[tb_dev] Currently allocated     1.95E+00 Mbytes, locked:    0 /   8
[tb_pin] Currently allocated     0.00E+00 Mbytes, locked:    0 /   0

     iteration # 71     ecut=    45.00 Ry     beta= 0.20
     Davidson diagonalization with overlap

---- Real-time Memory Report at c_bands before calling an iterative solver
          1236 MiB given to the printing process from OS
          1037 MiB allocation reported by mallinfo(arena+hblkhd)
         58518 MiB available memory on the node where the printing process lives
     GPU memory used/free/total (MiB): 1504 / 14776 / 16280
------------------
     ethr =  5.12E-06,  avg # of iterations =  1.0

     total cpu time spent up to now is      176.3 secs

     total energy              =    -875.35195655 Ry
     estimated scf accuracy    <       0.00819660 Ry

     total magnetization       =     3.96 Bohr mag/cell
     absolute magnetization    =     4.02 Bohr mag/cell
[tb_dev] Currently allocated     1.95E+00 Mbytes, locked:    0 /   8
[tb_pin] Currently allocated     0.00E+00 Mbytes, locked:    0 /   0

     iteration # 72     ecut=    45.00 Ry     beta= 0.20
     Davidson diagonalization with overlap

---- Real-time Memory Report at c_bands before calling an iterative solver
          1236 MiB given to the printing process from OS
          1037 MiB allocation reported by mallinfo(arena+hblkhd)
         58519 MiB available memory on the node where the printing process lives
     GPU memory used/free/total (MiB): 1504 / 14776 / 16280
------------------
     ethr =  5.12E-06,  avg # of iterations =  1.0

     total cpu time spent up to now is      178.6 secs

     total energy              =    -875.34694766 Ry
     estimated scf accuracy    <       0.02165492 Ry

     total magnetization       =     3.51 Bohr mag/cell
     absolute magnetization    =     3.57 Bohr mag/cell
[tb_dev] Currently allocated     1.95E+00 Mbytes, locked:    0 /   8
[tb_pin] Currently allocated     0.00E+00 Mbytes, locked:    0 /   0

     iteration # 73     ecut=    45.00 Ry     beta= 0.20
     Davidson diagonalization with overlap

---- Real-time Memory Report at c_bands before calling an iterative solver
          1236 MiB given to the printing process from OS
          1037 MiB allocation reported by mallinfo(arena+hblkhd)
         58520 MiB available memory on the node where the printing process lives
     GPU memory used/free/total (MiB): 1504 / 14776 / 16280
------------------
     ethr =  5.12E-06,  avg # of iterations =  1.5

     total cpu time spent up to now is      181.1 secs

     total energy              =    -875.34852190 Ry
     estimated scf accuracy    <       0.00657897 Ry

     total magnetization       =     4.18 Bohr mag/cell
     absolute magnetization    =     4.23 Bohr mag/cell
[tb_dev] Currently allocated     1.95E+00 Mbytes, locked:    0 /   8
[tb_pin] Currently allocated     0.00E+00 Mbytes, locked:    0 /   0

     iteration # 74     ecut=    45.00 Ry     beta= 0.20
     Davidson diagonalization with overlap

---- Real-time Memory Report at c_bands before calling an iterative solver
          1236 MiB given to the printing process from OS
          1037 MiB allocation reported by mallinfo(arena+hblkhd)
         58522 MiB available memory on the node where the printing process lives
     GPU memory used/free/total (MiB): 1504 / 14776 / 16280
------------------
     ethr =  5.12E-06,  avg # of iterations =  1.0

     total cpu time spent up to now is      183.4 secs

     total energy              =    -875.34707374 Ry
     estimated scf accuracy    <       0.01255013 Ry

     total magnetization       =     4.13 Bohr mag/cell
     absolute magnetization    =     4.19 Bohr mag/cell
[tb_dev] Currently allocated     1.95E+00 Mbytes, locked:    0 /   8
[tb_pin] Currently allocated     0.00E+00 Mbytes, locked:    0 /   0

     iteration # 75     ecut=    45.00 Ry     beta= 0.20
     Davidson diagonalization with overlap

---- Real-time Memory Report at c_bands before calling an iterative solver
          1236 MiB given to the printing process from OS
          1037 MiB allocation reported by mallinfo(arena+hblkhd)
         58522 MiB available memory on the node where the printing process lives
     GPU memory used/free/total (MiB): 1504 / 14776 / 16280
------------------
     ethr =  5.12E-06,  avg # of iterations =  1.0

     total cpu time spent up to now is      185.8 secs

     total energy              =    -875.34712560 Ry
     estimated scf accuracy    <       0.02198654 Ry

     total magnetization       =     4.05 Bohr mag/cell
     absolute magnetization    =     4.11 Bohr mag/cell
[tb_dev] Currently allocated     1.95E+00 Mbytes, locked:    0 /   8
[tb_pin] Currently allocated     0.00E+00 Mbytes, locked:    0 /   0

     iteration # 76     ecut=    45.00 Ry     beta= 0.20
     Davidson diagonalization with overlap

---- Real-time Memory Report at c_bands before calling an iterative solver
          1236 MiB given to the printing process from OS
          1037 MiB allocation reported by mallinfo(arena+hblkhd)
         58521 MiB available memory on the node where the printing process lives
     GPU memory used/free/total (MiB): 1504 / 14776 / 16280
------------------
     ethr =  5.12E-06,  avg # of iterations =  1.0

     total cpu time spent up to now is      188.1 secs

     total energy              =    -875.35003056 Ry
     estimated scf accuracy    <       0.02139696 Ry

     total magnetization       =     4.06 Bohr mag/cell
     absolute magnetization    =     4.12 Bohr mag/cell
[tb_dev] Currently allocated     1.95E+00 Mbytes, locked:    0 /   8
[tb_pin] Currently allocated     0.00E+00 Mbytes, locked:    0 /   0

     iteration # 77     ecut=    45.00 Ry     beta= 0.20
     Davidson diagonalization with overlap

---- Real-time Memory Report at c_bands before calling an iterative solver
          1236 MiB given to the printing process from OS
          1037 MiB allocation reported by mallinfo(arena+hblkhd)
         58521 MiB available memory on the node where the printing process lives
     GPU memory used/free/total (MiB): 1504 / 14776 / 16280
------------------
     ethr =  5.12E-06,  avg # of iterations =  1.5

     total cpu time spent up to now is      190.6 secs

     total energy              =    -875.34743977 Ry
     estimated scf accuracy    <       0.00609991 Ry

     total magnetization       =     4.17 Bohr mag/cell
     absolute magnetization    =     4.22 Bohr mag/cell
[tb_dev] Currently allocated     1.95E+00 Mbytes, locked:    0 /   8
[tb_pin] Currently allocated     0.00E+00 Mbytes, locked:    0 /   0

     iteration # 78     ecut=    45.00 Ry     beta= 0.20
     Davidson diagonalization with overlap

---- Real-time Memory Report at c_bands before calling an iterative solver
          1236 MiB given to the printing process from OS
          1037 MiB allocation reported by mallinfo(arena+hblkhd)
         58522 MiB available memory on the node where the printing process lives
     GPU memory used/free/total (MiB): 1504 / 14776 / 16280
------------------
     ethr =  5.12E-06,  avg # of iterations =  1.5

     total cpu time spent up to now is      193.1 secs

     total energy              =    -875.33918988 Ry
     estimated scf accuracy    <       0.01996206 Ry

     total magnetization       =     4.07 Bohr mag/cell
     absolute magnetization    =     4.13 Bohr mag/cell
[tb_dev] Currently allocated     1.95E+00 Mbytes, locked:    0 /   8
[tb_pin] Currently allocated     0.00E+00 Mbytes, locked:    0 /   0

     iteration # 79     ecut=    45.00 Ry     beta= 0.20
     Davidson diagonalization with overlap

---- Real-time Memory Report at c_bands before calling an iterative solver
          1236 MiB given to the printing process from OS
          1037 MiB allocation reported by mallinfo(arena+hblkhd)
         58521 MiB available memory on the node where the printing process lives
     GPU memory used/free/total (MiB): 1504 / 14776 / 16280
------------------
     ethr =  5.12E-06,  avg # of iterations =  2.0

     total cpu time spent up to now is      195.8 secs

     total energy              =    -875.34898000 Ry
     estimated scf accuracy    <       0.05529182 Ry

     total magnetization       =     4.00 Bohr mag/cell
     absolute magnetization    =     4.07 Bohr mag/cell
[tb_dev] Currently allocated     1.95E+00 Mbytes, locked:    0 /   8
[tb_pin] Currently allocated     0.00E+00 Mbytes, locked:    0 /   0

     iteration # 80     ecut=    45.00 Ry     beta= 0.20
     Davidson diagonalization with overlap

---- Real-time Memory Report at c_bands before calling an iterative solver
          1236 MiB given to the printing process from OS
          1037 MiB allocation reported by mallinfo(arena+hblkhd)
         58520 MiB available memory on the node where the printing process lives
     GPU memory used/free/total (MiB): 1504 / 14776 / 16280
------------------
     ethr =  5.12E-06,  avg # of iterations =  2.0

     total cpu time spent up to now is      198.5 secs

     total energy              =    -875.33484105 Ry
     estimated scf accuracy    <       0.00900753 Ry

     total magnetization       =     4.17 Bohr mag/cell
     absolute magnetization    =     4.22 Bohr mag/cell

     End of self-consistent calculation

     convergence NOT achieved after  80 iterations: stopping

     Writing config to output data dir ./out/aiida.save/
 
     init_run     :      9.95s CPU      2.22s WALL (       1 calls)
     electrons    :    376.29s CPU    195.65s WALL (       1 calls)

     Called by init_run:
     wfcinit      :      0.29s CPU      0.29s WALL (       1 calls)
                                        0.29s GPU  (       1 calls)
     potinit      :      0.32s CPU      0.14s WALL (       1 calls)
     hinit0       :      7.04s CPU      1.20s WALL (       1 calls)

     Called by electrons:
     c_bands      :    264.21s CPU    155.40s WALL (      80 calls)
     sum_band     :     28.89s CPU     32.43s WALL (      80 calls)
     v_of_rho     :     23.74s CPU      2.17s WALL (      81 calls)
     v_h          :      3.19s CPU      0.28s WALL (      81 calls)
     v_xc         :     20.54s CPU      1.89s WALL (      81 calls)
     newd         :     30.81s CPU      3.10s WALL (      81 calls)
                                        3.10s GPU  (      81 calls)
     mix_rho      :     20.46s CPU      1.98s WALL (      80 calls)

     Called by c_bands:
     init_us_2    :     17.23s CPU     14.03s WALL (   11200 calls)
     init_us_2:gp :     16.96s CPU     13.85s WALL (   11200 calls)
     cegterg      :    220.19s CPU    129.69s WALL (    5600 calls)

     Called by sum_band:
     sum_band:wei :      0.22s CPU      0.23s WALL (      80 calls)
                                        0.23s GPU  (      80 calls)
     sum_band:loo :     24.94s CPU     28.36s WALL (      80 calls)
                                       28.36s GPU  (      80 calls)
     sum_band:buf :      5.91s CPU      6.33s WALL (    5600 calls)
                                        6.30s GPU  (    5600 calls)
     sum_band:ini :      5.91s CPU      6.93s WALL (    5600 calls)
                                        6.90s GPU  (    5600 calls)
     sum_band:cal :      0.14s CPU      0.94s WALL (    5600 calls)
                                        0.85s GPU  (    5600 calls)
     sum_band:bec :      1.34s CPU      1.64s WALL (    5600 calls)
                                        1.60s GPU  (    5600 calls)
     addusdens    :      2.49s CPU      2.59s WALL (      80 calls)
                                        2.59s GPU  (      80 calls)
     addusd:skk   :      0.03s CPU      0.03s WALL (     240 calls)
                                        0.03s GPU  (     240 calls)

     Called by *egterg:
     cdiaghg      :     93.81s CPU     57.58s WALL (   12855 calls)
                                       57.50s GPU  (   12855 calls)
     cegterg:over :      3.59s CPU      2.07s WALL (    7325 calls)
     cegterg:upda :      7.36s CPU      4.25s WALL (    7325 calls)
     cegterg:last :      1.75s CPU      1.05s WALL (    7196 calls)
     h_psi        :     99.88s CPU     57.12s WALL (   12925 calls)
                                       57.00s GPU  (   12925 calls)
     s_psi        :      3.19s CPU      3.36s WALL (   12925 calls)
                                        3.13s GPU  (   12925 calls)
     g_psi        :      0.09s CPU      0.28s WALL (    7325 calls)
                                        0.23s GPU  (    7325 calls)

     Called by h_psi:
     h_psi:calbec :      0.72s CPU      2.17s WALL (   12925 calls)
                                        2.08s GPU  (   12925 calls)
     vloc_psi     :     86.69s CPU     49.89s WALL (   12925 calls)
                                       49.81s GPU  (   12925 calls)
     add_vuspsi   :      5.25s CPU      4.05s WALL (   12925 calls)
                                        3.97s GPU  (   12925 calls)

     General routines
     calbec       :      0.61s CPU      0.40s WALL (   18525 calls)
     fft          :      2.81s CPU      0.47s WALL (    2023 calls)
                                        0.36s GPU  (    1861 calls)
     ffts         :      0.24s CPU      0.05s WALL (     322 calls)
                                        0.01s GPU  (     160 calls)
     fftw         :      3.49s CPU     38.29s WALL (  115878 calls)
                                       37.66s GPU  (  115878 calls)
     interpolate  :      3.39s CPU      0.31s WALL (     162 calls)
     davcio       :      0.98s CPU      0.48s WALL (     158 calls)
 
     Parallel routines
 
     PWSCF        :   6m29.95s CPU   3m18.93s WALL

 
   This run was terminated on:  21:31:54  23Oct2023            

=------------------------------------------------------------------------------=
   JOB DONE.
=------------------------------------------------------------------------------=
