
     Program PWSCF v.7.2 starts on 23Oct2023 at 21:18: 1 

     This program is part of the open-source Quantum ESPRESSO suite
     for quantum simulation of materials; please cite
         "P. Giannozzi et al., J. Phys.:Condens. Matter 21 395502 (2009);
         "P. Giannozzi et al., J. Phys.:Condens. Matter 29 465901 (2017);
         "P. Giannozzi et al., J. Chem. Phys. 152 154105 (2020);
          URL http://www.quantum-espresso.org", 
     in publications or presentations arising from this work. More details at
     http://www.quantum-espresso.org/quote

     Parallel version (MPI & OpenMP), running on      12 processor cores
     Number of MPI processes:                 1
     Threads/MPI process:                    12

     MPI processes distributed on     1 nodes
     60497 MiB available memory on the printing compute node when the environment starts
 
     Reading input from aiida.in

     Current dimensions of program PWSCF are:
     Max number of different atomic species (ntypx) = 10
     Max number of k-points (npk) =  40000
     Max angular momentum in pseudopotentials (lmaxx) =  4
     Message from routine setup:
     using ibrav=0 with symmetry is DISCOURAGED, use correct ibrav instead
 
     Subspace diagonalization in iterative solution of the eigenvalue problem:
     a serial algorithm will be used

 
     G-vector sticks info
     --------------------
     sticks:   dense  smooth     PW     G-vecs:    dense   smooth      PW
     Sum        5077    2527    703               237953    84283   12387
 
     Using Slab Decomposition
 


     bravais-lattice index     =            0
     lattice parameter (alat)  =      12.3736  a.u.
     unit-cell volume          =    1339.5828 (a.u.)^3
     number of atoms/cell      =           10
     number of atomic types    =            3
     number of electrons       =        68.00
     number of Kohn-Sham states=           41
     kinetic-energy cutoff     =      60.0000  Ry
     charge density cutoff     =     480.0000  Ry
     scf convergence threshold =      2.0E-09
     mixing beta               =       0.1000
     number of iterations used =            8  plain     mixing
     Exchange-correlation= PBESOL
                           (   1   4  10   8   0   0   0)

     GPU acceleration is ACTIVE.


     GPU used by master process:

        Device Number: 0
        Device name: Tesla P100-PCIE-16GB
        Compute capability : 60
        Ratio of single to double precision performance  : 2
        Memory Clock Rate (KHz): 715000
        Memory Bus Width (bits): 4096
        Peak Memory Bandwidth (GB/s): 732.16

     celldm(1)=  12.373565  celldm(2)=   0.000000  celldm(3)=   0.000000
     celldm(4)=   0.000000  celldm(5)=   0.000000  celldm(6)=   0.000000

     crystal axes: (cart. coord. in units of alat)
               a(1) = (   0.000000   0.707107   0.707107 )  
               a(2) = (   0.707107   0.000000   0.707107 )  
               a(3) = (   0.707107   0.707107   0.000000 )  

     reciprocal axes: (cart. coord. in units 2 pi/alat)
               b(1) = ( -0.707107  0.707107  0.707107 )  
               b(2) = (  0.707107 -0.707107  0.707107 )  
               b(3) = (  0.707107  0.707107 -0.707107 )  


     PseudoPot. # 1 for F  read from file:
     ./pseudo/f_pbesol_v1.4.uspp.F.UPF
     MD5 check sum: d2815ecb49b17b99c5724ffd2f9bbd8d
     Pseudo is Ultrasoft, Zval =  7.0
     Generated by new atomic code, or converted to UPF format
     Using radial grid of  799 points,  4 beta functions with: 
                l(1) =   0
                l(2) =   0
                l(3) =   1
                l(4) =   1
     Q(r) pseudized with  8 coefficients,  rinner =    0.950   0.950   0.950


     PseudoPot. # 2 for N  read from file:
     ./pseudo/N.pbesol-theos.UPF
     MD5 check sum: 1b64827339d390a5a22afef3ff345c9d
     Pseudo is Ultrasoft + core correction, Zval =  5.0
     Generated using "atomic" code by A. Dal Corso  v.5.1
     Using radial grid of 1085 points,  4 beta functions with: 
                l(1) =   0
                l(2) =   0
                l(3) =   1
                l(4) =   1
     Q(r) pseudized with 0 coefficients 


     PseudoPot. # 3 for Sc read from file:
     ./pseudo/Sc_ONCV_PBEsol-1.0.upf
     MD5 check sum: 1a9da10301537f29e8fd13e102309a15
     Pseudo is Norm-conserving, Zval = 11.0
     Generated using ONCVPSP code by D. R. Hamann
     Using radial grid of 1642 points,  6 beta functions with: 
                l(1) =   0
                l(2) =   0
                l(3) =   1
                l(4) =   1
                l(5) =   2
                l(6) =   2

     atomic species   valence    mass     pseudopotential
        F              7.00    18.99840     F ( 1.00)
        N              5.00    14.00670     N ( 1.00)
        Sc            11.00    44.95591     Sc( 1.00)

     Starting magnetic structure 
     atomic species   magnetization
        F            0.100
        N            0.100
        Sc           0.455

     48 Sym. Ops., with inversion, found


                                    s                        frac. trans.

      isym =  1     identity                                     

 cryst.   s( 1) = (     1          0          0      )
                  (     0          1          0      )
                  (     0          0          1      )

 cart.    s( 1) = (  1.0000000 -0.0000000  0.0000000 )
                  ( -0.0000000  1.0000000  0.0000000 )
                  ( -0.0000000  0.0000000  1.0000000 )


      isym =  2     180 deg rotation - cart. axis [0,0,1]        

 cryst.   s( 2) = (     0          1         -1      )
                  (     1          0         -1      )
                  (     0          0         -1      )

 cart.    s( 2) = ( -1.0000000  0.0000000  0.0000000 )
                  (  0.0000000 -1.0000000  0.0000000 )
                  (  0.0000000 -0.0000000  1.0000000 )


      isym =  3     180 deg rotation - cart. axis [0,1,0]        

 cryst.   s( 3) = (     0         -1          1      )
                  (     0         -1          0      )
                  (     1         -1          0      )

 cart.    s( 3) = ( -1.0000000 -0.0000000 -0.0000000 )
                  (  0.0000000  1.0000000 -0.0000000 )
                  (  0.0000000  0.0000000 -1.0000000 )


      isym =  4     180 deg rotation - cart. axis [1,0,0]        

 cryst.   s( 4) = (    -1          0          0      )
                  (    -1          0          1      )
                  (    -1          1          0      )

 cart.    s( 4) = (  1.0000000  0.0000000 -0.0000000 )
                  ( -0.0000000 -1.0000000 -0.0000000 )
                  ( -0.0000000 -0.0000000 -1.0000000 )


      isym =  5     180 deg rotation - cart. axis [1,1,0]        

 cryst.   s( 5) = (    -1          0          1      )
                  (     0         -1          1      )
                  (     0          0          1      )

 cart.    s( 5) = ( -0.0000000  1.0000000 -0.0000000 )
                  (  1.0000000 -0.0000000 -0.0000000 )
                  (  0.0000000 -0.0000000 -1.0000000 )


      isym =  6     180 deg rotation - cart. axis [1,-1,0]       

 cryst.   s( 6) = (     0         -1          0      )
                  (    -1          0          0      )
                  (     0          0         -1      )

 cart.    s( 6) = (  0.0000000 -1.0000000 -0.0000000 )
                  ( -1.0000000  0.0000000 -0.0000000 )
                  ( -0.0000000  0.0000000 -1.0000000 )


      isym =  7      90 deg rotation - cart. axis [0,0,-1]       

 cryst.   s( 7) = (     0          1          0      )
                  (     0          1         -1      )
                  (    -1          1          0      )

 cart.    s( 7) = (  0.0000000  1.0000000  0.0000000 )
                  ( -1.0000000 -0.0000000  0.0000000 )
                  ( -0.0000000 -0.0000000  1.0000000 )


      isym =  8      90 deg rotation - cart. axis [0,0,1]        

 cryst.   s( 8) = (     1          0         -1      )
                  (     1          0          0      )
                  (     1         -1          0      )

 cart.    s( 8) = ( -0.0000000 -1.0000000  0.0000000 )
                  (  1.0000000  0.0000000  0.0000000 )
                  (  0.0000000  0.0000000  1.0000000 )


      isym =  9     180 deg rotation - cart. axis [1,0,1]        

 cryst.   s( 9) = (    -1          1          0      )
                  (     0          1          0      )
                  (     0          1         -1      )

 cart.    s( 9) = (  0.0000000  0.0000000  1.0000000 )
                  (  0.0000000 -1.0000000 -0.0000000 )
                  (  1.0000000 -0.0000000 -0.0000000 )


      isym = 10     180 deg rotation - cart. axis [-1,0,1]       

 cryst.   s(10) = (     0          0         -1      )
                  (     0         -1          0      )
                  (    -1          0          0      )

 cart.    s(10) = ( -0.0000000  0.0000000 -1.0000000 )
                  ( -0.0000000 -1.0000000  0.0000000 )
                  ( -1.0000000 -0.0000000  0.0000000 )


      isym = 11      90 deg rotation - cart. axis [0,1,0]        

 cryst.   s(11) = (     0          0          1      )
                  (    -1          0          1      )
                  (     0         -1          1      )

 cart.    s(11) = ( -0.0000000 -0.0000000  1.0000000 )
                  ( -0.0000000  1.0000000 -0.0000000 )
                  ( -1.0000000  0.0000000 -0.0000000 )


      isym = 12      90 deg rotation - cart. axis [0,-1,0]       

 cryst.   s(12) = (     1         -1          0      )
                  (     1          0         -1      )
                  (     1          0          0      )

 cart.    s(12) = (  0.0000000 -0.0000000 -1.0000000 )
                  (  0.0000000  1.0000000  0.0000000 )
                  (  1.0000000  0.0000000  0.0000000 )


      isym = 13     180 deg rotation - cart. axis [0,1,1]        

 cryst.   s(13) = (     1          0          0      )
                  (     1         -1          0      )
                  (     1          0         -1      )

 cart.    s(13) = ( -1.0000000  0.0000000 -0.0000000 )
                  (  0.0000000  0.0000000  1.0000000 )
                  (  0.0000000  1.0000000  0.0000000 )


      isym = 14     180 deg rotation - cart. axis [0,1,-1]       

 cryst.   s(14) = (    -1          0          0      )
                  (     0          0         -1      )
                  (     0         -1          0      )

 cart.    s(14) = ( -1.0000000 -0.0000000  0.0000000 )
                  (  0.0000000 -0.0000000 -1.0000000 )
                  (  0.0000000 -1.0000000 -0.0000000 )


      isym = 15      90 deg rotation - cart. axis [-1,0,0]       

 cryst.   s(15) = (     0         -1          1      )
                  (     0          0          1      )
                  (    -1          0          1      )

 cart.    s(15) = (  1.0000000 -0.0000000 -0.0000000 )
                  ( -0.0000000 -0.0000000  1.0000000 )
                  ( -0.0000000 -1.0000000  0.0000000 )


      isym = 16      90 deg rotation - cart. axis [1,0,0]        

 cryst.   s(16) = (     0          1         -1      )
                  (    -1          1          0      )
                  (     0          1          0      )

 cart.    s(16) = (  1.0000000  0.0000000  0.0000000 )
                  ( -0.0000000  0.0000000 -1.0000000 )
                  ( -0.0000000  1.0000000 -0.0000000 )


      isym = 17     120 deg rotation - cart. axis [-1,-1,-1]     

 cryst.   s(17) = (     0          0          1      )
                  (     1          0          0      )
                  (     0          1          0      )

 cart.    s(17) = (  0.0000000  1.0000000 -0.0000000 )
                  (  0.0000000 -0.0000000  1.0000000 )
                  (  1.0000000 -0.0000000  0.0000000 )


      isym = 18     120 deg rotation - cart. axis [-1,1,1]       

 cryst.   s(18) = (     1         -1          0      )
                  (     0         -1          1      )
                  (     0         -1          0      )

 cart.    s(18) = ( -0.0000000 -1.0000000 -0.0000000 )
                  ( -0.0000000  0.0000000  1.0000000 )
                  ( -1.0000000  0.0000000  0.0000000 )


      isym = 19     120 deg rotation - cart. axis [1,1,-1]       

 cryst.   s(19) = (    -1          1          0      )
                  (    -1          0          0      )
                  (    -1          0          1      )

 cart.    s(19) = ( -0.0000000  1.0000000  0.0000000 )
                  ( -0.0000000 -0.0000000 -1.0000000 )
                  ( -1.0000000 -0.0000000 -0.0000000 )


      isym = 20     120 deg rotation - cart. axis [1,-1,1]       

 cryst.   s(20) = (     0          0         -1      )
                  (     0          1         -1      )
                  (     1          0         -1      )

 cart.    s(20) = (  0.0000000 -1.0000000  0.0000000 )
                  (  0.0000000  0.0000000 -1.0000000 )
                  (  1.0000000  0.0000000 -0.0000000 )


      isym = 21     120 deg rotation - cart. axis [1,1,1]        

 cryst.   s(21) = (     0          1          0      )
                  (     0          0          1      )
                  (     1          0          0      )

 cart.    s(21) = ( -0.0000000  0.0000000  1.0000000 )
                  (  1.0000000  0.0000000 -0.0000000 )
                  (  0.0000000  1.0000000 -0.0000000 )


      isym = 22     120 deg rotation - cart. axis [-1,1,-1]      

 cryst.   s(22) = (    -1          0          1      )
                  (    -1          1          0      )
                  (    -1          0          0      )

 cart.    s(22) = (  0.0000000 -0.0000000  1.0000000 )
                  ( -1.0000000 -0.0000000 -0.0000000 )
                  ( -0.0000000 -1.0000000 -0.0000000 )


      isym = 23     120 deg rotation - cart. axis [1,-1,-1]      

 cryst.   s(23) = (     1          0         -1      )
                  (     0          0         -1      )
                  (     0          1         -1      )

 cart.    s(23) = (  0.0000000  0.0000000 -1.0000000 )
                  ( -1.0000000  0.0000000  0.0000000 )
                  ( -0.0000000  1.0000000  0.0000000 )


      isym = 24     120 deg rotation - cart. axis [-1,-1,1]      

 cryst.   s(24) = (     0         -1          0      )
                  (     1         -1          0      )
                  (     0         -1          1      )

 cart.    s(24) = ( -0.0000000 -0.0000000 -1.0000000 )
                  (  1.0000000 -0.0000000  0.0000000 )
                  (  0.0000000 -1.0000000  0.0000000 )


      isym = 25     inversion                                    

 cryst.   s(25) = (    -1          0          0      )
                  (     0         -1          0      )
                  (     0          0         -1      )

 cart.    s(25) = ( -1.0000000  0.0000000 -0.0000000 )
                  (  0.0000000 -1.0000000 -0.0000000 )
                  (  0.0000000 -0.0000000 -1.0000000 )


      isym = 26     inv. 180 deg rotation - cart. axis [0,0,1]   

 cryst.   s(26) = (     0         -1          1      )
                  (    -1          0          1      )
                  (     0          0          1      )

 cart.    s(26) = (  1.0000000 -0.0000000 -0.0000000 )
                  ( -0.0000000  1.0000000 -0.0000000 )
                  ( -0.0000000  0.0000000 -1.0000000 )


      isym = 27     inv. 180 deg rotation - cart. axis [0,1,0]   

 cryst.   s(27) = (     0          1         -1      )
                  (     0          1          0      )
                  (    -1          1          0      )

 cart.    s(27) = (  1.0000000  0.0000000  0.0000000 )
                  ( -0.0000000 -1.0000000  0.0000000 )
                  ( -0.0000000 -0.0000000  1.0000000 )


      isym = 28     inv. 180 deg rotation - cart. axis [1,0,0]   

 cryst.   s(28) = (     1          0          0      )
                  (     1          0         -1      )
                  (     1         -1          0      )

 cart.    s(28) = ( -1.0000000 -0.0000000  0.0000000 )
                  (  0.0000000  1.0000000  0.0000000 )
                  (  0.0000000  0.0000000  1.0000000 )


      isym = 29     inv. 180 deg rotation - cart. axis [1,1,0]   

 cryst.   s(29) = (     1          0         -1      )
                  (     0          1         -1      )
                  (     0          0         -1      )

 cart.    s(29) = (  0.0000000 -1.0000000  0.0000000 )
                  ( -1.0000000  0.0000000  0.0000000 )
                  ( -0.0000000  0.0000000  1.0000000 )


      isym = 30     inv. 180 deg rotation - cart. axis [1,-1,0]  

 cryst.   s(30) = (     0          1          0      )
                  (     1          0          0      )
                  (     0          0          1      )

 cart.    s(30) = ( -0.0000000  1.0000000  0.0000000 )
                  (  1.0000000 -0.0000000  0.0000000 )
                  (  0.0000000 -0.0000000  1.0000000 )


      isym = 31     inv.  90 deg rotation - cart. axis [0,0,-1]  

 cryst.   s(31) = (     0         -1          0      )
                  (     0         -1          1      )
                  (     1         -1          0      )

 cart.    s(31) = ( -0.0000000 -1.0000000 -0.0000000 )
                  (  1.0000000  0.0000000 -0.0000000 )
                  (  0.0000000  0.0000000 -1.0000000 )


      isym = 32     inv.  90 deg rotation - cart. axis [0,0,1]   

 cryst.   s(32) = (    -1          0          1      )
                  (    -1          0          0      )
                  (    -1          1          0      )

 cart.    s(32) = (  0.0000000  1.0000000 -0.0000000 )
                  ( -1.0000000 -0.0000000 -0.0000000 )
                  ( -0.0000000 -0.0000000 -1.0000000 )


      isym = 33     inv. 180 deg rotation - cart. axis [1,0,1]   

 cryst.   s(33) = (     1         -1          0      )
                  (     0         -1          0      )
                  (     0         -1          1      )

 cart.    s(33) = ( -0.0000000 -0.0000000 -1.0000000 )
                  ( -0.0000000  1.0000000  0.0000000 )
                  ( -1.0000000  0.0000000  0.0000000 )


      isym = 34     inv. 180 deg rotation - cart. axis [-1,0,1]  

 cryst.   s(34) = (     0          0          1      )
                  (     0          1          0      )
                  (     1          0          0      )

 cart.    s(34) = (  0.0000000 -0.0000000  1.0000000 )
                  (  0.0000000  1.0000000 -0.0000000 )
                  (  1.0000000  0.0000000 -0.0000000 )


      isym = 35     inv.  90 deg rotation - cart. axis [0,1,0]   

 cryst.   s(35) = (     0          0         -1      )
                  (     1          0         -1      )
                  (     0          1         -1      )

 cart.    s(35) = (  0.0000000  0.0000000 -1.0000000 )
                  (  0.0000000 -1.0000000  0.0000000 )
                  (  1.0000000 -0.0000000  0.0000000 )


      isym = 36     inv.  90 deg rotation - cart. axis [0,-1,0]  

 cryst.   s(36) = (    -1          1          0      )
                  (    -1          0          1      )
                  (    -1          0          0      )

 cart.    s(36) = ( -0.0000000  0.0000000  1.0000000 )
                  ( -0.0000000 -1.0000000 -0.0000000 )
                  ( -1.0000000 -0.0000000 -0.0000000 )


      isym = 37     inv. 180 deg rotation - cart. axis [0,1,1]   

 cryst.   s(37) = (    -1          0          0      )
                  (    -1          1          0      )
                  (    -1          0          1      )

 cart.    s(37) = (  1.0000000 -0.0000000  0.0000000 )
                  ( -0.0000000 -0.0000000 -1.0000000 )
                  ( -0.0000000 -1.0000000 -0.0000000 )


      isym = 38     inv. 180 deg rotation - cart. axis [0,1,-1]  

 cryst.   s(38) = (     1          0          0      )
                  (     0          0          1      )
                  (     0          1          0      )

 cart.    s(38) = (  1.0000000  0.0000000 -0.0000000 )
                  ( -0.0000000  0.0000000  1.0000000 )
                  ( -0.0000000  1.0000000  0.0000000 )


      isym = 39     inv.  90 deg rotation - cart. axis [-1,0,0]  

 cryst.   s(39) = (     0          1         -1      )
                  (     0          0         -1      )
                  (     1          0         -1      )

 cart.    s(39) = ( -1.0000000  0.0000000  0.0000000 )
                  (  0.0000000  0.0000000 -1.0000000 )
                  (  0.0000000  1.0000000 -0.0000000 )


      isym = 40     inv.  90 deg rotation - cart. axis [1,0,0]   

 cryst.   s(40) = (     0         -1          1      )
                  (     1         -1          0      )
                  (     0         -1          0      )

 cart.    s(40) = ( -1.0000000 -0.0000000 -0.0000000 )
                  (  0.0000000 -0.0000000  1.0000000 )
                  (  0.0000000 -1.0000000  0.0000000 )


      isym = 41     inv. 120 deg rotation - cart. axis [-1,-1,-1]

 cryst.   s(41) = (     0          0         -1      )
                  (    -1          0          0      )
                  (     0         -1          0      )

 cart.    s(41) = ( -0.0000000 -1.0000000  0.0000000 )
                  ( -0.0000000  0.0000000 -1.0000000 )
                  ( -1.0000000  0.0000000 -0.0000000 )


      isym = 42     inv. 120 deg rotation - cart. axis [-1,1,1]  

 cryst.   s(42) = (    -1          1          0      )
                  (     0          1         -1      )
                  (     0          1          0      )

 cart.    s(42) = (  0.0000000  1.0000000  0.0000000 )
                  (  0.0000000 -0.0000000 -1.0000000 )
                  (  1.0000000 -0.0000000 -0.0000000 )


      isym = 43     inv. 120 deg rotation - cart. axis [1,1,-1]  

 cryst.   s(43) = (     1         -1          0      )
                  (     1          0          0      )
                  (     1          0         -1      )

 cart.    s(43) = (  0.0000000 -1.0000000 -0.0000000 )
                  (  0.0000000  0.0000000  1.0000000 )
                  (  1.0000000  0.0000000  0.0000000 )


      isym = 44     inv. 120 deg rotation - cart. axis [1,-1,1]  

 cryst.   s(44) = (     0          0          1      )
                  (     0         -1          1      )
                  (    -1          0          1      )

 cart.    s(44) = ( -0.0000000  1.0000000 -0.0000000 )
                  ( -0.0000000 -0.0000000  1.0000000 )
                  ( -1.0000000 -0.0000000  0.0000000 )


      isym = 45     inv. 120 deg rotation - cart. axis [1,1,1]   

 cryst.   s(45) = (     0         -1          0      )
                  (     0          0         -1      )
                  (    -1          0          0      )

 cart.    s(45) = (  0.0000000 -0.0000000 -1.0000000 )
                  ( -1.0000000 -0.0000000  0.0000000 )
                  ( -0.0000000 -1.0000000  0.0000000 )


      isym = 46     inv. 120 deg rotation - cart. axis [-1,1,-1] 

 cryst.   s(46) = (     1          0         -1      )
                  (     1         -1          0      )
                  (     1          0          0      )

 cart.    s(46) = ( -0.0000000  0.0000000 -1.0000000 )
                  (  1.0000000  0.0000000  0.0000000 )
                  (  0.0000000  1.0000000  0.0000000 )


      isym = 47     inv. 120 deg rotation - cart. axis [1,-1,-1] 

 cryst.   s(47) = (    -1          0          1      )
                  (     0          0          1      )
                  (     0         -1          1      )

 cart.    s(47) = ( -0.0000000 -0.0000000  1.0000000 )
                  (  1.0000000 -0.0000000 -0.0000000 )
                  (  0.0000000 -1.0000000 -0.0000000 )


      isym = 48     inv. 120 deg rotation - cart. axis [-1,-1,1] 

 cryst.   s(48) = (     0          1          0      )
                  (    -1          1          0      )
                  (     0          1         -1      )

 cart.    s(48) = (  0.0000000  0.0000000  1.0000000 )
                  ( -1.0000000  0.0000000 -0.0000000 )
                  ( -0.0000000  1.0000000 -0.0000000 )


   Cartesian axes

     site n.     atom                  positions (alat units)
         1           Sc  tau(   1) = (   0.0000000   0.0000000   0.0000000  )
         2           N   tau(   2) = (   0.3535534   0.3535534   1.0606602  )
         3           N   tau(   3) = (   0.3535534   1.0606602   1.0606602  )
         4           N   tau(   4) = (   0.7071068   0.0000000   0.0000000  )
         5           F   tau(   5) = (   1.1172287  -0.0000000  -0.0000000  )
         6           F   tau(   6) = (   0.7071068   0.4101219  -0.0000000  )
         7           F   tau(   7) = (   0.0000000   0.0000000   1.1172287  )
         8           F   tau(   8) = (   0.7071068   0.0000000   1.0040916  )
         9           F   tau(   9) = (   0.7071068   1.0040916   0.0000000  )
        10           F   tau(  10) = (   0.2969848  -0.0000000  -0.0000000  )

   Crystallographic axes

     site n.     atom                  positions (cryst. coord.)
         1           Sc  tau(   1) = (  0.0000000  0.0000000  0.0000000  )
         2           N   tau(   2) = (  0.7500000  0.7500000 -0.2500000  )
         3           N   tau(   3) = (  1.2500000  0.2500000  0.2500000  )
         4           N   tau(   4) = ( -0.5000000  0.5000000  0.5000000  )
         5           F   tau(   5) = ( -0.7900000  0.7900000  0.7900000  )
         6           F   tau(   6) = ( -0.2100000  0.2100000  0.7900000  )
         7           F   tau(   7) = (  0.7900000  0.7900000 -0.7900000  )
         8           F   tau(   8) = (  0.2100000  1.2100000 -0.2100000  )
         9           F   tau(   9) = (  0.2100000 -0.2100000  1.2100000  )
        10           F   tau(  10) = ( -0.2100000  0.2100000  0.2100000  )

     number of k points=    29  Marzari-Vanderbilt smearing, width (Ry)=  0.0100
                       cart. coord. in units 2pi/alat
        k(    1) = (   0.0000000   0.0000000   0.0000000), wk =   0.0019531
        k(    2) = (   0.0883883   0.0883883  -0.0883883), wk =   0.0156250
        k(    3) = (   0.1767767   0.1767767  -0.1767767), wk =   0.0156250
        k(    4) = (   0.2651650   0.2651650  -0.2651650), wk =   0.0156250
        k(    5) = (  -0.3535534  -0.3535534   0.3535534), wk =   0.0078125
        k(    6) = (   0.1767767   0.0000000   0.0000000), wk =   0.0117188
        k(    7) = (   0.2651650   0.0883883  -0.0883883), wk =   0.0468750
        k(    8) = (   0.3535534   0.1767767  -0.1767767), wk =   0.0468750
        k(    9) = (  -0.2651650  -0.4419417   0.4419417), wk =   0.0468750
        k(   10) = (  -0.1767767  -0.3535534   0.3535534), wk =   0.0468750
        k(   11) = (  -0.0883883  -0.2651650   0.2651650), wk =   0.0468750
        k(   12) = (   0.0000000  -0.1767767   0.1767767), wk =   0.0234375
        k(   13) = (   0.3535534   0.0000000   0.0000000), wk =   0.0117188
        k(   14) = (   0.4419417   0.0883883  -0.0883883), wk =   0.0468750
        k(   15) = (  -0.1767767  -0.5303301   0.5303301), wk =   0.0468750
        k(   16) = (  -0.0883883  -0.4419417   0.4419417), wk =   0.0468750
        k(   17) = (   0.0000000  -0.3535534   0.3535534), wk =   0.0234375
        k(   18) = (   0.5303301  -0.0000000   0.0000000), wk =   0.0117188
        k(   19) = (  -0.0883883  -0.6187184   0.6187184), wk =   0.0468750
        k(   20) = (   0.0000000  -0.5303301   0.5303301), wk =   0.0234375
        k(   21) = (  -0.7071068   0.0000000   0.0000000), wk =   0.0058594
        k(   22) = (   0.3535534   0.1767767   0.0000000), wk =   0.0468750
        k(   23) = (  -0.2651650  -0.4419417   0.6187184), wk =   0.0937500
        k(   24) = (  -0.1767767  -0.3535534   0.5303301), wk =   0.0468750
        k(   25) = (  -0.1767767  -0.5303301   0.7071068), wk =   0.0468750
        k(   26) = (  -0.0883883  -0.4419417   0.6187184), wk =   0.0937500
        k(   27) = (   0.0000000  -0.3535534   0.5303301), wk =   0.0468750
        k(   28) = (  -0.7071068   0.1767767  -0.0000000), wk =   0.0234375
        k(   29) = (  -0.7071068   0.3535534   0.0000000), wk =   0.0117188

                       cryst. coord.
        k(    1) = (   0.0000000   0.0000000   0.0000000), wk =   0.0019531
        k(    2) = (   0.0000000   0.0000000   0.1250000), wk =   0.0156250
        k(    3) = (   0.0000000   0.0000000   0.2500000), wk =   0.0156250
        k(    4) = (  -0.0000000  -0.0000000   0.3750000), wk =   0.0156250
        k(    5) = (  -0.0000000  -0.0000000  -0.5000000), wk =   0.0078125
        k(    6) = (   0.0000000   0.1250000   0.1250000), wk =   0.0117188
        k(    7) = (   0.0000000   0.1250000   0.2500000), wk =   0.0468750
        k(    8) = (   0.0000000   0.1250000   0.3750000), wk =   0.0468750
        k(    9) = (  -0.0000000   0.1250000  -0.5000000), wk =   0.0468750
        k(   10) = (  -0.0000000   0.1250000  -0.3750000), wk =   0.0468750
        k(   11) = (   0.0000000   0.1250000  -0.2500000), wk =   0.0468750
        k(   12) = (  -0.0000000   0.1250000  -0.1250000), wk =   0.0234375
        k(   13) = (   0.0000000   0.2500000   0.2500000), wk =   0.0117188
        k(   14) = (   0.0000000   0.2500000   0.3750000), wk =   0.0468750
        k(   15) = (   0.0000000   0.2500000  -0.5000000), wk =   0.0468750
        k(   16) = (  -0.0000000   0.2500000  -0.3750000), wk =   0.0468750
        k(   17) = (  -0.0000000   0.2500000  -0.2500000), wk =   0.0234375
        k(   18) = (   0.0000000   0.3750000   0.3750000), wk =   0.0117188
        k(   19) = (  -0.0000000   0.3750000  -0.5000000), wk =   0.0468750
        k(   20) = (   0.0000000   0.3750000  -0.3750000), wk =   0.0234375
        k(   21) = (   0.0000000  -0.5000000  -0.5000000), wk =   0.0058594
        k(   22) = (   0.1250000   0.2500000   0.3750000), wk =   0.0468750
        k(   23) = (   0.1250000   0.2500000  -0.5000000), wk =   0.0937500
        k(   24) = (   0.1250000   0.2500000  -0.3750000), wk =   0.0468750
        k(   25) = (   0.1250000   0.3750000  -0.5000000), wk =   0.0468750
        k(   26) = (   0.1250000   0.3750000  -0.3750000), wk =   0.0937500
        k(   27) = (   0.1250000   0.3750000  -0.2500000), wk =   0.0468750
        k(   28) = (   0.1250000  -0.5000000  -0.3750000), wk =   0.0234375
        k(   29) = (   0.2500000  -0.5000000  -0.2500000), wk =   0.0117188

     Dense  grid:   237953 G-vectors     FFT dimensions: (  90,  90,  90)

     Smooth grid:    84283 G-vectors     FFT dimensions: (  64,  64,  64)

     Dynamical RAM for                 wfc:       6.58 MB

     Dynamical RAM for     wfc (w. buffer):     388.05 MB

     Dynamical RAM for           str. fact:      10.89 MB

     Dynamical RAM for           local pot:       0.00 MB

     Dynamical RAM for          nlocal pot:      14.44 MB

     Dynamical RAM for                qrad:       5.27 MB

     Dynamical RAM for          rho,v,vnew:      55.16 MB

     Dynamical RAM for               rhoin:      18.39 MB

     Dynamical RAM for            rho*nmix:     116.19 MB

     Dynamical RAM for           G-vectors:      14.26 MB

     Dynamical RAM for          h,s,v(r/c):       0.31 MB

     Dynamical RAM for          <psi|beta>:       0.06 MB

     Dynamical RAM for                 psi:      13.15 MB

     Dynamical RAM for                hpsi:      13.15 MB

     Dynamical RAM for                spsi:      13.15 MB

     Dynamical RAM for      wfcinit/wfcrot:      13.19 MB

     Dynamical RAM for           addusdens:     210.59 MB

     Dynamical RAM for          addusforce:     246.91 MB

     Dynamical RAM for         addusstress:     245.08 MB

     Estimated static dynamical RAM per process >     554.34 MB

     Estimated max dynamical RAM per process >     917.44 MB

     Atomic positions and unit cell read from directory:
     ./out/aiida.save/
 
     Generating pointlists ...
     new r_m :   0.1225 (alat units)  1.5158 (a.u.) for type    1
     new r_m :   0.1692 (alat units)  2.0933 (a.u.) for type    2
     new r_m :   0.1225 (alat units)  1.5158 (a.u.) for type    3

     The initial density is read from file :
     ./out/aiida.save/charge-density

     Starting wfcs from file

     total cpu time spent up to now is        2.4 secs

     per-process dynamical memory:   531.0 Mb

     Self-consistent Calculation
[tb_dev] Currently allocated     7.63E-05 Mbytes, locked:    0 /   2
[tb_pin] Currently allocated     0.00E+00 Mbytes, locked:    0 /   0

     iteration #  1     ecut=    60.00 Ry     beta= 0.10
     Davidson diagonalization with overlap

---- Real-time Memory Report at c_bands before calling an iterative solver
           655 MiB given to the printing process from OS
           534 MiB allocation reported by mallinfo(arena+hblkhd)
         59707 MiB available memory on the node where the printing process lives
     GPU memory used/free/total (MiB): 858 / 15422 / 16280
------------------
     ethr =  1.00E-05,  avg # of iterations =  2.5

     total cpu time spent up to now is        6.8 secs

     total energy              =    -442.11573932 Ry
     estimated scf accuracy    <       0.00242322 Ry

     total magnetization       =     7.14 Bohr mag/cell
     absolute magnetization    =     8.47 Bohr mag/cell
[tb_dev] Currently allocated     1.02E+01 Mbytes, locked:    0 /  12
[tb_pin] Currently allocated     0.00E+00 Mbytes, locked:    0 /   0

     iteration #  2     ecut=    60.00 Ry     beta= 0.10
     Davidson diagonalization with overlap

---- Real-time Memory Report at c_bands before calling an iterative solver
          1463 MiB given to the printing process from OS
          1246 MiB allocation reported by mallinfo(arena+hblkhd)
         58140 MiB available memory on the node where the printing process lives
     GPU memory used/free/total (MiB): 1536 / 14744 / 16280
------------------
     ethr =  3.56E-06,  avg # of iterations =  1.2

     total cpu time spent up to now is        9.2 secs

     total energy              =    -442.11590576 Ry
     estimated scf accuracy    <       0.00495551 Ry

     total magnetization       =     6.81 Bohr mag/cell
     absolute magnetization    =     8.62 Bohr mag/cell
[tb_dev] Currently allocated     1.02E+01 Mbytes, locked:    0 /  12
[tb_pin] Currently allocated     0.00E+00 Mbytes, locked:    0 /   0

     iteration #  3     ecut=    60.00 Ry     beta= 0.10
     Davidson diagonalization with overlap

---- Real-time Memory Report at c_bands before calling an iterative solver
          1471 MiB given to the printing process from OS
          1254 MiB allocation reported by mallinfo(arena+hblkhd)
         58135 MiB available memory on the node where the printing process lives
     GPU memory used/free/total (MiB): 1536 / 14744 / 16280
------------------
     ethr =  3.56E-06,  avg # of iterations =  1.0

     total cpu time spent up to now is       11.5 secs

     total energy              =    -442.11531438 Ry
     estimated scf accuracy    <       0.00505615 Ry

     total magnetization       =     6.81 Bohr mag/cell
     absolute magnetization    =     8.61 Bohr mag/cell
[tb_dev] Currently allocated     1.02E+01 Mbytes, locked:    0 /  12
[tb_pin] Currently allocated     0.00E+00 Mbytes, locked:    0 /   0

     iteration #  4     ecut=    60.00 Ry     beta= 0.10
     Davidson diagonalization with overlap

---- Real-time Memory Report at c_bands before calling an iterative solver
          1476 MiB given to the printing process from OS
          1259 MiB allocation reported by mallinfo(arena+hblkhd)
         58133 MiB available memory on the node where the printing process lives
     GPU memory used/free/total (MiB): 1536 / 14744 / 16280
------------------
     ethr =  3.56E-06,  avg # of iterations =  1.0

     total cpu time spent up to now is       13.9 secs

     total energy              =    -442.11437530 Ry
     estimated scf accuracy    <       0.00262861 Ry

     total magnetization       =     7.07 Bohr mag/cell
     absolute magnetization    =     8.46 Bohr mag/cell
[tb_dev] Currently allocated     1.02E+01 Mbytes, locked:    0 /  12
[tb_pin] Currently allocated     0.00E+00 Mbytes, locked:    0 /   0

     iteration #  5     ecut=    60.00 Ry     beta= 0.10
     Davidson diagonalization with overlap

---- Real-time Memory Report at c_bands before calling an iterative solver
          1481 MiB given to the printing process from OS
          1265 MiB allocation reported by mallinfo(arena+hblkhd)
         58130 MiB available memory on the node where the printing process lives
     GPU memory used/free/total (MiB): 1536 / 14744 / 16280
------------------
     ethr =  3.56E-06,  avg # of iterations =  1.0

     total cpu time spent up to now is       16.2 secs

     total energy              =    -442.11387280 Ry
     estimated scf accuracy    <       0.00119937 Ry

     total magnetization       =     7.47 Bohr mag/cell
     absolute magnetization    =     8.39 Bohr mag/cell
[tb_dev] Currently allocated     1.02E+01 Mbytes, locked:    0 /  12
[tb_pin] Currently allocated     0.00E+00 Mbytes, locked:    0 /   0

     iteration #  6     ecut=    60.00 Ry     beta= 0.10
     Davidson diagonalization with overlap

---- Real-time Memory Report at c_bands before calling an iterative solver
          1484 MiB given to the printing process from OS
          1267 MiB allocation reported by mallinfo(arena+hblkhd)
         58129 MiB available memory on the node where the printing process lives
     GPU memory used/free/total (MiB): 1536 / 14744 / 16280
------------------
     ethr =  1.76E-06,  avg # of iterations =  1.5

     total cpu time spent up to now is       18.7 secs

     total energy              =    -442.11455010 Ry
     estimated scf accuracy    <       0.00140785 Ry

     total magnetization       =     7.94 Bohr mag/cell
     absolute magnetization    =     8.60 Bohr mag/cell
[tb_dev] Currently allocated     1.02E+01 Mbytes, locked:    0 /  12
[tb_pin] Currently allocated     0.00E+00 Mbytes, locked:    0 /   0

     iteration #  7     ecut=    60.00 Ry     beta= 0.10
     Davidson diagonalization with overlap

---- Real-time Memory Report at c_bands before calling an iterative solver
          1489 MiB given to the printing process from OS
          1272 MiB allocation reported by mallinfo(arena+hblkhd)
         58126 MiB available memory on the node where the printing process lives
     GPU memory used/free/total (MiB): 1536 / 14744 / 16280
------------------
     ethr =  1.76E-06,  avg # of iterations =  1.0

     total cpu time spent up to now is       21.1 secs

     total energy              =    -442.11426260 Ry
     estimated scf accuracy    <       0.00537942 Ry

     total magnetization       =     7.76 Bohr mag/cell
     absolute magnetization    =     8.57 Bohr mag/cell
[tb_dev] Currently allocated     1.02E+01 Mbytes, locked:    0 /  12
[tb_pin] Currently allocated     0.00E+00 Mbytes, locked:    0 /   0

     iteration #  8     ecut=    60.00 Ry     beta= 0.10
     Davidson diagonalization with overlap

---- Real-time Memory Report at c_bands before calling an iterative solver
          1497 MiB given to the printing process from OS
          1280 MiB allocation reported by mallinfo(arena+hblkhd)
         58118 MiB available memory on the node where the printing process lives
     GPU memory used/free/total (MiB): 1536 / 14744 / 16280
------------------
     ethr =  1.76E-06,  avg # of iterations =  1.0

     total cpu time spent up to now is       23.4 secs

     total energy              =    -442.11409376 Ry
     estimated scf accuracy    <       0.00361562 Ry

     total magnetization       =     7.95 Bohr mag/cell
     absolute magnetization    =     8.63 Bohr mag/cell
[tb_dev] Currently allocated     1.02E+01 Mbytes, locked:    0 /  12
[tb_pin] Currently allocated     0.00E+00 Mbytes, locked:    0 /   0

     iteration #  9     ecut=    60.00 Ry     beta= 0.10
     Davidson diagonalization with overlap

---- Real-time Memory Report at c_bands before calling an iterative solver
          1502 MiB given to the printing process from OS
          1285 MiB allocation reported by mallinfo(arena+hblkhd)
         58114 MiB available memory on the node where the printing process lives
     GPU memory used/free/total (MiB): 1536 / 14744 / 16280
------------------
     ethr =  1.76E-06,  avg # of iterations =  1.0

     total cpu time spent up to now is       25.8 secs

     total energy              =    -442.11413141 Ry
     estimated scf accuracy    <       0.00116061 Ry

     total magnetization       =     7.95 Bohr mag/cell
     absolute magnetization    =     8.61 Bohr mag/cell
[tb_dev] Currently allocated     1.02E+01 Mbytes, locked:    0 /  12
[tb_pin] Currently allocated     0.00E+00 Mbytes, locked:    0 /   0

     iteration # 10     ecut=    60.00 Ry     beta= 0.10
     Davidson diagonalization with overlap

---- Real-time Memory Report at c_bands before calling an iterative solver
          1510 MiB given to the printing process from OS
          1293 MiB allocation reported by mallinfo(arena+hblkhd)
         58106 MiB available memory on the node where the printing process lives
     GPU memory used/free/total (MiB): 1536 / 14744 / 16280
------------------
     ethr =  1.71E-06,  avg # of iterations =  1.0

     total cpu time spent up to now is       28.2 secs

     total energy              =    -442.11419370 Ry
     estimated scf accuracy    <       0.00196447 Ry

     total magnetization       =     8.03 Bohr mag/cell
     absolute magnetization    =     8.66 Bohr mag/cell
[tb_dev] Currently allocated     1.02E+01 Mbytes, locked:    0 /  12
[tb_pin] Currently allocated     0.00E+00 Mbytes, locked:    0 /   0

     iteration # 11     ecut=    60.00 Ry     beta= 0.10
     Davidson diagonalization with overlap

---- Real-time Memory Report at c_bands before calling an iterative solver
          1510 MiB given to the printing process from OS
          1293 MiB allocation reported by mallinfo(arena+hblkhd)
         58106 MiB available memory on the node where the printing process lives
     GPU memory used/free/total (MiB): 1536 / 14744 / 16280
------------------
     ethr =  1.71E-06,  avg # of iterations =  1.0

     total cpu time spent up to now is       30.5 secs

     total energy              =    -442.11316866 Ry
     estimated scf accuracy    <       0.00190098 Ry

     total magnetization       =     7.98 Bohr mag/cell
     absolute magnetization    =     8.63 Bohr mag/cell
[tb_dev] Currently allocated     1.02E+01 Mbytes, locked:    0 /  12
[tb_pin] Currently allocated     0.00E+00 Mbytes, locked:    0 /   0

     iteration # 12     ecut=    60.00 Ry     beta= 0.10
     Davidson diagonalization with overlap

---- Real-time Memory Report at c_bands before calling an iterative solver
          1510 MiB given to the printing process from OS
          1293 MiB allocation reported by mallinfo(arena+hblkhd)
         58105 MiB available memory on the node where the printing process lives
     GPU memory used/free/total (MiB): 1536 / 14744 / 16280
------------------
     ethr =  1.71E-06,  avg # of iterations =  2.0

     total cpu time spent up to now is       33.3 secs

     total energy              =    -442.11346052 Ry
     estimated scf accuracy    <       0.00086787 Ry

     total magnetization       =     8.26 Bohr mag/cell
     absolute magnetization    =     8.75 Bohr mag/cell
[tb_dev] Currently allocated     1.02E+01 Mbytes, locked:    0 /  12
[tb_pin] Currently allocated     0.00E+00 Mbytes, locked:    0 /   0

     iteration # 13     ecut=    60.00 Ry     beta= 0.10
     Davidson diagonalization with overlap

---- Real-time Memory Report at c_bands before calling an iterative solver
          1510 MiB given to the printing process from OS
          1293 MiB allocation reported by mallinfo(arena+hblkhd)
         58106 MiB available memory on the node where the printing process lives
     GPU memory used/free/total (MiB): 1796 / 14484 / 16280
------------------
     ethr =  1.28E-06,  avg # of iterations =  1.5

     total cpu time spent up to now is       35.8 secs

     total energy              =    -442.11366528 Ry
     estimated scf accuracy    <       0.00038129 Ry

     total magnetization       =     8.18 Bohr mag/cell
     absolute magnetization    =     8.66 Bohr mag/cell
[tb_dev] Currently allocated     1.02E+01 Mbytes, locked:    0 /  12
[tb_pin] Currently allocated     0.00E+00 Mbytes, locked:    0 /   0

     iteration # 14     ecut=    60.00 Ry     beta= 0.10
     Davidson diagonalization with overlap

---- Real-time Memory Report at c_bands before calling an iterative solver
          1510 MiB given to the printing process from OS
          1293 MiB allocation reported by mallinfo(arena+hblkhd)
         58106 MiB available memory on the node where the printing process lives
     GPU memory used/free/total (MiB): 1796 / 14484 / 16280
------------------
     ethr =  5.61E-07,  avg # of iterations =  1.3

     total cpu time spent up to now is       38.3 secs

     total energy              =    -442.11361709 Ry
     estimated scf accuracy    <       0.00159959 Ry

     total magnetization       =     8.00 Bohr mag/cell
     absolute magnetization    =     8.54 Bohr mag/cell
[tb_dev] Currently allocated     1.02E+01 Mbytes, locked:    0 /  12
[tb_pin] Currently allocated     0.00E+00 Mbytes, locked:    0 /   0

     iteration # 15     ecut=    60.00 Ry     beta= 0.10
     Davidson diagonalization with overlap

---- Real-time Memory Report at c_bands before calling an iterative solver
          1510 MiB given to the printing process from OS
          1293 MiB allocation reported by mallinfo(arena+hblkhd)
         58107 MiB available memory on the node where the printing process lives
     GPU memory used/free/total (MiB): 1796 / 14484 / 16280
------------------
     ethr =  5.61E-07,  avg # of iterations =  1.0

     total cpu time spent up to now is       40.6 secs

     total energy              =    -442.11341369 Ry
     estimated scf accuracy    <       0.00040908 Ry

     total magnetization       =     8.13 Bohr mag/cell
     absolute magnetization    =     8.63 Bohr mag/cell
[tb_dev] Currently allocated     1.02E+01 Mbytes, locked:    0 /  12
[tb_pin] Currently allocated     0.00E+00 Mbytes, locked:    0 /   0

     iteration # 16     ecut=    60.00 Ry     beta= 0.10
     Davidson diagonalization with overlap

---- Real-time Memory Report at c_bands before calling an iterative solver
          1510 MiB given to the printing process from OS
          1293 MiB allocation reported by mallinfo(arena+hblkhd)
         58107 MiB available memory on the node where the printing process lives
     GPU memory used/free/total (MiB): 1796 / 14484 / 16280
------------------
     ethr =  5.61E-07,  avg # of iterations =  1.5

     total cpu time spent up to now is       43.1 secs

     total energy              =    -442.11317437 Ry
     estimated scf accuracy    <       0.00024689 Ry

     total magnetization       =     8.26 Bohr mag/cell
     absolute magnetization    =     8.71 Bohr mag/cell
[tb_dev] Currently allocated     1.02E+01 Mbytes, locked:    0 /  12
[tb_pin] Currently allocated     0.00E+00 Mbytes, locked:    0 /   0

     iteration # 17     ecut=    60.00 Ry     beta= 0.10
     Davidson diagonalization with overlap

---- Real-time Memory Report at c_bands before calling an iterative solver
          1510 MiB given to the printing process from OS
          1293 MiB allocation reported by mallinfo(arena+hblkhd)
         58107 MiB available memory on the node where the printing process lives
     GPU memory used/free/total (MiB): 1796 / 14484 / 16280
------------------
     ethr =  3.63E-07,  avg # of iterations =  3.2

     total cpu time spent up to now is       46.5 secs

     total energy              =    -442.11128090 Ry
     estimated scf accuracy    <       0.00043106 Ry

     total magnetization       =     7.75 Bohr mag/cell
     absolute magnetization    =     8.48 Bohr mag/cell
[tb_dev] Currently allocated     1.02E+01 Mbytes, locked:    0 /  12
[tb_pin] Currently allocated     0.00E+00 Mbytes, locked:    0 /   0

     iteration # 18     ecut=    60.00 Ry     beta= 0.10
     Davidson diagonalization with overlap

---- Real-time Memory Report at c_bands before calling an iterative solver
          1510 MiB given to the printing process from OS
          1293 MiB allocation reported by mallinfo(arena+hblkhd)
         58107 MiB available memory on the node where the printing process lives
     GPU memory used/free/total (MiB): 1828 / 14452 / 16280
------------------
     ethr =  3.63E-07,  avg # of iterations =  4.5

     total cpu time spent up to now is       50.4 secs

     total energy              =    -442.11321427 Ry
     estimated scf accuracy    <       0.00123676 Ry

     total magnetization       =     8.30 Bohr mag/cell
     absolute magnetization    =     8.71 Bohr mag/cell
[tb_dev] Currently allocated     1.02E+01 Mbytes, locked:    0 /  12
[tb_pin] Currently allocated     0.00E+00 Mbytes, locked:    0 /   0

     iteration # 19     ecut=    60.00 Ry     beta= 0.10
     Davidson diagonalization with overlap

---- Real-time Memory Report at c_bands before calling an iterative solver
          1510 MiB given to the printing process from OS
          1293 MiB allocation reported by mallinfo(arena+hblkhd)
         58107 MiB available memory on the node where the printing process lives
     GPU memory used/free/total (MiB): 1868 / 14412 / 16280
------------------
     ethr =  3.63E-07,  avg # of iterations =  1.0

     total cpu time spent up to now is       52.9 secs

     total energy              =    -442.11276825 Ry
     estimated scf accuracy    <       0.00065438 Ry

     total magnetization       =     8.39 Bohr mag/cell
     absolute magnetization    =     8.78 Bohr mag/cell
[tb_dev] Currently allocated     1.02E+01 Mbytes, locked:    0 /  12
[tb_pin] Currently allocated     0.00E+00 Mbytes, locked:    0 /   0

     iteration # 20     ecut=    60.00 Ry     beta= 0.10
     Davidson diagonalization with overlap

---- Real-time Memory Report at c_bands before calling an iterative solver
          1510 MiB given to the printing process from OS
          1293 MiB allocation reported by mallinfo(arena+hblkhd)
         58107 MiB available memory on the node where the printing process lives
     GPU memory used/free/total (MiB): 1868 / 14412 / 16280
------------------
     ethr =  3.63E-07,  avg # of iterations =  2.2

     total cpu time spent up to now is       56.0 secs

     total energy              =    -442.11133319 Ry
     estimated scf accuracy    <       0.00053358 Ry

     total magnetization       =     8.58 Bohr mag/cell
     absolute magnetization    =     8.91 Bohr mag/cell
[tb_dev] Currently allocated     1.02E+01 Mbytes, locked:    0 /  12
[tb_pin] Currently allocated     0.00E+00 Mbytes, locked:    0 /   0

     iteration # 21     ecut=    60.00 Ry     beta= 0.10
     Davidson diagonalization with overlap

---- Real-time Memory Report at c_bands before calling an iterative solver
          1510 MiB given to the printing process from OS
          1293 MiB allocation reported by mallinfo(arena+hblkhd)
         58107 MiB available memory on the node where the printing process lives
     GPU memory used/free/total (MiB): 1868 / 14412 / 16280
------------------
     ethr =  3.63E-07,  avg # of iterations =  5.1

     total cpu time spent up to now is       60.1 secs

     total energy              =    -442.11223399 Ry
     estimated scf accuracy    <       0.00380022 Ry

     total magnetization       =     8.84 Bohr mag/cell
     absolute magnetization    =     9.07 Bohr mag/cell
[tb_dev] Currently allocated     1.02E+01 Mbytes, locked:    0 /  12
[tb_pin] Currently allocated     0.00E+00 Mbytes, locked:    0 /   0

     iteration # 22     ecut=    60.00 Ry     beta= 0.10
     Davidson diagonalization with overlap

---- Real-time Memory Report at c_bands before calling an iterative solver
          1510 MiB given to the printing process from OS
          1293 MiB allocation reported by mallinfo(arena+hblkhd)
         58107 MiB available memory on the node where the printing process lives
     GPU memory used/free/total (MiB): 1868 / 14412 / 16280
------------------
     ethr =  3.63E-07,  avg # of iterations =  1.0

     total cpu time spent up to now is       62.5 secs

     total energy              =    -442.11193389 Ry
     estimated scf accuracy    <       0.00363341 Ry

     total magnetization       =     8.82 Bohr mag/cell
     absolute magnetization    =     9.06 Bohr mag/cell
[tb_dev] Currently allocated     1.02E+01 Mbytes, locked:    0 /  12
[tb_pin] Currently allocated     0.00E+00 Mbytes, locked:    0 /   0

     iteration # 23     ecut=    60.00 Ry     beta= 0.10
     Davidson diagonalization with overlap

---- Real-time Memory Report at c_bands before calling an iterative solver
          1510 MiB given to the printing process from OS
          1293 MiB allocation reported by mallinfo(arena+hblkhd)
         58106 MiB available memory on the node where the printing process lives
     GPU memory used/free/total (MiB): 1868 / 14412 / 16280
------------------
     ethr =  3.63E-07,  avg # of iterations =  4.5

     total cpu time spent up to now is       66.5 secs

     total energy              =    -442.11309610 Ry
     estimated scf accuracy    <       0.00070813 Ry

     total magnetization       =     8.43 Bohr mag/cell
     absolute magnetization    =     8.80 Bohr mag/cell
[tb_dev] Currently allocated     1.02E+01 Mbytes, locked:    0 /  12
[tb_pin] Currently allocated     0.00E+00 Mbytes, locked:    0 /   0

     iteration # 24     ecut=    60.00 Ry     beta= 0.10
     Davidson diagonalization with overlap

---- Real-time Memory Report at c_bands before calling an iterative solver
          1510 MiB given to the printing process from OS
          1293 MiB allocation reported by mallinfo(arena+hblkhd)
         58108 MiB available memory on the node where the printing process lives
     GPU memory used/free/total (MiB): 1868 / 14412 / 16280
------------------
     ethr =  3.63E-07,  avg # of iterations =  1.0

     total cpu time spent up to now is       68.8 secs

     total energy              =    -442.11220292 Ry
     estimated scf accuracy    <       0.00019870 Ry

     total magnetization       =     8.51 Bohr mag/cell
     absolute magnetization    =     8.87 Bohr mag/cell
[tb_dev] Currently allocated     1.02E+01 Mbytes, locked:    0 /  12
[tb_pin] Currently allocated     0.00E+00 Mbytes, locked:    0 /   0

     iteration # 25     ecut=    60.00 Ry     beta= 0.10
     Davidson diagonalization with overlap

---- Real-time Memory Report at c_bands before calling an iterative solver
          1510 MiB given to the printing process from OS
          1293 MiB allocation reported by mallinfo(arena+hblkhd)
         58108 MiB available memory on the node where the printing process lives
     GPU memory used/free/total (MiB): 1868 / 14412 / 16280
------------------
     ethr =  2.92E-07,  avg # of iterations =  3.0

     total cpu time spent up to now is       72.3 secs

     total energy              =    -442.11253718 Ry
     estimated scf accuracy    <       0.00114902 Ry

     total magnetization       =     8.72 Bohr mag/cell
     absolute magnetization    =     9.00 Bohr mag/cell
[tb_dev] Currently allocated     1.02E+01 Mbytes, locked:    0 /  12
[tb_pin] Currently allocated     0.00E+00 Mbytes, locked:    0 /   0

     iteration # 26     ecut=    60.00 Ry     beta= 0.10
     Davidson diagonalization with overlap

---- Real-time Memory Report at c_bands before calling an iterative solver
          1510 MiB given to the printing process from OS
          1293 MiB allocation reported by mallinfo(arena+hblkhd)
         58109 MiB available memory on the node where the printing process lives
     GPU memory used/free/total (MiB): 1868 / 14412 / 16280
------------------
     ethr =  2.92E-07,  avg # of iterations =  3.5

     total cpu time spent up to now is       75.8 secs

     total energy              =    -442.10887843 Ry
     estimated scf accuracy    <       0.00065987 Ry

     total magnetization       =     8.35 Bohr mag/cell
     absolute magnetization    =     8.75 Bohr mag/cell
[tb_dev] Currently allocated     1.02E+01 Mbytes, locked:    0 /  12
[tb_pin] Currently allocated     0.00E+00 Mbytes, locked:    0 /   0

     iteration # 27     ecut=    60.00 Ry     beta= 0.10
     Davidson diagonalization with overlap

---- Real-time Memory Report at c_bands before calling an iterative solver
          1510 MiB given to the printing process from OS
          1293 MiB allocation reported by mallinfo(arena+hblkhd)
         58109 MiB available memory on the node where the printing process lives
     GPU memory used/free/total (MiB): 1868 / 14412 / 16280
------------------
     ethr =  2.92E-07,  avg # of iterations =  5.9

     total cpu time spent up to now is       80.6 secs

     total energy              =    -442.08599819 Ry
     estimated scf accuracy    <       0.01242395 Ry

     total magnetization       =     6.50 Bohr mag/cell
     absolute magnetization    =     9.26 Bohr mag/cell
[tb_dev] Currently allocated     1.02E+01 Mbytes, locked:    0 /  12
[tb_pin] Currently allocated     0.00E+00 Mbytes, locked:    0 /   0

     iteration # 28     ecut=    60.00 Ry     beta= 0.10
     Davidson diagonalization with overlap

---- Real-time Memory Report at c_bands before calling an iterative solver
          1510 MiB given to the printing process from OS
          1293 MiB allocation reported by mallinfo(arena+hblkhd)
         58109 MiB available memory on the node where the printing process lives
     GPU memory used/free/total (MiB): 1868 / 14412 / 16280
------------------
     ethr =  2.92E-07,  avg # of iterations =  6.1

     total cpu time spent up to now is       85.7 secs

     total energy              =    -442.11154898 Ry
     estimated scf accuracy    <       0.00021207 Ry

     total magnetization       =     8.77 Bohr mag/cell
     absolute magnetization    =     9.05 Bohr mag/cell
[tb_dev] Currently allocated     1.02E+01 Mbytes, locked:    0 /  12
[tb_pin] Currently allocated     0.00E+00 Mbytes, locked:    0 /   0

     iteration # 29     ecut=    60.00 Ry     beta= 0.10
     Davidson diagonalization with overlap

---- Real-time Memory Report at c_bands before calling an iterative solver
          1510 MiB given to the printing process from OS
          1293 MiB allocation reported by mallinfo(arena+hblkhd)
         58109 MiB available memory on the node where the printing process lives
     GPU memory used/free/total (MiB): 1868 / 14412 / 16280
------------------
     ethr =  2.92E-07,  avg # of iterations =  3.2

     total cpu time spent up to now is       89.1 secs

     total energy              =    -442.11154816 Ry
     estimated scf accuracy    <       0.00038524 Ry

     total magnetization       =     9.03 Bohr mag/cell
     absolute magnetization    =     9.26 Bohr mag/cell
[tb_dev] Currently allocated     1.02E+01 Mbytes, locked:    0 /  12
[tb_pin] Currently allocated     0.00E+00 Mbytes, locked:    0 /   0

     iteration # 30     ecut=    60.00 Ry     beta= 0.10
     Davidson diagonalization with overlap

---- Real-time Memory Report at c_bands before calling an iterative solver
          1510 MiB given to the printing process from OS
          1293 MiB allocation reported by mallinfo(arena+hblkhd)
         58109 MiB available memory on the node where the printing process lives
     GPU memory used/free/total (MiB): 1868 / 14412 / 16280
------------------
     ethr =  2.92E-07,  avg # of iterations =  2.2

     total cpu time spent up to now is       92.0 secs

     total energy              =    -442.11205046 Ry
     estimated scf accuracy    <       0.00051419 Ry

     total magnetization       =     9.13 Bohr mag/cell
     absolute magnetization    =     9.35 Bohr mag/cell
[tb_dev] Currently allocated     1.02E+01 Mbytes, locked:    0 /  12
[tb_pin] Currently allocated     0.00E+00 Mbytes, locked:    0 /   0

     iteration # 31     ecut=    60.00 Ry     beta= 0.10
     Davidson diagonalization with overlap

---- Real-time Memory Report at c_bands before calling an iterative solver
          1510 MiB given to the printing process from OS
          1293 MiB allocation reported by mallinfo(arena+hblkhd)
         58109 MiB available memory on the node where the printing process lives
     GPU memory used/free/total (MiB): 1868 / 14412 / 16280
------------------
     ethr =  2.92E-07,  avg # of iterations =  2.3

     total cpu time spent up to now is       95.4 secs

     total energy              =    -442.11249071 Ry
     estimated scf accuracy    <       0.00026814 Ry

     total magnetization       =     8.91 Bohr mag/cell
     absolute magnetization    =     9.17 Bohr mag/cell
[tb_dev] Currently allocated     1.02E+01 Mbytes, locked:    0 /  12
[tb_pin] Currently allocated     0.00E+00 Mbytes, locked:    0 /   0

     iteration # 32     ecut=    60.00 Ry     beta= 0.10
     Davidson diagonalization with overlap

---- Real-time Memory Report at c_bands before calling an iterative solver
          1510 MiB given to the printing process from OS
          1293 MiB allocation reported by mallinfo(arena+hblkhd)
         58110 MiB available memory on the node where the printing process lives
     GPU memory used/free/total (MiB): 1868 / 14412 / 16280
------------------
     ethr =  2.92E-07,  avg # of iterations =  4.5

     total cpu time spent up to now is       99.3 secs

     total energy              =    -442.10517412 Ry
     estimated scf accuracy    <       0.00015259 Ry

     total magnetization       =     8.59 Bohr mag/cell
     absolute magnetization    =     8.93 Bohr mag/cell
[tb_dev] Currently allocated     1.02E+01 Mbytes, locked:    0 /  12
[tb_pin] Currently allocated     0.00E+00 Mbytes, locked:    0 /   0

     iteration # 33     ecut=    60.00 Ry     beta= 0.10
     Davidson diagonalization with overlap

---- Real-time Memory Report at c_bands before calling an iterative solver
          1510 MiB given to the printing process from OS
          1293 MiB allocation reported by mallinfo(arena+hblkhd)
         58109 MiB available memory on the node where the printing process lives
     GPU memory used/free/total (MiB): 1868 / 14412 / 16280
------------------
     ethr =  2.24E-07,  avg # of iterations =  6.0

     total cpu time spent up to now is      104.4 secs

     total energy              =    -442.10648170 Ry
     estimated scf accuracy    <       0.02272526 Ry

     total magnetization       =     6.12 Bohr mag/cell
     absolute magnetization    =     9.75 Bohr mag/cell
[tb_dev] Currently allocated     1.02E+01 Mbytes, locked:    0 /  12
[tb_pin] Currently allocated     0.00E+00 Mbytes, locked:    0 /   0

     iteration # 34     ecut=    60.00 Ry     beta= 0.10
     Davidson diagonalization with overlap

---- Real-time Memory Report at c_bands before calling an iterative solver
          1510 MiB given to the printing process from OS
          1293 MiB allocation reported by mallinfo(arena+hblkhd)
         58110 MiB available memory on the node where the printing process lives
     GPU memory used/free/total (MiB): 1868 / 14412 / 16280
------------------
     ethr =  2.24E-07,  avg # of iterations =  4.9

     total cpu time spent up to now is      108.7 secs

     total energy              =    -442.11077202 Ry
     estimated scf accuracy    <       0.00114027 Ry

     total magnetization       =     7.65 Bohr mag/cell
     absolute magnetization    =     8.42 Bohr mag/cell
[tb_dev] Currently allocated     1.02E+01 Mbytes, locked:    0 /  12
[tb_pin] Currently allocated     0.00E+00 Mbytes, locked:    0 /   0

     iteration # 35     ecut=    60.00 Ry     beta= 0.10
     Davidson diagonalization with overlap

---- Real-time Memory Report at c_bands before calling an iterative solver
          1510 MiB given to the printing process from OS
          1293 MiB allocation reported by mallinfo(arena+hblkhd)
         58111 MiB available memory on the node where the printing process lives
     GPU memory used/free/total (MiB): 1868 / 14412 / 16280
------------------
     ethr =  2.24E-07,  avg # of iterations =  5.1

     total cpu time spent up to now is      113.1 secs

     total energy              =    -442.11235678 Ry
     estimated scf accuracy    <       0.00052173 Ry

     total magnetization       =     8.49 Bohr mag/cell
     absolute magnetization    =     8.88 Bohr mag/cell
[tb_dev] Currently allocated     1.02E+01 Mbytes, locked:    0 /  12
[tb_pin] Currently allocated     0.00E+00 Mbytes, locked:    0 /   0

     iteration # 36     ecut=    60.00 Ry     beta= 0.10
     Davidson diagonalization with overlap

---- Real-time Memory Report at c_bands before calling an iterative solver
          1510 MiB given to the printing process from OS
          1293 MiB allocation reported by mallinfo(arena+hblkhd)
         58110 MiB available memory on the node where the printing process lives
     GPU memory used/free/total (MiB): 1868 / 14412 / 16280
------------------
     ethr =  2.24E-07,  avg # of iterations =  4.5

     total cpu time spent up to now is      117.0 secs

     total energy              =    -442.11201144 Ry
     estimated scf accuracy    <       0.00052076 Ry

     total magnetization       =     8.77 Bohr mag/cell
     absolute magnetization    =     9.07 Bohr mag/cell
[tb_dev] Currently allocated     1.02E+01 Mbytes, locked:    0 /  12
[tb_pin] Currently allocated     0.00E+00 Mbytes, locked:    0 /   0

     iteration # 37     ecut=    60.00 Ry     beta= 0.10
     Davidson diagonalization with overlap

---- Real-time Memory Report at c_bands before calling an iterative solver
          1510 MiB given to the printing process from OS
          1293 MiB allocation reported by mallinfo(arena+hblkhd)
         58110 MiB available memory on the node where the printing process lives
     GPU memory used/free/total (MiB): 1868 / 14412 / 16280
------------------
     ethr =  2.24E-07,  avg # of iterations =  3.8

     total cpu time spent up to now is      120.6 secs

     total energy              =    -442.11162217 Ry
     estimated scf accuracy    <       0.00049117 Ry

     total magnetization       =     8.97 Bohr mag/cell
     absolute magnetization    =     9.22 Bohr mag/cell
[tb_dev] Currently allocated     1.02E+01 Mbytes, locked:    0 /  12
[tb_pin] Currently allocated     0.00E+00 Mbytes, locked:    0 /   0

     iteration # 38     ecut=    60.00 Ry     beta= 0.10
     Davidson diagonalization with overlap

---- Real-time Memory Report at c_bands before calling an iterative solver
          1510 MiB given to the printing process from OS
          1293 MiB allocation reported by mallinfo(arena+hblkhd)
         58110 MiB available memory on the node where the printing process lives
     GPU memory used/free/total (MiB): 1868 / 14412 / 16280
------------------
     ethr =  2.24E-07,  avg # of iterations =  4.0

     total cpu time spent up to now is      124.4 secs

     total energy              =    -442.10880811 Ry
     estimated scf accuracy    <       0.00050466 Ry

     total magnetization       =     9.11 Bohr mag/cell
     absolute magnetization    =     9.34 Bohr mag/cell
[tb_dev] Currently allocated     1.02E+01 Mbytes, locked:    0 /  12
[tb_pin] Currently allocated     0.00E+00 Mbytes, locked:    0 /   0

     iteration # 39     ecut=    60.00 Ry     beta= 0.10
     Davidson diagonalization with overlap

---- Real-time Memory Report at c_bands before calling an iterative solver
          1510 MiB given to the printing process from OS
          1293 MiB allocation reported by mallinfo(arena+hblkhd)
         58109 MiB available memory on the node where the printing process lives
     GPU memory used/free/total (MiB): 1868 / 14412 / 16280
------------------
     ethr =  2.24E-07,  avg # of iterations =  5.8

     total cpu time spent up to now is      129.2 secs

     total energy              =    -442.11377879 Ry
     estimated scf accuracy    <       0.00034065 Ry

     total magnetization       =     8.07 Bohr mag/cell
     absolute magnetization    =     8.61 Bohr mag/cell
[tb_dev] Currently allocated     1.02E+01 Mbytes, locked:    0 /  12
[tb_pin] Currently allocated     0.00E+00 Mbytes, locked:    0 /   0

     iteration # 40     ecut=    60.00 Ry     beta= 0.10
     Davidson diagonalization with overlap

---- Real-time Memory Report at c_bands before calling an iterative solver
          1510 MiB given to the printing process from OS
          1293 MiB allocation reported by mallinfo(arena+hblkhd)
         58110 MiB available memory on the node where the printing process lives
     GPU memory used/free/total (MiB): 1868 / 14412 / 16280
------------------
     ethr =  2.24E-07,  avg # of iterations =  3.3

     total cpu time spent up to now is      132.7 secs

     total energy              =    -442.11348272 Ry
     estimated scf accuracy    <       0.00111791 Ry

     total magnetization       =     7.63 Bohr mag/cell
     absolute magnetization    =     8.42 Bohr mag/cell
[tb_dev] Currently allocated     1.02E+01 Mbytes, locked:    0 /  12
[tb_pin] Currently allocated     0.00E+00 Mbytes, locked:    0 /   0

     iteration # 41     ecut=    60.00 Ry     beta= 0.10
     Davidson diagonalization with overlap

---- Real-time Memory Report at c_bands before calling an iterative solver
          1510 MiB given to the printing process from OS
          1293 MiB allocation reported by mallinfo(arena+hblkhd)
         58109 MiB available memory on the node where the printing process lives
     GPU memory used/free/total (MiB): 1868 / 14412 / 16280
------------------
     ethr =  2.24E-07,  avg # of iterations =  2.8

     total cpu time spent up to now is      136.0 secs

     total energy              =    -442.11201862 Ry
     estimated scf accuracy    <       0.00063639 Ry

     total magnetization       =     7.95 Bohr mag/cell
     absolute magnetization    =     8.54 Bohr mag/cell
[tb_dev] Currently allocated     1.02E+01 Mbytes, locked:    0 /  12
[tb_pin] Currently allocated     0.00E+00 Mbytes, locked:    0 /   0

     iteration # 42     ecut=    60.00 Ry     beta= 0.10
     Davidson diagonalization with overlap

---- Real-time Memory Report at c_bands before calling an iterative solver
          1510 MiB given to the printing process from OS
          1293 MiB allocation reported by mallinfo(arena+hblkhd)
         58110 MiB available memory on the node where the printing process lives
     GPU memory used/free/total (MiB): 1868 / 14412 / 16280
------------------
     ethr =  2.24E-07,  avg # of iterations =  4.6

     total cpu time spent up to now is      140.1 secs

     total energy              =    -442.11324917 Ry
     estimated scf accuracy    <       0.00018611 Ry

     total magnetization       =     8.51 Bohr mag/cell
     absolute magnetization    =     8.88 Bohr mag/cell
[tb_dev] Currently allocated     1.02E+01 Mbytes, locked:    0 /  12
[tb_pin] Currently allocated     0.00E+00 Mbytes, locked:    0 /   0

     iteration # 43     ecut=    60.00 Ry     beta= 0.10
     Davidson diagonalization with overlap

---- Real-time Memory Report at c_bands before calling an iterative solver
          1510 MiB given to the printing process from OS
          1293 MiB allocation reported by mallinfo(arena+hblkhd)
         58110 MiB available memory on the node where the printing process lives
     GPU memory used/free/total (MiB): 1868 / 14412 / 16280
------------------
     ethr =  2.24E-07,  avg # of iterations =  3.0

     total cpu time spent up to now is      143.6 secs

     total energy              =    -442.11356409 Ry
     estimated scf accuracy    <       0.00019244 Ry

     total magnetization       =     8.21 Bohr mag/cell
     absolute magnetization    =     8.69 Bohr mag/cell
[tb_dev] Currently allocated     1.02E+01 Mbytes, locked:    0 /  12
[tb_pin] Currently allocated     0.00E+00 Mbytes, locked:    0 /   0

     iteration # 44     ecut=    60.00 Ry     beta= 0.10
     Davidson diagonalization with overlap

---- Real-time Memory Report at c_bands before calling an iterative solver
          1510 MiB given to the printing process from OS
          1293 MiB allocation reported by mallinfo(arena+hblkhd)
         58111 MiB available memory on the node where the printing process lives
     GPU memory used/free/total (MiB): 1868 / 14412 / 16280
------------------
     ethr =  2.24E-07,  avg # of iterations =  1.0

     total cpu time spent up to now is      146.1 secs

     total energy              =    -442.11342117 Ry
     estimated scf accuracy    <       0.00021092 Ry

     total magnetization       =     8.22 Bohr mag/cell
     absolute magnetization    =     8.69 Bohr mag/cell
[tb_dev] Currently allocated     1.02E+01 Mbytes, locked:    0 /  12
[tb_pin] Currently allocated     0.00E+00 Mbytes, locked:    0 /   0

     iteration # 45     ecut=    60.00 Ry     beta= 0.10
     Davidson diagonalization with overlap

---- Real-time Memory Report at c_bands before calling an iterative solver
          1510 MiB given to the printing process from OS
          1293 MiB allocation reported by mallinfo(arena+hblkhd)
         58111 MiB available memory on the node where the printing process lives
     GPU memory used/free/total (MiB): 1868 / 14412 / 16280
------------------
     ethr =  2.24E-07,  avg # of iterations =  1.1

     total cpu time spent up to now is      148.5 secs

     total energy              =    -442.11338424 Ry
     estimated scf accuracy    <       0.00015873 Ry

     total magnetization       =     8.31 Bohr mag/cell
     absolute magnetization    =     8.74 Bohr mag/cell
[tb_dev] Currently allocated     1.02E+01 Mbytes, locked:    0 /  12
[tb_pin] Currently allocated     0.00E+00 Mbytes, locked:    0 /   0

     iteration # 46     ecut=    60.00 Ry     beta= 0.10
     Davidson diagonalization with overlap

---- Real-time Memory Report at c_bands before calling an iterative solver
          1510 MiB given to the printing process from OS
          1293 MiB allocation reported by mallinfo(arena+hblkhd)
         58111 MiB available memory on the node where the printing process lives
     GPU memory used/free/total (MiB): 1868 / 14412 / 16280
------------------
     ethr =  2.24E-07,  avg # of iterations =  1.0

     total cpu time spent up to now is      150.8 secs

     total energy              =    -442.11342266 Ry
     estimated scf accuracy    <       0.00014565 Ry

     total magnetization       =     8.35 Bohr mag/cell
     absolute magnetization    =     8.77 Bohr mag/cell
[tb_dev] Currently allocated     1.02E+01 Mbytes, locked:    0 /  12
[tb_pin] Currently allocated     0.00E+00 Mbytes, locked:    0 /   0

     iteration # 47     ecut=    60.00 Ry     beta= 0.10
     Davidson diagonalization with overlap

---- Real-time Memory Report at c_bands before calling an iterative solver
          1510 MiB given to the printing process from OS
          1293 MiB allocation reported by mallinfo(arena+hblkhd)
         58111 MiB available memory on the node where the printing process lives
     GPU memory used/free/total (MiB): 1868 / 14412 / 16280
------------------
     ethr =  2.14E-07,  avg # of iterations =  2.9

     total cpu time spent up to now is      154.2 secs

     total energy              =    -442.11144183 Ry
     estimated scf accuracy    <       0.00058815 Ry

     total magnetization       =     8.01 Bohr mag/cell
     absolute magnetization    =     8.57 Bohr mag/cell
[tb_dev] Currently allocated     1.02E+01 Mbytes, locked:    0 /  12
[tb_pin] Currently allocated     0.00E+00 Mbytes, locked:    0 /   0

     iteration # 48     ecut=    60.00 Ry     beta= 0.10
     Davidson diagonalization with overlap

---- Real-time Memory Report at c_bands before calling an iterative solver
          1510 MiB given to the printing process from OS
          1293 MiB allocation reported by mallinfo(arena+hblkhd)
         58110 MiB available memory on the node where the printing process lives
     GPU memory used/free/total (MiB): 1868 / 14412 / 16280
------------------
     ethr =  2.14E-07,  avg # of iterations =  4.5

     total cpu time spent up to now is      158.4 secs

     total energy              =    -442.11306927 Ry
     estimated scf accuracy    <       0.00017179 Ry

     total magnetization       =     8.61 Bohr mag/cell
     absolute magnetization    =     8.94 Bohr mag/cell
[tb_dev] Currently allocated     1.02E+01 Mbytes, locked:    0 /  12
[tb_pin] Currently allocated     0.00E+00 Mbytes, locked:    0 /   0

     iteration # 49     ecut=    60.00 Ry     beta= 0.10
     Davidson diagonalization with overlap

---- Real-time Memory Report at c_bands before calling an iterative solver
          1510 MiB given to the printing process from OS
          1293 MiB allocation reported by mallinfo(arena+hblkhd)
         58111 MiB available memory on the node where the printing process lives
     GPU memory used/free/total (MiB): 1868 / 14412 / 16280
------------------
     ethr =  2.14E-07,  avg # of iterations =  3.0

     total cpu time spent up to now is      161.9 secs

     total energy              =    -442.11151535 Ry
     estimated scf accuracy    <       0.00013462 Ry

     total magnetization       =     8.37 Bohr mag/cell
     absolute magnetization    =     8.78 Bohr mag/cell
[tb_dev] Currently allocated     1.02E+01 Mbytes, locked:    0 /  12
[tb_pin] Currently allocated     0.00E+00 Mbytes, locked:    0 /   0

     iteration # 50     ecut=    60.00 Ry     beta= 0.10
     Davidson diagonalization with overlap

---- Real-time Memory Report at c_bands before calling an iterative solver
          1510 MiB given to the printing process from OS
          1293 MiB allocation reported by mallinfo(arena+hblkhd)
         58111 MiB available memory on the node where the printing process lives
     GPU memory used/free/total (MiB): 1868 / 14412 / 16280
------------------
     ethr =  1.98E-07,  avg # of iterations =  6.0

     total cpu time spent up to now is      166.6 secs

     total energy              =    -442.10942567 Ry
     estimated scf accuracy    <       0.00252659 Ry

     total magnetization       =     7.22 Bohr mag/cell
     absolute magnetization    =     8.42 Bohr mag/cell
[tb_dev] Currently allocated     1.02E+01 Mbytes, locked:    0 /  12
[tb_pin] Currently allocated     0.00E+00 Mbytes, locked:    0 /   0

     iteration # 51     ecut=    60.00 Ry     beta= 0.10
     Davidson diagonalization with overlap

---- Real-time Memory Report at c_bands before calling an iterative solver
          1510 MiB given to the printing process from OS
          1293 MiB allocation reported by mallinfo(arena+hblkhd)
         58111 MiB available memory on the node where the printing process lives
     GPU memory used/free/total (MiB): 1868 / 14412 / 16280
------------------
     ethr =  1.98E-07,  avg # of iterations =  4.5

     total cpu time spent up to now is      170.8 secs

     total energy              =    -442.11357322 Ry
     estimated scf accuracy    <       0.00015528 Ry

     total magnetization       =     8.20 Bohr mag/cell
     absolute magnetization    =     8.68 Bohr mag/cell
[tb_dev] Currently allocated     1.02E+01 Mbytes, locked:    0 /  12
[tb_pin] Currently allocated     0.00E+00 Mbytes, locked:    0 /   0

     iteration # 52     ecut=    60.00 Ry     beta= 0.10
     Davidson diagonalization with overlap

[...]
         58112 MiB available memory on the node where the printing process lives
     GPU memory used/free/total (MiB): 1868 / 14412 / 16280
------------------
     ethr =  1.97E-07,  avg # of iterations =  6.2

     total cpu time spent up to now is      209.9 secs

     total energy              =    -442.11130399 Ry
     estimated scf accuracy    <       0.01452683 Ry

     total magnetization       =     8.83 Bohr mag/cell
     absolute magnetization    =     9.04 Bohr mag/cell
[tb_dev] Currently allocated     1.02E+01 Mbytes, locked:    0 /  12
[tb_pin] Currently allocated     0.00E+00 Mbytes, locked:    0 /   0

     iteration # 65     ecut=    60.00 Ry     beta= 0.10
     Davidson diagonalization with overlap

---- Real-time Memory Report at c_bands before calling an iterative solver
          1510 MiB given to the printing process from OS
          1293 MiB allocation reported by mallinfo(arena+hblkhd)
         58111 MiB available memory on the node where the printing process lives
     GPU memory used/free/total (MiB): 1868 / 14412 / 16280
------------------
     ethr =  1.97E-07,  avg # of iterations =  5.4

     total cpu time spent up to now is      214.4 secs

     total energy              =    -442.10626869 Ry
     estimated scf accuracy    <       0.00528402 Ry

     total magnetization       =     8.40 Bohr mag/cell
     absolute magnetization    =     8.74 Bohr mag/cell
[tb_dev] Currently allocated     1.02E+01 Mbytes, locked:    0 /  12
[tb_pin] Currently allocated     0.00E+00 Mbytes, locked:    0 /   0

     iteration # 66     ecut=    60.00 Ry     beta= 0.10
     Davidson diagonalization with overlap

---- Real-time Memory Report at c_bands before calling an iterative solver
          1510 MiB given to the printing process from OS
          1293 MiB allocation reported by mallinfo(arena+hblkhd)
         58110 MiB available memory on the node where the printing process lives
     GPU memory used/free/total (MiB): 1868 / 14412 / 16280
------------------
     ethr =  1.97E-07,  avg # of iterations =  6.1

     total cpu time spent up to now is      219.6 secs

     total energy              =    -442.09899663 Ry
     estimated scf accuracy    <       0.01442686 Ry

     total magnetization       =     6.40 Bohr mag/cell
     absolute magnetization    =     9.37 Bohr mag/cell
[tb_dev] Currently allocated     1.02E+01 Mbytes, locked:    0 /  12
[tb_pin] Currently allocated     0.00E+00 Mbytes, locked:    0 /   0

     iteration # 67     ecut=    60.00 Ry     beta= 0.10
     Davidson diagonalization with overlap

---- Real-time Memory Report at c_bands before calling an iterative solver
          1510 MiB given to the printing process from OS
          1293 MiB allocation reported by mallinfo(arena+hblkhd)
         58110 MiB available memory on the node where the printing process lives
     GPU memory used/free/total (MiB): 1868 / 14412 / 16280
------------------
     ethr =  1.97E-07,  avg # of iterations =  6.0

     total cpu time spent up to now is      224.5 secs

     total energy              =    -442.11347797 Ry
     estimated scf accuracy    <       0.00013850 Ry

     total magnetization       =     8.26 Bohr mag/cell
     absolute magnetization    =     8.73 Bohr mag/cell
[tb_dev] Currently allocated     1.02E+01 Mbytes, locked:    0 /  12
[tb_pin] Currently allocated     0.00E+00 Mbytes, locked:    0 /   0

     iteration # 68     ecut=    60.00 Ry     beta= 0.10
     Davidson diagonalization with overlap

---- Real-time Memory Report at c_bands before calling an iterative solver
          1510 MiB given to the printing process from OS
          1293 MiB allocation reported by mallinfo(arena+hblkhd)
         58110 MiB available memory on the node where the printing process lives
     GPU memory used/free/total (MiB): 1868 / 14412 / 16280
------------------
     ethr =  1.97E-07,  avg # of iterations =  1.0

     total cpu time spent up to now is      226.9 secs

     total energy              =    -442.11318654 Ry
     estimated scf accuracy    <       0.00016047 Ry

     total magnetization       =     8.31 Bohr mag/cell
     absolute magnetization    =     8.76 Bohr mag/cell
[tb_dev] Currently allocated     1.02E+01 Mbytes, locked:    0 /  12
[tb_pin] Currently allocated     0.00E+00 Mbytes, locked:    0 /   0

     iteration # 69     ecut=    60.00 Ry     beta= 0.10
     Davidson diagonalization with overlap

---- Real-time Memory Report at c_bands before calling an iterative solver
          1510 MiB given to the printing process from OS
          1293 MiB allocation reported by mallinfo(arena+hblkhd)
         58109 MiB available memory on the node where the printing process lives
     GPU memory used/free/total (MiB): 1868 / 14412 / 16280
------------------
     ethr =  1.97E-07,  avg # of iterations =  2.0

     total cpu time spent up to now is      229.8 secs

     total energy              =    -442.11268229 Ry
     estimated scf accuracy    <       0.00017683 Ry

     total magnetization       =     8.45 Bohr mag/cell
     absolute magnetization    =     8.84 Bohr mag/cell
[tb_dev] Currently allocated     1.02E+01 Mbytes, locked:    0 /  12
[tb_pin] Currently allocated     0.00E+00 Mbytes, locked:    0 /   0

     iteration # 70     ecut=    60.00 Ry     beta= 0.10
     Davidson diagonalization with overlap

---- Real-time Memory Report at c_bands before calling an iterative solver
          1510 MiB given to the printing process from OS
          1293 MiB allocation reported by mallinfo(arena+hblkhd)
         58110 MiB available memory on the node where the printing process lives
     GPU memory used/free/total (MiB): 1868 / 14412 / 16280
------------------
     ethr =  1.97E-07,  avg # of iterations =  4.0

     total cpu time spent up to now is      233.7 secs

     total energy              =    -442.11302687 Ry
     estimated scf accuracy    <       0.00017868 Ry

     total magnetization       =     8.64 Bohr mag/cell
     absolute magnetization    =     8.96 Bohr mag/cell
[tb_dev] Currently allocated     1.02E+01 Mbytes, locked:    0 /  12
[tb_pin] Currently allocated     0.00E+00 Mbytes, locked:    0 /   0

     iteration # 71     ecut=    60.00 Ry     beta= 0.10
     Davidson diagonalization with overlap

---- Real-time Memory Report at c_bands before calling an iterative solver
          1510 MiB given to the printing process from OS
          1293 MiB allocation reported by mallinfo(arena+hblkhd)
         58111 MiB available memory on the node where the printing process lives
     GPU memory used/free/total (MiB): 1868 / 14412 / 16280
------------------
     ethr =  1.97E-07,  avg # of iterations =  1.5

     total cpu time spent up to now is      236.3 secs

     total energy              =    -442.11309175 Ry
     estimated scf accuracy    <       0.00015038 Ry

     total magnetization       =     8.58 Bohr mag/cell
     absolute magnetization    =     8.92 Bohr mag/cell
[tb_dev] Currently allocated     1.02E+01 Mbytes, locked:    0 /  12
[tb_pin] Currently allocated     0.00E+00 Mbytes, locked:    0 /   0

     iteration # 72     ecut=    60.00 Ry     beta= 0.10
     Davidson diagonalization with overlap

---- Real-time Memory Report at c_bands before calling an iterative solver
          1510 MiB given to the printing process from OS
          1293 MiB allocation reported by mallinfo(arena+hblkhd)
         58110 MiB available memory on the node where the printing process lives
     GPU memory used/free/total (MiB): 1868 / 14412 / 16280
------------------
     ethr =  1.97E-07,  avg # of iterations =  1.0

     total cpu time spent up to now is      239.1 secs

     total energy              =    -442.11253779 Ry
     estimated scf accuracy    <       0.00033580 Ry

     total magnetization       =     8.59 Bohr mag/cell
     absolute magnetization    =     8.94 Bohr mag/cell
[tb_dev] Currently allocated     1.02E+01 Mbytes, locked:    0 /  12
[tb_pin] Currently allocated     0.00E+00 Mbytes, locked:    0 /   0

     iteration # 73     ecut=    60.00 Ry     beta= 0.10
     Davidson diagonalization with overlap

---- Real-time Memory Report at c_bands before calling an iterative solver
          1510 MiB given to the printing process from OS
          1293 MiB allocation reported by mallinfo(arena+hblkhd)
         58111 MiB available memory on the node where the printing process lives
     GPU memory used/free/total (MiB): 1868 / 14412 / 16280
------------------
     ethr =  1.97E-07,  avg # of iterations =  2.0

     total cpu time spent up to now is      242.2 secs

     total energy              =    -442.11289075 Ry
     estimated scf accuracy    <       0.00030092 Ry

     total magnetization       =     8.77 Bohr mag/cell
     absolute magnetization    =     9.06 Bohr mag/cell
[tb_dev] Currently allocated     1.02E+01 Mbytes, locked:    0 /  12
[tb_pin] Currently allocated     0.00E+00 Mbytes, locked:    0 /   0

     iteration # 74     ecut=    60.00 Ry     beta= 0.10
     Davidson diagonalization with overlap

---- Real-time Memory Report at c_bands before calling an iterative solver
          1510 MiB given to the printing process from OS
          1293 MiB allocation reported by mallinfo(arena+hblkhd)
         58111 MiB available memory on the node where the printing process lives
     GPU memory used/free/total (MiB): 1868 / 14412 / 16280
------------------
     ethr =  1.97E-07,  avg # of iterations =  2.0

     total cpu time spent up to now is      245.0 secs

     total energy              =    -442.11308237 Ry
     estimated scf accuracy    <       0.00033562 Ry

     total magnetization       =     8.67 Bohr mag/cell
     absolute magnetization    =     9.00 Bohr mag/cell
[tb_dev] Currently allocated     1.02E+01 Mbytes, locked:    0 /  12
[tb_pin] Currently allocated     0.00E+00 Mbytes, locked:    0 /   0

     iteration # 75     ecut=    60.00 Ry     beta= 0.10
     Davidson diagonalization with overlap

---- Real-time Memory Report at c_bands before calling an iterative solver
          1510 MiB given to the printing process from OS
          1293 MiB allocation reported by mallinfo(arena+hblkhd)
         58112 MiB available memory on the node where the printing process lives
     GPU memory used/free/total (MiB): 1868 / 14412 / 16280
------------------
     ethr =  1.97E-07,  avg # of iterations =  2.1

     total cpu time spent up to now is      248.0 secs

     total energy              =    -442.10680306 Ry
     estimated scf accuracy    <       0.00027638 Ry

     total magnetization       =     8.51 Bohr mag/cell
     absolute magnetization    =     8.89 Bohr mag/cell
[tb_dev] Currently allocated     1.02E+01 Mbytes, locked:    0 /  12
[tb_pin] Currently allocated     0.00E+00 Mbytes, locked:    0 /   0

     iteration # 76     ecut=    60.00 Ry     beta= 0.10
     Davidson diagonalization with overlap

---- Real-time Memory Report at c_bands before calling an iterative solver
          1510 MiB given to the printing process from OS
          1293 MiB allocation reported by mallinfo(arena+hblkhd)
         58112 MiB available memory on the node where the printing process lives
     GPU memory used/free/total (MiB): 1868 / 14412 / 16280
------------------
     ethr =  1.97E-07,  avg # of iterations =  6.2

     total cpu time spent up to now is      253.5 secs

     total energy              =    -442.08554863 Ry
     estimated scf accuracy    <       0.02230522 Ry

     total magnetization       =     6.16 Bohr mag/cell
     absolute magnetization    =     9.71 Bohr mag/cell
[tb_dev] Currently allocated     1.02E+01 Mbytes, locked:    0 /  12
[tb_pin] Currently allocated     0.00E+00 Mbytes, locked:    0 /   0

     iteration # 77     ecut=    60.00 Ry     beta= 0.10
     Davidson diagonalization with overlap

---- Real-time Memory Report at c_bands before calling an iterative solver
          1510 MiB given to the printing process from OS
          1293 MiB allocation reported by mallinfo(arena+hblkhd)
         58113 MiB available memory on the node where the printing process lives
     GPU memory used/free/total (MiB): 1868 / 14412 / 16280
------------------
     ethr =  1.97E-07,  avg # of iterations =  6.2

     total cpu time spent up to now is      258.6 secs

     total energy              =    -442.11311205 Ry
     estimated scf accuracy    <       0.00020260 Ry

     total magnetization       =     8.58 Bohr mag/cell
     absolute magnetization    =     8.93 Bohr mag/cell
[tb_dev] Currently allocated     1.02E+01 Mbytes, locked:    0 /  12
[tb_pin] Currently allocated     0.00E+00 Mbytes, locked:    0 /   0

     iteration # 78     ecut=    60.00 Ry     beta= 0.10
     Davidson diagonalization with overlap

---- Real-time Memory Report at c_bands before calling an iterative solver
          1510 MiB given to the printing process from OS
          1293 MiB allocation reported by mallinfo(arena+hblkhd)
         58112 MiB available memory on the node where the printing process lives
     GPU memory used/free/total (MiB): 1868 / 14412 / 16280
------------------
     ethr =  1.97E-07,  avg # of iterations =  1.0

     total cpu time spent up to now is      261.0 secs

     total energy              =    -442.11281506 Ry
     estimated scf accuracy    <       0.00021236 Ry

     total magnetization       =     8.56 Bohr mag/cell
     absolute magnetization    =     8.92 Bohr mag/cell
[tb_dev] Currently allocated     1.02E+01 Mbytes, locked:    0 /  12
[tb_pin] Currently allocated     0.00E+00 Mbytes, locked:    0 /   0

     iteration # 79     ecut=    60.00 Ry     beta= 0.10
     Davidson diagonalization with overlap

---- Real-time Memory Report at c_bands before calling an iterative solver
          1510 MiB given to the printing process from OS
          1293 MiB allocation reported by mallinfo(arena+hblkhd)
         58112 MiB available memory on the node where the printing process lives
     GPU memory used/free/total (MiB): 1868 / 14412 / 16280
------------------
     ethr =  1.97E-07,  avg # of iterations =  2.0

     total cpu time spent up to now is      264.2 secs

     total energy              =    -442.11284615 Ry
     estimated scf accuracy    <       0.00018608 Ry

     total magnetization       =     8.68 Bohr mag/cell
     absolute magnetization    =     8.99 Bohr mag/cell
[tb_dev] Currently allocated     1.02E+01 Mbytes, locked:    0 /  12
[tb_pin] Currently allocated     0.00E+00 Mbytes, locked:    0 /   0

     iteration # 80     ecut=    60.00 Ry     beta= 0.10
     Davidson diagonalization with overlap

---- Real-time Memory Report at c_bands before calling an iterative solver
          1510 MiB given to the printing process from OS
          1293 MiB allocation reported by mallinfo(arena+hblkhd)
         58112 MiB available memory on the node where the printing process lives
     GPU memory used/free/total (MiB): 1868 / 14412 / 16280
------------------
     ethr =  1.97E-07,  avg # of iterations =  1.0

     total cpu time spent up to now is      266.6 secs

     total energy              =    -442.11280651 Ry
     estimated scf accuracy    <       0.00019237 Ry

     total magnetization       =     8.70 Bohr mag/cell
     absolute magnetization    =     9.01 Bohr mag/cell

     End of self-consistent calculation

     convergence NOT achieved after  80 iterations: stopping

     Writing config to output data dir ./out/aiida.save/
 
     init_run     :     10.04s CPU      2.06s WALL (       1 calls)
     electrons    :    494.91s CPU    264.30s WALL (       1 calls)

     Called by init_run:
     wfcinit      :      0.16s CPU      0.16s WALL (       1 calls)
                                        0.16s GPU  (       1 calls)
     potinit      :      0.56s CPU      0.18s WALL (       1 calls)
     hinit0       :      6.94s CPU      0.96s WALL (       1 calls)

     Called by electrons:
     c_bands      :    313.44s CPU    212.87s WALL (      80 calls)
     sum_band     :     34.90s CPU     37.68s WALL (      80 calls)
     v_of_rho     :     45.31s CPU      4.14s WALL (      81 calls)
     v_h          :      6.49s CPU      0.57s WALL (      81 calls)
     v_xc         :     38.81s CPU      3.57s WALL (      81 calls)
     newd         :     35.77s CPU      3.51s WALL (      81 calls)
                                        3.51s GPU  (      81 calls)
     mix_rho      :     45.67s CPU      4.41s WALL (      80 calls)

     Called by c_bands:
     init_us_2    :     13.87s CPU     11.17s WALL (    9280 calls)
     init_us_2:gp :     13.64s CPU     11.01s WALL (    9280 calls)
     cegterg      :    268.85s CPU    183.98s WALL (    4640 calls)

     Called by sum_band:
     sum_band:wei :      0.22s CPU      0.23s WALL (      80 calls)
                                        0.22s GPU  (      80 calls)
     sum_band:loo :     30.80s CPU     33.47s WALL (      80 calls)
                                       33.47s GPU  (      80 calls)
     sum_band:buf :      8.87s CPU      9.23s WALL (    4640 calls)
                                        9.20s GPU  (    4640 calls)
     sum_band:ini :      4.67s CPU      5.41s WALL (    4640 calls)
                                        5.38s GPU  (    4640 calls)
     sum_band:cal :      0.14s CPU      1.60s WALL (    4640 calls)
                                        1.06s GPU  (    4640 calls)
     sum_band:bec :      1.03s CPU      1.13s WALL (    4640 calls)
                                        1.10s GPU  (    4640 calls)
     addusdens    :      1.29s CPU      1.36s WALL (      80 calls)
                                        1.36s GPU  (      80 calls)
     addusd:skk   :      0.03s CPU      0.03s WALL (     160 calls)
                                        0.03s GPU  (     160 calls)

     Called by *egterg:
     cdiaghg      :     79.34s CPU     59.38s WALL (   17503 calls)
                                       59.26s GPU  (   17503 calls)
     cegterg:over :      6.63s CPU      4.62s WALL (   12921 calls)
     cegterg:upda :     10.05s CPU      6.87s WALL (   12921 calls)
     cegterg:last :      4.36s CPU      3.04s WALL (    9343 calls)
     h_psi        :    150.02s CPU     98.16s WALL (   17561 calls)
                                       97.96s GPU  (   17561 calls)
     s_psi        :      3.54s CPU      4.81s WALL (   17561 calls)
                                        4.40s GPU  (   17561 calls)
     g_psi        :      0.15s CPU      0.59s WALL (   12921 calls)
                                        0.51s GPU  (   12921 calls)

     Called by h_psi:
     h_psi:calbec :      0.91s CPU      3.82s WALL (   17561 calls)
                                        3.71s GPU  (   17561 calls)
     vloc_psi     :    131.56s CPU     86.45s WALL (   17561 calls)
                                       86.34s GPU  (   17561 calls)
     add_vuspsi   :      6.25s CPU      6.32s WALL (   17561 calls)
                                        6.20s GPU  (   17561 calls)

     General routines
     calbec       :      0.75s CPU      0.53s WALL (   22201 calls)
     fft          :      2.94s CPU      0.66s WALL (    2023 calls)
                                        0.50s GPU  (    1861 calls)
     ffts         :      0.16s CPU      0.05s WALL (     322 calls)
                                        0.01s GPU  (     160 calls)
     fftw         :      3.07s CPU     68.62s WALL (   96318 calls)
                                       68.06s GPU  (   96318 calls)
     interpolate  :      6.64s CPU      0.58s WALL (     162 calls)
     davcio       :      0.65s CPU      0.67s WALL (     134 calls)
 
     Parallel routines
 
     PWSCF        :   8m27.98s CPU   4m27.17s WALL

 
   This run was terminated on:  21:22:28  23Oct2023            

=------------------------------------------------------------------------------=
   JOB DONE.
=------------------------------------------------------------------------------=
