
     Program PWSCF v.7.2 starts on 30Nov2023 at  4: 5:45 
        Git branch: develop
        Last git commit: 9055681be6fc8200e6fffe76ed5fda34c2696339
        Last git commit date: Wed Nov 8 16:29:39 2023 +0000
        Last git commit subject: Merge branch 'calbec_fix' into 'develop'

     This program is part of the open-source Quantum ESPRESSO suite
     for quantum simulation of materials; please cite
         "P. Giannozzi et al., J. Phys.:Condens. Matter 21 395502 (2009);
         "P. Giannozzi et al., J. Phys.:Condens. Matter 29 465901 (2017);
         "P. Giannozzi et al., J. Chem. Phys. 152 154105 (2020);
          URL http://www.quantum-espresso.org", 
     in publications or presentations arising from this work. More details at
     http://www.quantum-espresso.org/quote

     Parallel version (MPI), running on    56 processors

     MPI processes distributed on     1 nodes
     486920 MiB available memory on the printing compute node when the environment starts

     Reading input from aiida.in

     Current dimensions of program PWSCF are:
     Max number of different atomic species (ntypx) = 10
     Max number of k-points (npk) =  40000
     Max angular momentum in pseudopotentials (lmaxx) =  4
     file In.pbesol-dn-rrkjus_psl.0.2.2.UPF: wavefunction(s)  5S renormalized
     Message from routine setup:
     using ibrav=0 with symmetry is DISCOURAGED, use correct ibrav instead

     K-points division:     npool     =       7
     R & G space division:  proc/nbgrp/npool/nimage =       8
     Subspace diagonalization in iterative solution of the eigenvalue problem:
     a serial algorithm will be used


     Parallelization info
     --------------------
     sticks:   dense  smooth     PW     G-vecs:    dense   smooth      PW
     Min         239     119     36                 6919     2448     410
     Max         240     120     37                 6922     2452     412
     Sum        1915     955    295                55369    19603    3287

     Using Slab Decomposition



     bravais-lattice index     =            0
     lattice parameter (alat)  =       8.3381  a.u.
     unit-cell volume          =     409.9118 (a.u.)^3
     number of atoms/cell      =            4
     number of atomic types    =            4
     number of electrons       =        52.00
     number of Kohn-Sham states=           35
     kinetic-energy cutoff     =      50.0000  Ry
     charge density cutoff     =     400.0000  Ry
     scf convergence threshold =      8.0E-10
     mixing beta               =       0.4000
     number of iterations used =            8  plain     mixing
     Exchange-correlation= SLA  PW   PSX  PSC
                           (   1   4  10   8   0   0   0)

     celldm(1)=   8.338126  celldm(2)=   0.000000  celldm(3)=   0.000000
     celldm(4)=   0.000000  celldm(5)=   0.000000  celldm(6)=   0.000000

     crystal axes: (cart. coord. in units of alat)
               a(1) = (   0.000000   0.707107   0.707107 )  
               a(2) = (   0.707107   0.000000   0.707107 )  
               a(3) = (   0.707107   0.707107   0.000000 )  

     reciprocal axes: (cart. coord. in units 2 pi/alat)
               b(1) = ( -0.707107  0.707107  0.707107 )  
               b(2) = (  0.707107 -0.707107  0.707107 )  
               b(3) = (  0.707107  0.707107 -0.707107 )  


     PseudoPot. # 1 for Cr read from file:
     ./pseudo/cr_pbesol_v1.5.uspp.F.UPF
     MD5 check sum: a621641e0be27168676a837af8893d0f
     Pseudo is Ultrasoft + core correction, Zval = 14.0
     Generated by new atomic code, or converted to UPF format
     Using radial grid of  857 points,  6 beta functions with: 
                l(1) =   0
                l(2) =   0
                l(3) =   1
                l(4) =   1
                l(5) =   2
                l(6) =   2
     Q(r) pseudized with  8 coefficients,  rinner =    0.950   0.950   0.950
                                                       0.950   0.950

     PseudoPot. # 2 for In read from file:
     ./pseudo/In.pbesol-dn-rrkjus_psl.0.2.2.UPF
     MD5 check sum: 2a3399a31491503da6b8c7d8e01e9843
     Pseudo is Ultrasoft + core correction, Zval = 13.0
     Generated using "atomic" code by A. Dal Corso  v.6.0 svn rev. 13079
     Using radial grid of 1241 points,  6 beta functions with: 
                l(1) =   0
                l(2) =   0
                l(3) =   1
                l(4) =   1
                l(5) =   2
                l(6) =   2
     Q(r) pseudized with 0 coefficients 


     PseudoPot. # 3 for Ti read from file:
     ./pseudo/ti_pbesol_v1.4.uspp.F.UPF
     MD5 check sum: 193cf2c0c3c6a4da613d69453fa7e3e9
     Pseudo is Ultrasoft + core correction, Zval = 12.0
     Generated by new atomic code, or converted to UPF format
     Using radial grid of  851 points,  6 beta functions with: 
                l(1) =   0
                l(2) =   0
                l(3) =   1
                l(4) =   1
                l(5) =   2
                l(6) =   2
     Q(r) pseudized with  6 coefficients,  rinner =    1.000   1.000   1.000
                                                       1.000   1.000

     PseudoPot. # 4 for V  read from file:
     ./pseudo/v_pbesol_v1.4.uspp.F.UPF
     MD5 check sum: 72fa7d0034c41d8adc50bbc8c632b9f9
     Pseudo is Ultrasoft + core correction, Zval = 13.0
     Generated by new atomic code, or converted to UPF format
     Using radial grid of  853 points,  6 beta functions with: 
                l(1) =   0
                l(2) =   0
                l(3) =   1
                l(4) =   1
                l(5) =   2
                l(6) =   2
     Q(r) pseudized with  8 coefficients,  rinner =    1.100   1.100   1.100
                                                       1.100   1.100

     atomic species   valence    mass     pseudopotential
     Cr               14.00    51.99610     Cr( 1.00)
     In               13.00   114.81800     In( 1.00)
     Ti               12.00    47.86700     Ti( 1.00)
     V                13.00    50.94150     V ( 1.00)

     Starting magnetic structure 
     atomic species   magnetization
     Cr              0.357
     In              0.100
     Ti              0.417
     V               0.385

     24 Sym. Ops. (no inversion) found


                                    s                        frac. trans.

      isym =  1     identity                                     

 cryst.   s( 1) = (     1          0          0      )
                  (     0          1          0      )
                  (     0          0          1      )

 cart.    s( 1) = (  1.0000000 -0.0000000  0.0000000 )
                  ( -0.0000000  1.0000000  0.0000000 )
                  ( -0.0000000  0.0000000  1.0000000 )


      isym =  2     180 deg rotation - cart. axis [0,0,1]        

 cryst.   s( 2) = (     0          1         -1      )
                  (     1          0         -1      )
                  (     0          0         -1      )

 cart.    s( 2) = ( -1.0000000  0.0000000  0.0000000 )
                  (  0.0000000 -1.0000000  0.0000000 )
                  (  0.0000000 -0.0000000  1.0000000 )


      isym =  3     180 deg rotation - cart. axis [0,1,0]        

 cryst.   s( 3) = (     0         -1          1      )
                  (     0         -1          0      )
                  (     1         -1          0      )

 cart.    s( 3) = ( -1.0000000 -0.0000000 -0.0000000 )
                  (  0.0000000  1.0000000 -0.0000000 )
                  (  0.0000000  0.0000000 -1.0000000 )


      isym =  4     180 deg rotation - cart. axis [1,0,0]        

 cryst.   s( 4) = (    -1          0          0      )
                  (    -1          0          1      )
                  (    -1          1          0      )

 cart.    s( 4) = (  1.0000000  0.0000000 -0.0000000 )
                  ( -0.0000000 -1.0000000 -0.0000000 )
                  ( -0.0000000 -0.0000000 -1.0000000 )


      isym =  5     120 deg rotation - cart. axis [-1,-1,-1]     

 cryst.   s( 5) = (     0          0          1      )
                  (     1          0          0      )
                  (     0          1          0      )

 cart.    s( 5) = (  0.0000000  1.0000000 -0.0000000 )
                  (  0.0000000 -0.0000000  1.0000000 )
                  (  1.0000000 -0.0000000  0.0000000 )


      isym =  6     120 deg rotation - cart. axis [-1,1,1]       

 cryst.   s( 6) = (     1         -1          0      )
                  (     0         -1          1      )
                  (     0         -1          0      )

 cart.    s( 6) = ( -0.0000000 -1.0000000 -0.0000000 )
                  ( -0.0000000  0.0000000  1.0000000 )
                  ( -1.0000000  0.0000000  0.0000000 )


      isym =  7     120 deg rotation - cart. axis [1,1,-1]       

 cryst.   s( 7) = (    -1          1          0      )
                  (    -1          0          0      )
                  (    -1          0          1      )

 cart.    s( 7) = ( -0.0000000  1.0000000  0.0000000 )
                  ( -0.0000000 -0.0000000 -1.0000000 )
                  ( -1.0000000 -0.0000000 -0.0000000 )


      isym =  8     120 deg rotation - cart. axis [1,-1,1]       

 cryst.   s( 8) = (     0          0         -1      )
                  (     0          1         -1      )
                  (     1          0         -1      )

 cart.    s( 8) = (  0.0000000 -1.0000000  0.0000000 )
                  (  0.0000000  0.0000000 -1.0000000 )
                  (  1.0000000  0.0000000 -0.0000000 )


      isym =  9     120 deg rotation - cart. axis [1,1,1]        

 cryst.   s( 9) = (     0          1          0      )
                  (     0          0          1      )
                  (     1          0          0      )

 cart.    s( 9) = ( -0.0000000  0.0000000  1.0000000 )
                  (  1.0000000  0.0000000 -0.0000000 )
                  (  0.0000000  1.0000000 -0.0000000 )


      isym = 10     120 deg rotation - cart. axis [-1,1,-1]      

 cryst.   s(10) = (    -1          0          1      )
                  (    -1          1          0      )
                  (    -1          0          0      )

 cart.    s(10) = (  0.0000000 -0.0000000  1.0000000 )
                  ( -1.0000000 -0.0000000 -0.0000000 )
                  ( -0.0000000 -1.0000000 -0.0000000 )


      isym = 11     120 deg rotation - cart. axis [1,-1,-1]      

 cryst.   s(11) = (     1          0         -1      )
                  (     0          0         -1      )
                  (     0          1         -1      )

 cart.    s(11) = (  0.0000000  0.0000000 -1.0000000 )
                  ( -1.0000000  0.0000000  0.0000000 )
                  ( -0.0000000  1.0000000  0.0000000 )


      isym = 12     120 deg rotation - cart. axis [-1,-1,1]      

 cryst.   s(12) = (     0         -1          0      )
                  (     1         -1          0      )
                  (     0         -1          1      )

 cart.    s(12) = ( -0.0000000 -0.0000000 -1.0000000 )
                  (  1.0000000 -0.0000000  0.0000000 )
                  (  0.0000000 -1.0000000  0.0000000 )


      isym = 13     inv. 180 deg rotation - cart. axis [1,1,0]   

 cryst.   s(13) = (     1          0         -1      )
                  (     0          1         -1      )
                  (     0          0         -1      )

 cart.    s(13) = (  0.0000000 -1.0000000  0.0000000 )
                  ( -1.0000000  0.0000000  0.0000000 )
                  ( -0.0000000  0.0000000  1.0000000 )


      isym = 14     inv. 180 deg rotation - cart. axis [1,-1,0]  

 cryst.   s(14) = (     0          1          0      )
                  (     1          0          0      )
                  (     0          0          1      )

 cart.    s(14) = ( -0.0000000  1.0000000  0.0000000 )
                  (  1.0000000 -0.0000000  0.0000000 )
                  (  0.0000000 -0.0000000  1.0000000 )


      isym = 15     inv.  90 deg rotation - cart. axis [0,0,-1]  

 cryst.   s(15) = (     0         -1          0      )
                  (     0         -1          1      )
                  (     1         -1          0      )

 cart.    s(15) = ( -0.0000000 -1.0000000 -0.0000000 )
                  (  1.0000000  0.0000000 -0.0000000 )
                  (  0.0000000  0.0000000 -1.0000000 )


      isym = 16     inv.  90 deg rotation - cart. axis [0,0,1]   

 cryst.   s(16) = (    -1          0          1      )
                  (    -1          0          0      )
                  (    -1          1          0      )

 cart.    s(16) = (  0.0000000  1.0000000 -0.0000000 )
                  ( -1.0000000 -0.0000000 -0.0000000 )
                  ( -0.0000000 -0.0000000 -1.0000000 )


      isym = 17     inv. 180 deg rotation - cart. axis [1,0,1]   

 cryst.   s(17) = (     1         -1          0      )
                  (     0         -1          0      )
                  (     0         -1          1      )

 cart.    s(17) = ( -0.0000000 -0.0000000 -1.0000000 )
                  ( -0.0000000  1.0000000  0.0000000 )
                  ( -1.0000000  0.0000000  0.0000000 )


      isym = 18     inv. 180 deg rotation - cart. axis [-1,0,1]  

 cryst.   s(18) = (     0          0          1      )
                  (     0          1          0      )
                  (     1          0          0      )

 cart.    s(18) = (  0.0000000 -0.0000000  1.0000000 )
                  (  0.0000000  1.0000000 -0.0000000 )
                  (  1.0000000  0.0000000 -0.0000000 )


      isym = 19     inv.  90 deg rotation - cart. axis [0,1,0]   

 cryst.   s(19) = (     0          0         -1      )
                  (     1          0         -1      )
                  (     0          1         -1      )

 cart.    s(19) = (  0.0000000  0.0000000 -1.0000000 )
                  (  0.0000000 -1.0000000  0.0000000 )
                  (  1.0000000 -0.0000000  0.0000000 )


      isym = 20     inv.  90 deg rotation - cart. axis [0,-1,0]  

 cryst.   s(20) = (    -1          1          0      )
                  (    -1          0          1      )
                  (    -1          0          0      )

 cart.    s(20) = ( -0.0000000  0.0000000  1.0000000 )
                  ( -0.0000000 -1.0000000 -0.0000000 )
                  ( -1.0000000 -0.0000000 -0.0000000 )


      isym = 21     inv. 180 deg rotation - cart. axis [0,1,1]   

 cryst.   s(21) = (    -1          0          0      )
                  (    -1          1          0      )
                  (    -1          0          1      )

 cart.    s(21) = (  1.0000000 -0.0000000  0.0000000 )
                  ( -0.0000000 -0.0000000 -1.0000000 )
                  ( -0.0000000 -1.0000000 -0.0000000 )


      isym = 22     inv. 180 deg rotation - cart. axis [0,1,-1]  

 cryst.   s(22) = (     1          0          0      )
                  (     0          0          1      )
                  (     0          1          0      )

 cart.    s(22) = (  1.0000000  0.0000000 -0.0000000 )
                  ( -0.0000000  0.0000000  1.0000000 )
                  ( -0.0000000  1.0000000  0.0000000 )


      isym = 23     inv.  90 deg rotation - cart. axis [-1,0,0]  

 cryst.   s(23) = (     0          1         -1      )
                  (     0          0         -1      )
                  (     1          0         -1      )

 cart.    s(23) = ( -1.0000000  0.0000000  0.0000000 )
                  (  0.0000000  0.0000000 -1.0000000 )
                  (  0.0000000  1.0000000 -0.0000000 )


      isym = 24     inv.  90 deg rotation - cart. axis [1,0,0]   

 cryst.   s(24) = (     0         -1          1      )
                  (     1         -1          0      )
                  (     0         -1          0      )

 cart.    s(24) = ( -1.0000000 -0.0000000 -0.0000000 )
                  (  0.0000000 -0.0000000  1.0000000 )
                  (  0.0000000 -1.0000000  0.0000000 )


   Cartesian axes

     site n.     atom                  positions (alat units)
         1        Ti     tau(   1) = (   0.3535534   0.3535534   0.3535534  )
         2        V      tau(   2) = (   0.7071068   0.0000000   0.0000000  )
         3        Cr     tau(   3) = (   0.0000000   0.0000000   0.0000000  )
         4        In     tau(   4) = (   0.3535534   0.3535534   1.0606602  )

   Crystallographic axes

     site n.     atom                  positions (cryst. coord.)
         1        Ti     tau(   1) = (  0.2500000  0.2500000  0.2500000  )
         2        V      tau(   2) = ( -0.5000000  0.5000000  0.5000000  )
         3        Cr     tau(   3) = (  0.0000000  0.0000000  0.0000000  )
         4        In     tau(   4) = (  0.7500000  0.7500000 -0.2500000  )

     number of k points=    72  Marzari-Vanderbilt smearing, width (Ry)=  0.0200
                       cart. coord. in units 2pi/alat
        k(    1) = (   0.0000000   0.0000000   0.0000000), wk =   0.0005787
        k(    2) = (   0.0589256   0.0589256  -0.0589256), wk =   0.0046296
        k(    3) = (   0.1178511   0.1178511  -0.1178511), wk =   0.0046296
        k(    4) = (   0.1767767   0.1767767  -0.1767767), wk =   0.0046296
        k(    5) = (   0.2357023   0.2357023  -0.2357023), wk =   0.0046296
        k(    6) = (   0.2946278   0.2946278  -0.2946278), wk =   0.0046296
        k(    7) = (  -0.3535534  -0.3535534   0.3535534), wk =   0.0023148
        k(    8) = (   0.1178511   0.0000000  -0.0000000), wk =   0.0034722
        k(    9) = (   0.1767767   0.0589256  -0.0589256), wk =   0.0138889
        k(   10) = (   0.2357023   0.1178511  -0.1178511), wk =   0.0138889
        k(   11) = (   0.2946278   0.1767767  -0.1767767), wk =   0.0138889
        k(   12) = (   0.3535534   0.2357023  -0.2357023), wk =   0.0138889
        k(   13) = (  -0.2946278  -0.4124790   0.4124790), wk =   0.0138889
        k(   14) = (  -0.2357023  -0.3535534   0.3535534), wk =   0.0138889
        k(   15) = (  -0.1767767  -0.2946278   0.2946278), wk =   0.0138889
        k(   16) = (  -0.1178511  -0.2357023   0.2357023), wk =   0.0138889
        k(   17) = (  -0.0589256  -0.1767767   0.1767767), wk =   0.0138889
        k(   18) = (  -0.0000000  -0.1178511   0.1178511), wk =   0.0069444
        k(   19) = (   0.2357023   0.0000000  -0.0000000), wk =   0.0034722
        k(   20) = (   0.2946278   0.0589256  -0.0589256), wk =   0.0138889
        k(   21) = (   0.3535534   0.1178511  -0.1178511), wk =   0.0138889
        k(   22) = (   0.4124790   0.1767767  -0.1767767), wk =   0.0138889
        k(   23) = (  -0.2357023  -0.4714045   0.4714045), wk =   0.0138889
        k(   24) = (  -0.1767767  -0.4124790   0.4124790), wk =   0.0138889
        k(   25) = (  -0.1178511  -0.3535534   0.3535534), wk =   0.0138889
        k(   26) = (  -0.0589256  -0.2946278   0.2946278), wk =   0.0138889
        k(   27) = (   0.0000000  -0.2357023   0.2357023), wk =   0.0069444
        k(   28) = (   0.3535534   0.0000000   0.0000000), wk =   0.0034722
        k(   29) = (   0.4124790   0.0589256  -0.0589256), wk =   0.0138889
        k(   30) = (   0.4714045   0.1178511  -0.1178511), wk =   0.0138889
        k(   31) = (  -0.1767767  -0.5303301   0.5303301), wk =   0.0138889
        k(   32) = (  -0.1178511  -0.4714045   0.4714045), wk =   0.0138889
        k(   33) = (  -0.0589256  -0.4124790   0.4124790), wk =   0.0138889
        k(   34) = (   0.0000000  -0.3535534   0.3535534), wk =   0.0069444
        k(   35) = (   0.4714045   0.0000000  -0.0000000), wk =   0.0034722
        k(   36) = (   0.5303301   0.0589256  -0.0589256), wk =   0.0138889
        k(   37) = (  -0.1178511  -0.5892557   0.5892557), wk =   0.0138889
        k(   38) = (  -0.0589256  -0.5303301   0.5303301), wk =   0.0138889
        k(   39) = (  -0.0000000  -0.4714045   0.4714045), wk =   0.0069444
        k(   40) = (   0.5892557   0.0000000  -0.0000000), wk =   0.0034722
        k(   41) = (  -0.0589256  -0.6481812   0.6481812), wk =   0.0138889
        k(   42) = (   0.0000000  -0.5892557   0.5892557), wk =   0.0069444
        k(   43) = (  -0.7071068   0.0000000   0.0000000), wk =   0.0017361
        k(   44) = (   0.2357023   0.1178511   0.0000000), wk =   0.0138889
        k(   45) = (   0.2946278   0.1767767  -0.0589256), wk =   0.0277778
        k(   46) = (   0.3535534   0.2357023  -0.1178511), wk =   0.0277778
        k(   47) = (  -0.2946278  -0.4124790   0.5303301), wk =   0.0277778
        k(   48) = (  -0.2357023  -0.3535534   0.4714045), wk =   0.0138889
        k(   49) = (   0.3535534   0.1178511   0.0000000), wk =   0.0138889
        k(   50) = (   0.4124790   0.1767767  -0.0589256), wk =   0.0277778
        k(   51) = (  -0.2357023  -0.4714045   0.5892557), wk =   0.0277778
        k(   52) = (  -0.1767767  -0.4124790   0.5303301), wk =   0.0277778
        k(   53) = (  -0.1178511  -0.3535534   0.4714045), wk =   0.0277778
        k(   54) = (  -0.0589256  -0.2946278   0.4124790), wk =   0.0277778
        k(   55) = (   0.0000000  -0.2357023   0.3535534), wk =   0.0138889
        k(   56) = (   0.4714045   0.1178511  -0.0000000), wk =   0.0138889
        k(   57) = (  -0.1767767  -0.5303301   0.6481812), wk =   0.0277778
        k(   58) = (  -0.1178511  -0.4714045   0.5892557), wk =   0.0277778
        k(   59) = (  -0.0589256  -0.4124790   0.5303301), wk =   0.0277778
        k(   60) = (  -0.0000000  -0.3535534   0.4714045), wk =   0.0138889
        k(   61) = (  -0.1178511  -0.5892557   0.7071068), wk =   0.0138889
        k(   62) = (  -0.0589256  -0.5303301   0.6481812), wk =   0.0277778
        k(   63) = (  -0.0000000  -0.4714045   0.5892557), wk =   0.0138889
        k(   64) = (  -0.7071068   0.1178511  -0.0000000), wk =   0.0069444
        k(   65) = (  -0.2357023  -0.4714045   0.7071068), wk =   0.0138889
        k(   66) = (  -0.1767767  -0.4124790   0.6481812), wk =   0.0277778
        k(   67) = (  -0.1178511  -0.3535534   0.5892557), wk =   0.0138889
        k(   68) = (  -0.1178511  -0.4714045   0.7071068), wk =   0.0138889
        k(   69) = (  -0.0589256  -0.4124790   0.6481812), wk =   0.0277778
        k(   70) = (   0.0000000  -0.3535534   0.5892557), wk =   0.0138889
        k(   71) = (  -0.7071068   0.2357023   0.0000000), wk =   0.0069444
        k(   72) = (  -0.7071068   0.3535534   0.0000000), wk =   0.0034722

                       cryst. coord.
        k(    1) = (   0.0000000   0.0000000   0.0000000), wk =   0.0005787
        k(    2) = (   0.0000000   0.0000000   0.0833333), wk =   0.0046296
        k(    3) = (   0.0000000   0.0000000   0.1666667), wk =   0.0046296
        k(    4) = (   0.0000000   0.0000000   0.2500000), wk =   0.0046296
        k(    5) = (   0.0000000   0.0000000   0.3333333), wk =   0.0046296
        k(    6) = (  -0.0000000  -0.0000000   0.4166667), wk =   0.0046296
        k(    7) = (  -0.0000000  -0.0000000  -0.5000000), wk =   0.0023148
        k(    8) = (  -0.0000000   0.0833333   0.0833333), wk =   0.0034722
        k(    9) = (   0.0000000   0.0833333   0.1666667), wk =   0.0138889
        k(   10) = (  -0.0000000   0.0833333   0.2500000), wk =   0.0138889
        k(   11) = (   0.0000000   0.0833333   0.3333333), wk =   0.0138889
        k(   12) = (  -0.0000000   0.0833333   0.4166667), wk =   0.0138889
        k(   13) = (  -0.0000000   0.0833333  -0.5000000), wk =   0.0138889
        k(   14) = (  -0.0000000   0.0833333  -0.4166667), wk =   0.0138889
        k(   15) = (  -0.0000000   0.0833333  -0.3333333), wk =   0.0138889
        k(   16) = (  -0.0000000   0.0833333  -0.2500000), wk =   0.0138889
        k(   17) = (  -0.0000000   0.0833333  -0.1666667), wk =   0.0138889
        k(   18) = (   0.0000000   0.0833333  -0.0833333), wk =   0.0069444
        k(   19) = (  -0.0000000   0.1666667   0.1666667), wk =   0.0034722
        k(   20) = (  -0.0000000   0.1666667   0.2500000), wk =   0.0138889
        k(   21) = (   0.0000000   0.1666667   0.3333333), wk =   0.0138889
        k(   22) = (  -0.0000000   0.1666667   0.4166667), wk =   0.0138889
        k(   23) = (  -0.0000000   0.1666667  -0.5000000), wk =   0.0138889
        k(   24) = (  -0.0000000   0.1666667  -0.4166667), wk =   0.0138889
        k(   25) = (  -0.0000000   0.1666667  -0.3333333), wk =   0.0138889
        k(   26) = (   0.0000000   0.1666667  -0.2500000), wk =   0.0138889
        k(   27) = (  -0.0000000   0.1666667  -0.1666667), wk =   0.0069444
        k(   28) = (   0.0000000   0.2500000   0.2500000), wk =   0.0034722
        k(   29) = (   0.0000000   0.2500000   0.3333333), wk =   0.0138889
        k(   30) = (  -0.0000000   0.2500000   0.4166667), wk =   0.0138889
        k(   31) = (   0.0000000   0.2500000  -0.5000000), wk =   0.0138889
        k(   32) = (  -0.0000000   0.2500000  -0.4166667), wk =   0.0138889
        k(   33) = (  -0.0000000   0.2500000  -0.3333333), wk =   0.0138889
        k(   34) = (  -0.0000000   0.2500000  -0.2500000), wk =   0.0069444
        k(   35) = (  -0.0000000   0.3333333   0.3333333), wk =   0.0034722
        k(   36) = (  -0.0000000   0.3333333   0.4166667), wk =   0.0138889
        k(   37) = (   0.0000000   0.3333333  -0.5000000), wk =   0.0138889
        k(   38) = (  -0.0000000   0.3333333  -0.4166667), wk =   0.0138889
        k(   39) = (   0.0000000   0.3333333  -0.3333333), wk =   0.0069444
        k(   40) = (   0.0000000   0.4166667   0.4166667), wk =   0.0034722
        k(   41) = (  -0.0000000   0.4166667  -0.5000000), wk =   0.0138889
        k(   42) = (   0.0000000   0.4166667  -0.4166667), wk =   0.0069444
        k(   43) = (   0.0000000  -0.5000000  -0.5000000), wk =   0.0017361
        k(   44) = (   0.0833333   0.1666667   0.2500000), wk =   0.0138889
        k(   45) = (   0.0833333   0.1666667   0.3333333), wk =   0.0277778
        k(   46) = (   0.0833333   0.1666667   0.4166667), wk =   0.0277778
        k(   47) = (   0.0833333   0.1666667  -0.5000000), wk =   0.0277778
        k(   48) = (   0.0833333   0.1666667  -0.4166667), wk =   0.0138889
        k(   49) = (   0.0833333   0.2500000   0.3333333), wk =   0.0138889
        k(   50) = (   0.0833333   0.2500000   0.4166667), wk =   0.0277778
        k(   51) = (   0.0833333   0.2500000  -0.5000000), wk =   0.0277778
        k(   52) = (   0.0833333   0.2500000  -0.4166667), wk =   0.0277778
        k(   53) = (   0.0833333   0.2500000  -0.3333333), wk =   0.0277778
        k(   54) = (   0.0833333   0.2500000  -0.2500000), wk =   0.0277778
        k(   55) = (   0.0833333   0.2500000  -0.1666667), wk =   0.0138889
        k(   56) = (   0.0833333   0.3333333   0.4166667), wk =   0.0138889
        k(   57) = (   0.0833333   0.3333333  -0.5000000), wk =   0.0277778
        k(   58) = (   0.0833333   0.3333333  -0.4166667), wk =   0.0277778
        k(   59) = (   0.0833333   0.3333333  -0.3333333), wk =   0.0277778
        k(   60) = (   0.0833333   0.3333333  -0.2500000), wk =   0.0138889
        k(   61) = (   0.0833333   0.4166667  -0.5000000), wk =   0.0138889
        k(   62) = (   0.0833333   0.4166667  -0.4166667), wk =   0.0277778
        k(   63) = (   0.0833333   0.4166667  -0.3333333), wk =   0.0138889
        k(   64) = (   0.0833333  -0.5000000  -0.4166667), wk =   0.0069444
        k(   65) = (   0.1666667   0.3333333  -0.5000000), wk =   0.0138889
        k(   66) = (   0.1666667   0.3333333  -0.4166667), wk =   0.0277778
        k(   67) = (   0.1666667   0.3333333  -0.3333333), wk =   0.0138889
        k(   68) = (   0.1666667   0.4166667  -0.4166667), wk =   0.0138889
        k(   69) = (   0.1666667   0.4166667  -0.3333333), wk =   0.0277778
        k(   70) = (   0.1666667   0.4166667  -0.2500000), wk =   0.0138889
        k(   71) = (   0.1666667  -0.5000000  -0.3333333), wk =   0.0069444
        k(   72) = (   0.2500000  -0.5000000  -0.2500000), wk =   0.0034722

     Dense  grid:    55369 G-vectors     FFT dimensions: (  54,  54,  54)

     Smooth grid:    19603 G-vectors     FFT dimensions: (  40,  40,  40)

     Dynamical RAM for                 wfc:       0.16 MB

     Dynamical RAM for     wfc (w. buffer):       3.58 MB

     Dynamical RAM for           str. fact:       0.42 MB

     Dynamical RAM for           local pot:       0.00 MB

     Dynamical RAM for          nlocal pot:       0.34 MB

     Dynamical RAM for                qrad:       6.42 MB

     Dynamical RAM for          rho,v,vnew:       1.57 MB

     Dynamical RAM for               rhoin:       0.52 MB

     Dynamical RAM for            rho*nmix:       3.38 MB

     Dynamical RAM for           G-vectors:       0.41 MB

     Dynamical RAM for          h,s,v(r/c):       0.22 MB

     Dynamical RAM for          <psi|beta>:       0.04 MB

     Dynamical RAM for                 phi:       0.65 MB

     Dynamical RAM for                hphi:       0.65 MB

     Dynamical RAM for                sphi:       0.65 MB

     Dynamical RAM for                hpsi:       0.16 MB

     Dynamical RAM for                spsi:       0.16 MB

     Dynamical RAM for                kpsi:       0.16 MB

     Dynamical RAM for               hkpsi:       0.16 MB

     Dynamical RAM for               skpsi:       0.16 MB

     Dynamical RAM for      wfcinit/wfcrot:       0.40 MB

     Dynamical RAM for           addusdens:       3.02 MB

     Dynamical RAM for          addusforce:       2.93 MB

     Dynamical RAM for         addusstress:       3.14 MB

     Estimated static dynamical RAM per process >      14.73 MB

     Estimated max dynamical RAM per process >      21.25 MB

     Estimated total dynamical RAM >       1.00 GB

     Check: negative core charge=   -0.000004
     Generating pointlists ...
     new r_m :   0.2526 (alat units)  2.1062 (a.u.) for type    1
     new r_m :   0.2526 (alat units)  2.1062 (a.u.) for type    2
     new r_m :   0.2526 (alat units)  2.1062 (a.u.) for type    3
     new r_m :   0.2526 (alat units)  2.1062 (a.u.) for type    4

     The initial density is read from file :
     ./out/aiida.save/charge-density


     negative rho (up, down):  4.633E-04 2.093E-03
     Starting wfcs are   39 randomized atomic wfcs

     total cpu time spent up to now is        1.6 secs

     per-process dynamical memory:    26.2 Mb

     Self-consistent Calculation

     iteration #  1     ecut=    50.00 Ry     beta= 0.40
     ParO style diagonalization

---- Real-time Memory Report at c_bands before calling an iterative solver
            63 MiB given to the printing process from OS
            25 MiB allocation reported by mallinfo(arena+hblkhd)
        485387 MiB available memory on the node where the printing process lives
------------------
     ethr =  1.00E-05,  avg # of iterations = 12.2

     negative rho (up, down):  4.832E-04 1.916E-03

     total cpu time spent up to now is        4.6 secs

     total energy              =    -583.84119898 Ry
     estimated scf accuracy    <       0.00089046 Ry

     total magnetization       =     3.29 Bohr mag/cell
     absolute magnetization    =     3.42 Bohr mag/cell

     iteration #  2     ecut=    50.00 Ry     beta= 0.40
     RMM-DIIS diagonalization

---- Real-time Memory Report at c_bands before calling an iterative solver
            70 MiB given to the printing process from OS
            31 MiB allocation reported by mallinfo(arena+hblkhd)
        485074 MiB available memory on the node where the printing process lives
------------------
     ethr =  1.71E-06,  avg # of iterations =  2.7

     negative rho (up, down):  4.850E-04 1.898E-03

     total cpu time spent up to now is        5.2 secs

     total energy              =    -583.84135082 Ry
     estimated scf accuracy    <       0.00920371 Ry

     total magnetization       =     3.06 Bohr mag/cell
     absolute magnetization    =     3.20 Bohr mag/cell

     iteration #  3     ecut=    50.00 Ry     beta= 0.40
     RMM-DIIS diagonalization

---- Real-time Memory Report at c_bands before calling an iterative solver
            71 MiB given to the printing process from OS
            31 MiB allocation reported by mallinfo(arena+hblkhd)
        485067 MiB available memory on the node where the printing process lives
------------------
     ethr =  1.71E-06,  avg # of iterations =  2.5

     negative rho (up, down):  4.889E-04 1.870E-03

     total cpu time spent up to now is        5.7 secs

     total energy              =    -583.84165134 Ry
     estimated scf accuracy    <       0.00164734 Ry

     total magnetization       =     3.13 Bohr mag/cell
     absolute magnetization    =     3.26 Bohr mag/cell

     iteration #  4     ecut=    50.00 Ry     beta= 0.40
     RMM-DIIS diagonalization

---- Real-time Memory Report at c_bands before calling an iterative solver
            71 MiB given to the printing process from OS
            31 MiB allocation reported by mallinfo(arena+hblkhd)
        485064 MiB available memory on the node where the printing process lives
------------------
     ethr =  1.71E-06,  avg # of iterations =  2.5

     negative rho (up, down):  5.467E-04 1.708E-03

     total cpu time spent up to now is        6.2 secs

     total energy              =    -583.84239626 Ry
     estimated scf accuracy    <       0.00196251 Ry

     total magnetization       =     3.12 Bohr mag/cell
     absolute magnetization    =     3.25 Bohr mag/cell

     iteration #  5     ecut=    50.00 Ry     beta= 0.40
     RMM-DIIS diagonalization

---- Real-time Memory Report at c_bands before calling an iterative solver
            71 MiB given to the printing process from OS
            32 MiB allocation reported by mallinfo(arena+hblkhd)
        485061 MiB available memory on the node where the printing process lives
------------------
     ethr =  1.71E-06,  avg # of iterations =  2.9

     negative rho (up, down):  6.597E-04 1.661E-03

     total cpu time spent up to now is        6.8 secs

     total energy              =    -583.84184135 Ry
     estimated scf accuracy    <       0.00070852 Ry

     total magnetization       =     2.87 Bohr mag/cell
     absolute magnetization    =     3.01 Bohr mag/cell

     iteration #  6     ecut=    50.00 Ry     beta= 0.40
     ParO style diagonalization

---- Real-time Memory Report at c_bands before calling an iterative solver
            72 MiB given to the printing process from OS
            32 MiB allocation reported by mallinfo(arena+hblkhd)
        485055 MiB available memory on the node where the printing process lives
------------------
     ethr =  1.36E-06,  avg # of iterations =  7.4

     negative rho (up, down):  4.373E-04 2.212E-03

     total cpu time spent up to now is        8.9 secs

     total energy              =    -583.82013741 Ry
     estimated scf accuracy    <       0.00101058 Ry

     total magnetization       =     2.24 Bohr mag/cell
     absolute magnetization    =     2.49 Bohr mag/cell

     iteration #  7     ecut=    50.00 Ry     beta= 0.40
     RMM-DIIS diagonalization

---- Real-time Memory Report at c_bands before calling an iterative solver
            72 MiB given to the printing process from OS
            32 MiB allocation reported by mallinfo(arena+hblkhd)
        485053 MiB available memory on the node where the printing process lives
------------------
     ethr =  1.36E-06,  avg # of iterations =  4.0

     negative rho (up, down):  4.931E-04 1.873E-03

     total cpu time spent up to now is        9.6 secs

     total energy              =    -583.84082330 Ry
     estimated scf accuracy    <       0.00210994 Ry

     total magnetization       =     3.41 Bohr mag/cell
     absolute magnetization    =     3.52 Bohr mag/cell

     iteration #  8     ecut=    50.00 Ry     beta= 0.40
     RMM-DIIS diagonalization

---- Real-time Memory Report at c_bands before calling an iterative solver
            72 MiB given to the printing process from OS
            32 MiB allocation reported by mallinfo(arena+hblkhd)
        485049 MiB available memory on the node where the printing process lives
------------------
     ethr =  1.36E-06,  avg # of iterations =  2.9

     negative rho (up, down):  5.815E-04 1.856E-03

     total cpu time spent up to now is       10.2 secs

     total energy              =    -583.84172221 Ry
     estimated scf accuracy    <       0.00145941 Ry

     total magnetization       =     3.19 Bohr mag/cell
     absolute magnetization    =     3.31 Bohr mag/cell

     iteration #  9     ecut=    50.00 Ry     beta= 0.40
     RMM-DIIS diagonalization

---- Real-time Memory Report at c_bands before calling an iterative solver
            72 MiB given to the printing process from OS
            32 MiB allocation reported by mallinfo(arena+hblkhd)
        485048 MiB available memory on the node where the printing process lives
------------------
     ethr =  1.36E-06,  avg # of iterations =  3.0

     negative rho (up, down):  6.068E-04 1.899E-03

     total cpu time spent up to now is       10.8 secs

     total energy              =    -583.84507353 Ry
     estimated scf accuracy    <       0.00057985 Ry

     total magnetization       =     2.73 Bohr mag/cell
     absolute magnetization    =     2.89 Bohr mag/cell

     iteration # 10     ecut=    50.00 Ry     beta= 0.40
     RMM-DIIS diagonalization

---- Real-time Memory Report at c_bands before calling an iterative solver
            73 MiB given to the printing process from OS
            32 MiB allocation reported by mallinfo(arena+hblkhd)
        485046 MiB available memory on the node where the printing process lives
------------------
     ethr =  1.12E-06,  avg # of iterations =  2.8

     negative rho (up, down):  6.168E-04 1.914E-03

     total cpu time spent up to now is       11.4 secs

     total energy              =    -583.84567603 Ry
     estimated scf accuracy    <       0.00066450 Ry

     total magnetization       =     2.59 Bohr mag/cell
     absolute magnetization    =     2.78 Bohr mag/cell

     iteration # 11     ecut=    50.00 Ry     beta= 0.40
     ParO style diagonalization

---- Real-time Memory Report at c_bands before calling an iterative solver
            73 MiB given to the printing process from OS
            32 MiB allocation reported by mallinfo(arena+hblkhd)
        485045 MiB available memory on the node where the printing process lives
------------------
     ethr =  1.12E-06,  avg # of iterations =  4.9

     negative rho (up, down):  6.276E-04 1.798E-03

     total cpu time spent up to now is       12.8 secs

     total energy              =    -583.84598900 Ry
     estimated scf accuracy    <       0.00087026 Ry

     total magnetization       =     2.53 Bohr mag/cell
     absolute magnetization    =     2.74 Bohr mag/cell

     iteration # 12     ecut=    50.00 Ry     beta= 0.40
     RMM-DIIS diagonalization

---- Real-time Memory Report at c_bands before calling an iterative solver
            73 MiB given to the printing process from OS
            32 MiB allocation reported by mallinfo(arena+hblkhd)
        485040 MiB available memory on the node where the printing process lives
------------------
     ethr =  1.12E-06,  avg # of iterations =  2.5

     negative rho (up, down):  5.081E-04 1.677E-03

     total cpu time spent up to now is       13.3 secs

     total energy              =    -583.83598772 Ry
     estimated scf accuracy    <       0.00102277 Ry

     total magnetization       =     2.45 Bohr mag/cell
     absolute magnetization    =     2.66 Bohr mag/cell

     iteration # 13     ecut=    50.00 Ry     beta= 0.40
     RMM-DIIS diagonalization

---- Real-time Memory Report at c_bands before calling an iterative solver
            73 MiB given to the printing process from OS
            32 MiB allocation reported by mallinfo(arena+hblkhd)
        485039 MiB available memory on the node where the printing process lives
------------------
     ethr =  1.12E-06,  avg # of iterations =  3.6

     negative rho (up, down):  4.980E-04 1.721E-03

     total cpu time spent up to now is       14.1 secs

     total energy              =    -583.84167245 Ry
     estimated scf accuracy    <       0.00096064 Ry

     total magnetization       =     3.07 Bohr mag/cell
     absolute magnetization    =     3.19 Bohr mag/cell

     iteration # 14     ecut=    50.00 Ry     beta= 0.40
     RMM-DIIS diagonalization

---- Real-time Memory Report at c_bands before calling an iterative solver
            73 MiB given to the printing process from OS
            32 MiB allocation reported by mallinfo(arena+hblkhd)
        485038 MiB available memory on the node where the printing process lives
------------------
     ethr =  1.12E-06,  avg # of iterations =  2.9

     negative rho (up, down):  5.904E-04 1.842E-03

     total cpu time spent up to now is       14.7 secs

     total energy              =    -583.84143098 Ry
     estimated scf accuracy    <       0.00085759 Ry

     total magnetization       =     3.11 Bohr mag/cell
     absolute magnetization    =     3.23 Bohr mag/cell

     iteration # 15     ecut=    50.00 Ry     beta= 0.40
     RMM-DIIS diagonalization

---- Real-time Memory Report at c_bands before calling an iterative solver
            73 MiB given to the printing process from OS
            32 MiB allocation reported by mallinfo(arena+hblkhd)
        485035 MiB available memory on the node where the printing process lives
------------------
     ethr =  1.12E-06,  avg # of iterations =  3.1

     negative rho (up, down):  6.279E-04 1.930E-03

     total cpu time spent up to now is       15.3 secs

     total energy              =    -583.84543672 Ry
     estimated scf accuracy    <       0.00048144 Ry

     total magnetization       =     2.66 Bohr mag/cell
     absolute magnetization    =     2.83 Bohr mag/cell

     iteration # 16     ecut=    50.00 Ry     beta= 0.40
     ParO style diagonalization

---- Real-time Memory Report at c_bands before calling an iterative solver
            73 MiB given to the printing process from OS
            32 MiB allocation reported by mallinfo(arena+hblkhd)
        485035 MiB available memory on the node where the printing process lives
------------------
     ethr =  9.26E-07,  avg # of iterations =  5.2

     negative rho (up, down):  6.703E-04 2.088E-03

     total cpu time spent up to now is       16.7 secs

     total energy              =    -583.84694273 Ry
     estimated scf accuracy    <       0.00073818 Ry

     total magnetization       =     2.45 Bohr mag/cell
     absolute magnetization    =     2.69 Bohr mag/cell

     iteration # 17     ecut=    50.00 Ry     beta= 0.40
     RMM-DIIS diagonalization

---- Real-time Memory Report at c_bands before calling an iterative solver
            73 MiB given to the printing process from OS
            32 MiB allocation reported by mallinfo(arena+hblkhd)
        485033 MiB available memory on the node where the printing process lives
------------------
     ethr =  9.26E-07,  avg # of iterations =  2.9

     negative rho (up, down):  6.202E-04 1.954E-03

     total cpu time spent up to now is       17.3 secs

     total energy              =    -583.84476705 Ry
     estimated scf accuracy    <       0.00117115 Ry

     total magnetization       =     2.20 Bohr mag/cell
     absolute magnetization    =     2.58 Bohr mag/cell

     iteration # 18     ecut=    50.00 Ry     beta= 0.40
     RMM-DIIS diagonalization

---- Real-time Memory Report at c_bands before calling an iterative solver
            73 MiB given to the printing process from OS
            32 MiB allocation reported by mallinfo(arena+hblkhd)
        485033 MiB available memory on the node where the printing process lives
------------------
     ethr =  9.26E-07,  avg # of iterations =  2.7

     negative rho (up, down):  5.890E-04 1.925E-03

     total cpu time spent up to now is       17.9 secs

     total energy              =    -583.84446842 Ry
     estimated scf accuracy    <       0.00085125 Ry

     total magnetization       =     2.50 Bohr mag/cell
     absolute magnetization    =     2.73 Bohr mag/cell

     iteration # 19     ecut=    50.00 Ry     beta= 0.40
     RMM-DIIS diagonalization

---- Real-time Memory Report at c_bands before calling an iterative solver
            73 MiB given to the printing process from OS
            32 MiB allocation reported by mallinfo(arena+hblkhd)
        485033 MiB available memory on the node where the printing process lives
------------------
     ethr =  9.26E-07,  avg # of iterations =  2.8

     negative rho (up, down):  5.169E-04 1.784E-03

     total cpu time spent up to now is       18.4 secs

     total energy              =    -583.84019640 Ry
     estimated scf accuracy    <       0.00072770 Ry

     total magnetization       =     2.68 Bohr mag/cell
     absolute magnetization    =     2.85 Bohr mag/cell

     iteration # 20     ecut=    50.00 Ry     beta= 0.40
     RMM-DIIS diagonalization

---- Real-time Memory Report at c_bands before calling an iterative solver
            73 MiB given to the printing process from OS
            32 MiB allocation reported by mallinfo(arena+hblkhd)
        485033 MiB available memory on the node where the printing process lives
------------------
     ethr =  9.26E-07,  avg # of iterations =  3.4

     negative rho (up, down):  4.961E-04 1.804E-03

     total cpu time spent up to now is       19.1 secs

     total energy              =    -583.84155706 Ry
     estimated scf accuracy    <       0.00075880 Ry

     total magnetization       =     3.05 Bohr mag/cell
     absolute magnetization    =     3.17 Bohr mag/cell

     iteration # 21     ecut=    50.00 Ry     beta= 0.40
     ParO style diagonalization

---- Real-time Memory Report at c_bands before calling an iterative solver
            73 MiB given to the printing process from OS
            32 MiB allocation reported by mallinfo(arena+hblkhd)
        485032 MiB available memory on the node where the printing process lives
------------------
     ethr =  9.26E-07,  avg # of iterations =  6.7

     negative rho (up, down):  6.714E-04 2.096E-03

     total cpu time spent up to now is       21.1 secs

     total energy              =    -583.83500084 Ry
     estimated scf accuracy    <       0.00069238 Ry

     total magnetization       =     3.13 Bohr mag/cell
     absolute magnetization    =     3.26 Bohr mag/cell

     iteration # 22     ecut=    50.00 Ry     beta= 0.40
     RMM-DIIS diagonalization

---- Real-time Memory Report at c_bands before calling an iterative solver
            73 MiB given to the printing process from OS
            32 MiB allocation reported by mallinfo(arena+hblkhd)
        485032 MiB available memory on the node where the printing process lives
------------------
     ethr =  9.26E-07,  avg # of iterations =  4.0

     negative rho (up, down):  2.996E-04 3.273E-03

     total cpu time spent up to now is       21.9 secs

     total energy              =    -583.76870402 Ry
     estimated scf accuracy    <       0.00085964 Ry

     total magnetization       =     2.20 Bohr mag/cell
     absolute magnetization    =     2.59 Bohr mag/cell

     iteration # 23     ecut=    50.00 Ry     beta= 0.40
     RMM-DIIS diagonalization

---- Real-time Memory Report at c_bands before calling an iterative solver
            73 MiB given to the printing process from OS
            32 MiB allocation reported by mallinfo(arena+hblkhd)
        485030 MiB available memory on the node where the printing process lives
------------------
     ethr =  9.26E-07,  avg # of iterations =  4.4

     negative rho (up, down):  6.888E-04 2.116E-03

     total cpu time spent up to now is       22.7 secs

     total energy              =    -583.79941867 Ry
     estimated scf accuracy    <       0.00419413 Ry

     total magnetization       =     3.73 Bohr mag/cell
     absolute magnetization    =     3.83 Bohr mag/cell

     iteration # 24     ecut=    50.00 Ry     beta= 0.40
     RMM-DIIS diagonalization

---- Real-time Memory Report at c_bands before calling an iterative solver
            73 MiB given to the printing process from OS
            32 MiB allocation reported by mallinfo(arena+hblkhd)
        485023 MiB available memory on the node where the printing process lives
------------------
     ethr =  9.26E-07,  avg # of iterations =  4.4

     negative rho (up, down):  6.693E-04 2.076E-03

     total cpu time spent up to now is       23.6 secs

     total energy              =    -583.84741389 Ry
     estimated scf accuracy    <       0.00086538 Ry

     total magnetization       =     2.10 Bohr mag/cell
     absolute magnetization    =     2.56 Bohr mag/cell

     iteration # 25     ecut=    50.00 Ry     beta= 0.40
     RMM-DIIS diagonalization

---- Real-time Memory Report at c_bands before calling an iterative solver
            73 MiB given to the printing process from OS
            32 MiB allocation reported by mallinfo(arena+hblkhd)
        485023 MiB available memory on the node where the printing process lives
------------------
     ethr =  9.26E-07,  avg # of iterations =  3.4

     negative rho (up, down):  6.348E-04 2.012E-03

     total cpu time spent up to now is       24.3 secs

     total energy              =    -583.84591297 Ry
     estimated scf accuracy    <       0.00088701 Ry

     total magnetization       =     2.20 Bohr mag/cell
     absolute magnetization    =     2.58 Bohr mag/cell

     iteration # 26     ecut=    50.00 Ry     beta= 0.40
     ParO style diagonalization

---- Real-time Memory Report at c_bands before calling an iterative solver
            73 MiB given to the printing process from OS
            32 MiB allocation reported by mallinfo(arena+hblkhd)
        485023 MiB available memory on the node where the printing process lives
------------------
     ethr =  9.26E-07,  avg # of iterations =  6.2

     negative rho (up, down):  5.710E-04 1.857E-03

     total cpu time spent up to now is       26.1 secs

     total energy              =    -583.84220933 Ry
     estimated scf accuracy    <       0.00079839 Ry

     total magnetization       =     2.41 Bohr mag/cell
     absolute magnetization    =     2.69 Bohr mag/cell

     iteration # 27     ecut=    50.00 Ry     beta= 0.40
     RMM-DIIS diagonalization

---- Real-time Memory Report at c_bands before calling an iterative solver
            73 MiB given to the printing process from OS
            32 MiB allocation reported by mallinfo(arena+hblkhd)
        485023 MiB available memory on the node where the printing process lives
------------------
     ethr =  9.26E-07,  avg # of iterations =  3.1

     negative rho (up, down):  7.822E-04 2.206E-03

     total cpu time spent up to now is       26.7 secs

     total energy              =    -583.83515161 Ry
     estimated scf accuracy    <       0.00064391 Ry

     total magnetization       =     2.78 Bohr mag/cell
     absolute magnetization    =     2.93 Bohr mag/cell

     iteration # 28     ecut=    50.00 Ry     beta= 0.40
     RMM-DIIS diagonalization

---- Real-time Memory Report at c_bands before calling an iterative solver
            74 MiB given to the printing process from OS
            32 MiB allocation reported by mallinfo(arena+hblkhd)
        485023 MiB available memory on the node where the printing process lives
------------------
     ethr =  9.26E-07,  avg # of iterations =  3.9

     negative rho (up, down):  6.446E-04 2.077E-03

     total cpu time spent up to now is       27.4 secs

     total energy              =    -583.83944587 Ry
     estimated scf accuracy    <       0.00332661 Ry

     total magnetization       =     1.52 Bohr mag/cell
     absolute magnetization    =     2.77 Bohr mag/cell

     iteration # 29     ecut=    50.00 Ry     beta= 0.40
     RMM-DIIS diagonalization

---- Real-time Memory Report at c_bands before calling an iterative solver
            74 MiB given to the printing process from OS
            32 MiB allocation reported by mallinfo(arena+hblkhd)
        485020 MiB available memory on the node where the printing process lives
------------------
     ethr =  9.26E-07,  avg # of iterations =  3.2

     negative rho (up, down):  5.627E-04 1.920E-03

     total cpu time spent up to now is       28.1 secs

     total energy              =    -583.84071466 Ry
     estimated scf accuracy    <       0.00095033 Ry

     total magnetization       =     2.35 Bohr mag/cell
     absolute magnetization    =     2.66 Bohr mag/cell

     iteration # 30     ecut=    50.00 Ry     beta= 0.40
     RMM-DIIS diagonalization

---- Real-time Memory Report at c_bands before calling an iterative solver
            74 MiB given to the printing process from OS
            32 MiB allocation reported by mallinfo(arena+hblkhd)
        485020 MiB available memory on the node where the printing process lives
------------------
     ethr =  9.26E-07,  avg # of iterations =  3.4

     negative rho (up, down):  5.548E-04 1.963E-03

     total cpu time spent up to now is       28.8 secs

     total energy              =    -583.84381517 Ry
     estimated scf accuracy    <       0.00064404 Ry

     total magnetization       =     2.83 Bohr mag/cell
     absolute magnetization    =     2.98 Bohr mag/cell

     iteration # 31     ecut=    50.00 Ry     beta= 0.40
     ParO style diagonalization

---- Real-time Memory Report at c_bands before calling an iterative solver
            74 MiB given to the printing process from OS
            32 MiB allocation reported by mallinfo(arena+hblkhd)
        485020 MiB available memory on the node where the printing process lives
------------------
     ethr =  9.26E-07,  avg # of iterations =  6.1

     negative rho (up, down):  5.403E-04 1.943E-03

     total cpu time spent up to now is       30.6 secs

     total energy              =    -583.84337115 Ry
     estimated scf accuracy    <       0.00055037 Ry

     total magnetization       =     2.88 Bohr mag/cell
     absolute magnetization    =     3.03 Bohr mag/cell

     iteration # 32     ecut=    50.00 Ry     beta= 0.40
     RMM-DIIS diagonalization

---- Real-time Memory Report at c_bands before calling an iterative solver
            74 MiB given to the printing process from OS
            32 MiB allocation reported by mallinfo(arena+hblkhd)
        485020 MiB available memory on the node where the printing process lives
------------------
     ethr =  9.26E-07,  avg # of iterations =  2.5

     negative rho (up, down):  3.293E-04 2.981E-03

     total cpu time spent up to now is       31.1 secs

     total energy              =    -583.81713149 Ry
     estimated scf accuracy    <       0.00057448 Ry

     total magnetization       =     2.95 Bohr mag/cell
     absolute magnetization    =     3.09 Bohr mag/cell

     iteration # 33     ecut=    50.00 Ry     beta= 0.40
     RMM-DIIS diagonalization

---- Real-time Memory Report at c_bands before calling an iterative solver
            74 MiB given to the printing process from OS
            32 MiB allocation reported by mallinfo(arena+hblkhd)
        485020 MiB available memory on the node where the printing process lives
------------------
     ethr =  9.26E-07,  avg # of iterations =  4.1

     negative rho (up, down):  5.224E-04 1.864E-03

     total cpu time spent up to now is       31.9 secs

     total energy              =    -583.83236325 Ry
     estimated scf accuracy    <       0.00298983 Ry

     total magnetization       =     3.71 Bohr mag/cell
     absolute magnetization    =     3.82 Bohr mag/cell

     iteration # 34     ecut=    50.00 Ry     beta= 0.40
     RMM-DIIS diagonalization

---- Real-time Memory Report at c_bands before calling an iterative solver
            74 MiB given to the printing process from OS
            32 MiB allocation reported by mallinfo(arena+hblkhd)
        485020 MiB available memory on the node where the printing process lives
------------------
     ethr =  9.26E-07,  avg # of iterations =  3.7

     negative rho (up, down):  4.988E-04 1.876E-03

     total cpu time spent up to now is       32.6 secs

     total energy              =    -583.84180060 Ry
     estimated scf accuracy    <       0.00050452 Ry

     total magnetization       =     3.03 Bohr mag/cell
     absolute magnetization    =     3.17 Bohr mag/cell

     iteration # 35     ecut=    50.00 Ry     beta= 0.40
     RMM-DIIS diagonalization

---- Real-time Memory Report at c_bands before calling an iterative solver
            74 MiB given to the printing process from OS
            32 MiB allocation reported by mallinfo(arena+hblkhd)
        485020 MiB available memory on the node where the printing process lives
------------------
     ethr =  9.26E-07,  avg # of iterations =  2.6

     negative rho (up, down):  4.993E-04 1.884E-03

     total cpu time spent up to now is       33.2 secs

     total energy              =    -583.84204599 Ry
     estimated scf accuracy    <       0.00062710 Ry

     total magnetization       =     3.13 Bohr mag/cell
     absolute magnetization    =     3.26 Bohr mag/cell

     iteration # 36     ecut=    50.00 Ry     beta= 0.40
     ParO style diagonalization

---- Real-time Memory Report at c_bands before calling an iterative solver
            74 MiB given to the printing process from OS
            32 MiB allocation reported by mallinfo(arena+hblkhd)
        485020 MiB available memory on the node where the printing process lives
------------------
     ethr =  9.26E-07,  avg # of iterations =  4.7

     negative rho (up, down):  4.950E-04 1.904E-03

     total cpu time spent up to now is       34.5 secs

     total energy              =    -583.84189096 Ry
     estimated scf accuracy    <       0.00064749 Ry

     total magnetization       =     3.13 Bohr mag/cell
     absolute magnetization    =     3.26 Bohr mag/cell

     iteration # 37     ecut=    50.00 Ry     beta= 0.40
     RMM-DIIS diagonalization

---- Real-time Memory Report at c_bands before calling an iterative solver
            74 MiB given to the printing process from OS
            32 MiB allocation reported by mallinfo(arena+hblkhd)
        485020 MiB available memory on the node where the printing process lives
------------------
     ethr =  9.26E-07,  avg # of iterations =  2.5

     negative rho (up, down):  6.873E-04 2.058E-03

     total cpu time spent up to now is       35.1 secs

     total energy              =    -583.83369087 Ry
     estimated scf accuracy    <       0.00067028 Ry

     total magnetization       =     3.15 Bohr mag/cell
     absolute magnetization    =     3.28 Bohr mag/cell

     iteration # 38     ecut=    50.00 Ry     beta= 0.40
     RMM-DIIS diagonalization

---- Real-time Memory Report at c_bands before calling an iterative solver
            74 MiB given to the printing process from OS
            32 MiB allocation reported by mallinfo(arena+hblkhd)
        485020 MiB available memory on the node where the printing process lives
------------------
     ethr =  9.26E-07,  avg # of iterations =  4.0

     negative rho (up, down):  8.064E-04 2.233E-03

     total cpu time spent up to now is       35.8 secs

     total energy              =    -583.84890254 Ry
     estimated scf accuracy    <       0.00098082 Ry

     total magnetization       =     2.07 Bohr mag/cell
     absolute magnetization    =     2.52 Bohr mag/cell

     iteration # 39     ecut=    50.00 Ry     beta= 0.40
     RMM-DIIS diagonalization

---- Real-time Memory Report at c_bands before calling an iterative solver
            74 MiB given to the printing process from OS
            32 MiB allocation reported by mallinfo(arena+hblkhd)
        485020 MiB available memory on the node where the printing process lives
------------------
     ethr =  9.26E-07,  avg # of iterations =  3.9

     negative rho (up, down):  8.481E-04 2.309E-03

     total cpu time spent up to now is       36.6 secs

     total energy              =    -583.85692396 Ry
     estimated scf accuracy    <       0.00434309 Ry

     total magnetization       =     1.37 Bohr mag/cell
     absolute magnetization    =     2.96 Bohr mag/cell

     iteration # 40     ecut=    50.00 Ry     beta= 0.40
     RMM-DIIS diagonalization

---- Real-time Memory Report at c_bands before calling an iterative solver
            74 MiB given to the printing process from OS
            32 MiB allocation reported by mallinfo(arena+hblkhd)
        485019 MiB available memory on the node where the printing process lives
------------------
     ethr =  9.26E-07,  avg # of iterations =  3.5

     negative rho (up, down):  5.629E-04 1.880E-03

     total cpu time spent up to now is       37.3 secs

     total energy              =    -583.80770009 Ry
     estimated scf accuracy    <       0.00816310 Ry

     total magnetization       =     1.14 Bohr mag/cell
     absolute magnetization    =     3.32 Bohr mag/cell

     iteration # 41     ecut=    50.00 Ry     beta= 0.40
     ParO style diagonalization

---- Real-time Memory Report at c_bands before calling an iterative solver
            74 MiB given to the printing process from OS
            32 MiB allocation reported by mallinfo(arena+hblkhd)
        485019 MiB available memory on the node where the printing process lives
------------------
     ethr =  9.26E-07,  avg # of iterations =  7.6

     negative rho (up, down):  5.565E-04 1.880E-03

     total cpu time spent up to now is       39.3 secs

     total energy              =    -583.84391502 Ry
     estimated scf accuracy    <       0.00053999 Ry

     total magnetization       =     2.82 Bohr mag/cell
     absolute magnetization    =     2.97 Bohr mag/cell

     iteration # 42     ecut=    50.00 Ry     beta= 0.40
     RMM-DIIS diagonalization

---- Real-time Memory Report at c_bands before calling an iterative solver
            74 MiB given to the printing process from OS
            32 MiB allocation reported by mallinfo(arena+hblkhd)
        485019 MiB available memory on the node where the printing process lives
------------------
     ethr =  9.26E-07,  avg # of iterations =  2.5

     negative rho (up, down):  2.860E-04 3.459E-03

     total cpu time spent up to now is       39.8 secs

     total energy              =    -583.79893946 Ry
     estimated scf accuracy    <       0.00053618 Ry

     total magnetization       =     2.85 Bohr mag/cell
     absolute magnetization    =     3.00 Bohr mag/cell

     iteration # 43     ecut=    50.00 Ry     beta= 0.40
     RMM-DIIS diagonalization

---- Real-time Memory Report at c_bands before calling an iterative solver
            74 MiB given to the printing process from OS
            32 MiB allocation reported by mallinfo(arena+hblkhd)
        485018 MiB available memory on the node where the printing process lives
------------------
     ethr =  9.26E-07,  avg # of iterations =  4.3

     negative rho (up, down):  5.902E-04 1.962E-03

     total cpu time spent up to now is       40.6 secs

     total energy              =    -583.81612617 Ry
     estimated scf accuracy    <       0.00494317 Ry

     total magnetization       =     3.85 Bohr mag/cell
     absolute magnetization    =     3.95 Bohr mag/cell

     iteration # 44     ecut=    50.00 Ry     beta= 0.40
     RMM-DIIS diagonalization

---- Real-time Memory Report at c_bands before calling an iterative solver
            74 MiB given to the printing process from OS
            32 MiB allocation reported by mallinfo(arena+hblkhd)
        485018 MiB available memory on the node where the printing process lives
------------------
     ethr =  9.26E-07,  avg # of iterations =  4.2

     negative rho (up, down):  6.700E-04 2.080E-03

     total cpu time spent up to now is       41.4 secs

     total energy              =    -583.84440664 Ry
     estimated scf accuracy    <       0.00039786 Ry

     total magnetization       =     2.68 Bohr mag/cell
     absolute magnetization    =     2.87 Bohr mag/cell

     iteration # 45     ecut=    50.00 Ry     beta= 0.40
     RMM-DIIS diagonalization

---- Real-time Memory Report at c_bands before calling an iterative solver
            74 MiB given to the printing process from OS
            32 MiB allocation reported by mallinfo(arena+hblkhd)
        485017 MiB available memory on the node where the printing process lives
------------------
     ethr =  7.65E-07,  avg # of iterations =  3.8

     negative rho (up, down):  6.952E-04 2.114E-03

     total cpu time spent up to now is       42.2 secs

     total energy              =    -583.84843986 Ry
     estimated scf accuracy    <       0.00082973 Ry

     total magnetization       =     2.19 Bohr mag/cell
     absolute magnetization    =     2.58 Bohr mag/cell

     iteration # 46     ecut=    50.00 Ry     beta= 0.40
     ParO style diagonalization

---- Real-time Memory Report at c_bands before calling an iterative solver
            74 MiB given to the printing process from OS
            32 MiB allocation reported by mallinfo(arena+hblkhd)
        485017 MiB available memory on the node where the printing process lives
------------------
     ethr =  7.65E-07,  avg # of iterations =  7.3

     negative rho (up, down):  6.941E-04 2.113E-03

     total cpu time spent up to now is       44.3 secs

     total energy              =    -583.84890856 Ry
     estimated scf accuracy    <       0.00147152 Ry

     total magnetization       =     2.05 Bohr mag/cell
     absolute magnetization    =     2.52 Bohr mag/cell

     iteration # 47     ecut=    50.00 Ry     beta= 0.40
     RMM-DIIS diagonalization

---- Real-time Memory Report at c_bands before calling an iterative solver
            74 MiB given to the printing process from OS
            32 MiB allocation reported by mallinfo(arena+hblkhd)
        485017 MiB available memory on the node where the printing process lives
------------------
     ethr =  7.65E-07,  avg # of iterations =  2.5

     negative rho (up, down):  6.951E-04 2.110E-03

     total cpu time spent up to now is       44.8 secs

     total energy              =    -583.84897228 Ry
     estimated scf accuracy    <       0.00145670 Ry

     total magnetization       =     2.05 Bohr mag/cell
     absolute magnetization    =     2.53 Bohr mag/cell

     iteration # 48     ecut=    50.00 Ry     beta= 0.40
     RMM-DIIS diagonalization

---- Real-time Memory Report at c_bands before calling an iterative solver
            74 MiB given to the printing process from OS
            32 MiB allocation reported by mallinfo(arena+hblkhd)
        485017 MiB available memory on the node where the printing process lives
------------------
     ethr =  7.65E-07,  avg # of iterations =  2.5

     negative rho (up, down):  6.821E-04 2.091E-03

     total cpu time spent up to now is       45.3 secs

     total energy              =    -583.84839482 Ry
     estimated scf accuracy    <       0.00148351 Ry

     total magnetization       =     2.04 Bohr mag/cell
     absolute magnetization    =     2.52 Bohr mag/cell

     iteration # 49     ecut=    50.00 Ry     beta= 0.40
     RMM-DIIS diagonalization

---- Real-time Memory Report at c_bands before calling an iterative solver
            74 MiB given to the printing process from OS
            32 MiB allocation reported by mallinfo(arena+hblkhd)
        485016 MiB available memory on the node where the printing process lives
------------------
     ethr =  7.65E-07,  avg # of iterations =  2.5

     negative rho (up, down):  7.150E-04 2.135E-03

     total cpu time spent up to now is       45.8 secs

     total energy              =    -583.84945635 Ry
     estimated scf accuracy    <       0.00133038 Ry

     total magnetization       =     2.12 Bohr mag/cell
     absolute magnetization    =     2.54 Bohr mag/cell

     iteration # 50     ecut=    50.00 Ry     beta= 0.40
     RMM-DIIS diagonalization

---- Real-time Memory Report at c_bands before calling an iterative solver
            74 MiB given to the printing process from OS
            32 MiB allocation reported by mallinfo(arena+hblkhd)
        485016 MiB available memory on the node where the printing process lives
------------------
     ethr =  7.65E-07,  avg # of iterations =  2.6

     negative rho (up, down):  7.240E-04 2.149E-03

     total cpu time spent up to now is       46.3 secs

     total energy              =    -583.85022441 Ry
     estimated scf accuracy    <       0.00180725 Ry

     total magnetization       =     1.93 Bohr mag/cell
     absolute magnetization    =     2.51 Bohr mag/cell

     iteration # 51     ecut=    50.00 Ry     beta= 0.40
     ParO style diagonalization

---- Real-time Memory Report at c_bands before calling an iterative solver
            74 MiB given to the printing process from OS
            32 MiB allocation reported by mallinfo(arena+hblkhd)
        485016 MiB available memory on the node where the printing process lives
------------------
     ethr =  7.65E-07,  avg # of iterations =  4.9

     negative rho (up, down):  7.803E-04 2.230E-03

     total cpu time spent up to now is       47.7 secs

     total energy              =    -583.85205790 Ry
     estimated scf accuracy    <       0.00207611 Ry

     total magnetization       =     1.88 Bohr mag/cell
     absolute magnetization    =     2.51 Bohr mag/cell

     iteration # 52     ecut=    50.00 Ry     beta= 0.40
     RMM-DIIS diagonalization

---- Real-time Memory Report at c_bands before calling an iterative solver
            74 MiB given to the printing process from OS
            32 MiB allocation reported by mallinfo(arena+hblkhd)
        485015 MiB available memory on the node where the printing process lives
------------------
     ethr =  7.65E-07,  avg # of iterations =  2.9

     negative rho (up, down):  4.705E-04 2.054E-03

     total cpu time spent up to now is       48.3 secs

     total energy              =    -583.79787979 Ry
     estimated scf accuracy    <       0.00375922 Ry

     total magnetization       =     1.54 Bohr mag/cell
     absolute magnetization    =     2.78 Bohr mag/cell

     iteration # 53     ecut=    50.00 Ry     beta= 0.40
     RMM-DIIS diagonalization

---- Real-time Memory Report at c_bands before calling an iterative solver
            74 MiB given to the printing process from OS
            32 MiB allocation reported by mallinfo(arena+hblkhd)
        485015 MiB available memory on the node where the printing process lives
------------------
     ethr =  7.65E-07,  avg # of iterations =  4.3

     negative rho (up, down):  2.878E-04 3.400E-03

     total cpu time spent up to now is       49.1 secs

     total energy              =    -583.81545973 Ry
     estimated scf accuracy    <       0.00097947 Ry

     total magnetization       =     3.26 Bohr mag/cell
     absolute magnetization    =     3.37 Bohr mag/cell

     iteration # 54     ecut=    50.00 Ry     beta= 0.40
     RMM-DIIS diagonalization

---- Real-time Memory Report at c_bands before calling an iterative solver
            74 MiB given to the printing process from OS
            32 MiB allocation reported by mallinfo(arena+hblkhd)
        485014 MiB available memory on the node where the printing process lives
------------------
     ethr =  7.65E-07,  avg # of iterations =  4.2

     negative rho (up, down):  6.838E-04 2.104E-03

     total cpu time spent up to now is       49.9 secs

     total energy              =    -583.79987641 Ry
     estimated scf accuracy    <       0.00472992 Ry

     total magnetization       =     3.86 Bohr mag/cell
     absolute magnetization    =     3.97 Bohr mag/cell

     iteration # 55     ecut=    50.00 Ry     beta= 0.40
     RMM-DIIS diagonalization

---- Real-time Memory Report at c_bands before calling an iterative solver
            74 MiB given to the printing process from OS
            32 MiB allocation reported by mallinfo(arena+hblkhd)
        485014 MiB available memory on the node where the printing process lives
------------------
     ethr =  7.65E-07,  avg # of iterations =  4.4

     negative rho (up, down):  7.021E-04 2.128E-03

     total cpu time spent up to now is       50.7 secs

     total energy              =    -583.84857719 Ry
     estimated scf accuracy    <       0.00083921 Ry

     total magnetization       =     2.12 Bohr mag/cell
     absolute magnetization    =     2.56 Bohr mag/cell

     iteration # 56     ecut=    50.00 Ry     beta= 0.40
     ParO style diagonalization

---- Real-time Memory Report at c_bands before calling an iterative solver
            74 MiB given to the printing process from OS
            32 MiB allocation reported by mallinfo(arena+hblkhd)
        485014 MiB available memory on the node where the printing process lives
------------------
     ethr =  7.65E-07,  avg # of iterations =  6.0

     negative rho (up, down):  6.958E-04 2.106E-03

     total cpu time spent up to now is       52.3 secs

     total energy              =    -583.84896793 Ry
     estimated scf accuracy    <       0.00154983 Ry

     total magnetization       =     2.01 Bohr mag/cell
     absolute magnetization    =     2.52 Bohr mag/cell

     iteration # 57     ecut=    50.00 Ry     beta= 0.40
     RMM-DIIS diagonalization

---- Real-time Memory Report at c_bands before calling an iterative solver
            74 MiB given to the printing process from OS
            32 MiB allocation reported by mallinfo(arena+hblkhd)
        485014 MiB available memory on the node where the printing process lives
------------------
     ethr =  7.65E-07,  avg # of iterations =  2.5

     negative rho (up, down):  7.504E-04 2.182E-03

     total cpu time spent up to now is       52.8 secs

     total energy              =    -583.85042443 Ry
     estimated scf accuracy    <       0.00147074 Ry

     total magnetization       =     2.04 Bohr mag/cell
     absolute magnetization    =     2.52 Bohr mag/cell

     iteration # 58     ecut=    50.00 Ry     beta= 0.40
     RMM-DIIS diagonalization

---- Real-time Memory Report at c_bands before calling an iterative solver
            74 MiB given to the printing process from OS
            32 MiB allocation reported by mallinfo(arena+hblkhd)
        485010 MiB available memory on the node where the printing process lives
------------------
     ethr =  7.65E-07,  avg # of iterations =  2.9

     negative rho (up, down):  7.673E-04 2.195E-03

     total cpu time spent up to now is       53.4 secs

     total energy              =    -583.85240022 Ry
     estimated scf accuracy    <       0.00248798 Ry

     total magnetization       =     1.72 Bohr mag/cell
     absolute magnetization    =     2.57 Bohr mag/cell

     iteration # 59     ecut=    50.00 Ry     beta= 0.40
     RMM-DIIS diagonalization

---- Real-time Memory Report at c_bands before calling an iterative solver
            74 MiB given to the printing process from OS
            32 MiB allocation reported by mallinfo(arena+hblkhd)
        485010 MiB available memory on the node where the printing process lives
------------------
     ethr =  7.65E-07,  avg # of iterations =  2.7

     negative rho (up, down):  7.703E-04 2.232E-03

     total cpu time spent up to now is       54.0 secs

     total energy              =    -583.85249497 Ry
     estimated scf accuracy    <       0.00331123 Ry

     total magnetization       =     1.61 Bohr mag/cell
     absolute magnetization    =     2.68 Bohr mag/cell

     iteration # 60     ecut=    50.00 Ry     beta= 0.40
     RMM-DIIS diagonalization

---- Real-time Memory Report at c_bands before calling an iterative solver
            74 MiB given to the printing process from OS
            32 MiB allocation reported by mallinfo(arena+hblkhd)
        485010 MiB available memory on the node where the printing process lives
------------------
     ethr =  7.65E-07,  avg # of iterations =  2.6

     negative rho (up, down):  7.433E-04 2.199E-03

     total cpu time spent up to now is       54.5 secs

     total energy              =    -583.85075449 Ry
     estimated scf accuracy    <       0.00312364 Ry

     total magnetization       =     1.62 Bohr mag/cell
     absolute magnetization    =     2.69 Bohr mag/cell

     iteration # 61     ecut=    50.00 Ry     beta= 0.40
     ParO style diagonalization

---- Real-time Memory Report at c_bands before calling an iterative solver
            74 MiB given to the printing process from OS
            32 MiB allocation reported by mallinfo(arena+hblkhd)
        485010 MiB available memory on the node where the printing process lives
------------------
     ethr =  7.65E-07,  avg # of iterations =  4.5

     negative rho (up, down):  7.859E-04 2.244E-03

     total cpu time spent up to now is       55.8 secs

     total energy              =    -583.85276004 Ry
     estimated scf accuracy    <       0.00227804 Ry

     total magnetization       =     1.78 Bohr mag/cell
     absolute magnetization    =     2.55 Bohr mag/cell

     iteration # 62     ecut=    50.00 Ry     beta= 0.40
     RMM-DIIS diagonalization

---- Real-time Memory Report at c_bands before calling an iterative solver
            74 MiB given to the printing process from OS
            32 MiB allocation reported by mallinfo(arena+hblkhd)
        485010 MiB available memory on the node where the printing process lives
------------------
     ethr =  7.65E-07,  avg # of iterations =  2.8

     negative rho (up, down):  8.569E-04 2.325E-03

     total cpu time spent up to now is       56.4 secs

     total energy              =    -583.85651387 Ry
     estimated scf accuracy    <       0.00372451 Ry

     total magnetization       =     1.52 Bohr mag/cell
     absolute magnetization    =     2.83 Bohr mag/cell

     iteration # 63     ecut=    50.00 Ry     beta= 0.40
     RMM-DIIS diagonalization

---- Real-time Memory Report at c_bands before calling an iterative solver
            74 MiB given to the printing process from OS
            32 MiB allocation reported by mallinfo(arena+hblkhd)
        485014 MiB available memory on the node where the printing process lives
------------------
     ethr =  7.65E-07,  avg # of iterations =  3.2

     negative rho (up, down):  5.087E-04 1.861E-03

     total cpu time spent up to now is       57.0 secs

     total energy              =    -583.78863650 Ry
     estimated scf accuracy    <       0.00884383 Ry

     total magnetization       =     1.10 Bohr mag/cell
     absolute magnetization    =     3.40 Bohr mag/cell

     iteration # 64     ecut=    50.00 Ry     beta= 0.40
     RMM-DIIS diagonalization

---- Real-time Memory Report at c_bands before calling an iterative solver
            74 MiB given to the printing process from OS
            32 MiB allocation reported by mallinfo(arena+hblkhd)
        485013 MiB available memory on the node where the printing process lives
------------------
     ethr =  7.65E-07,  avg # of iterations =  4.3

     negative rho (up, down):  4.093E-04 2.364E-03

     total cpu time spent up to now is       57.9 secs

     total energy              =    -583.83400858 Ry
     estimated scf accuracy    <       0.00082091 Ry

     total magnetization       =     3.09 Bohr mag/cell
     absolute magnetization    =     3.21 Bohr mag/cell

     iteration # 65     ecut=    50.00 Ry     beta= 0.40
     RMM-DIIS diagonalization

---- Real-time Memory Report at c_bands before calling an iterative solver
            74 MiB given to the printing process from OS
            32 MiB allocation reported by mallinfo(arena+hblkhd)
        485013 MiB available memory on the node where the printing process lives
------------------
     ethr =  7.65E-07,  avg # of iterations =  4.0

     negative rho (up, down):  4.349E-04 2.232E-03

     total cpu time spent up to now is       58.6 secs

     total energy              =    -583.83917687 Ry
     estimated scf accuracy    <       0.00157249 Ry

     total magnetization       =     3.48 Bohr mag/cell
     absolute magnetization    =     3.59 Bohr mag/cell

[...]
        485008 MiB available memory on the node where the printing process lives
------------------
     ethr =  7.65E-07,  avg # of iterations =  3.8

     negative rho (up, down):  4.238E-04 2.297E-03

     total cpu time spent up to now is       73.0 secs

     total energy              =    -583.83850740 Ry
     estimated scf accuracy    <       0.00096735 Ry

     total magnetization       =     3.30 Bohr mag/cell
     absolute magnetization    =     3.43 Bohr mag/cell

     iteration # 80     ecut=    50.00 Ry     beta= 0.40
     RMM-DIIS diagonalization

---- Real-time Memory Report at c_bands before calling an iterative solver
            75 MiB given to the printing process from OS
            32 MiB allocation reported by mallinfo(arena+hblkhd)
        485008 MiB available memory on the node where the printing process lives
------------------
     ethr =  7.65E-07,  avg # of iterations =  2.6

     negative rho (up, down):  4.958E-04 1.925E-03

     total cpu time spent up to now is       73.6 secs

     total energy              =    -583.84016037 Ry
     estimated scf accuracy    <       0.00129695 Ry

     total magnetization       =     3.44 Bohr mag/cell
     absolute magnetization    =     3.56 Bohr mag/cell

     iteration # 81     ecut=    50.00 Ry     beta= 0.40
     ParO style diagonalization

---- Real-time Memory Report at c_bands before calling an iterative solver
            75 MiB given to the printing process from OS
            32 MiB allocation reported by mallinfo(arena+hblkhd)
        485008 MiB available memory on the node where the printing process lives
------------------
     ethr =  7.65E-07,  avg # of iterations =  7.1

     negative rho (up, down):  7.363E-04 2.149E-03

     total cpu time spent up to now is       75.6 secs

     total energy              =    -583.82823877 Ry
     estimated scf accuracy    <       0.00071159 Ry

     total magnetization       =     3.16 Bohr mag/cell
     absolute magnetization    =     3.29 Bohr mag/cell

     iteration # 82     ecut=    50.00 Ry     beta= 0.40
     RMM-DIIS diagonalization

---- Real-time Memory Report at c_bands before calling an iterative solver
            75 MiB given to the printing process from OS
            32 MiB allocation reported by mallinfo(arena+hblkhd)
        485008 MiB available memory on the node where the printing process lives
------------------
     ethr =  7.65E-07,  avg # of iterations =  4.1

     negative rho (up, down):  4.739E-04 2.055E-03

     total cpu time spent up to now is       76.4 secs

     total energy              =    -583.81053804 Ry
     estimated scf accuracy    <       0.00157791 Ry

     total magnetization       =     1.80 Bohr mag/cell
     absolute magnetization    =     2.52 Bohr mag/cell

     iteration # 83     ecut=    50.00 Ry     beta= 0.40
     RMM-DIIS diagonalization

---- Real-time Memory Report at c_bands before calling an iterative solver
            75 MiB given to the printing process from OS
            32 MiB allocation reported by mallinfo(arena+hblkhd)
        485008 MiB available memory on the node where the printing process lives
------------------
     ethr =  7.65E-07,  avg # of iterations =  4.0

     negative rho (up, down):  5.908E-04 1.946E-03

     total cpu time spent up to now is       77.2 secs

     total energy              =    -583.83994381 Ry
     estimated scf accuracy    <       0.00095231 Ry

     total magnetization       =     3.25 Bohr mag/cell
     absolute magnetization    =     3.37 Bohr mag/cell

     iteration # 84     ecut=    50.00 Ry     beta= 0.40
     RMM-DIIS diagonalization

---- Real-time Memory Report at c_bands before calling an iterative solver
            75 MiB given to the printing process from OS
            32 MiB allocation reported by mallinfo(arena+hblkhd)
        485008 MiB available memory on the node where the printing process lives
------------------
     ethr =  7.65E-07,  avg # of iterations =  3.3

     negative rho (up, down):  5.491E-04 1.882E-03

     total cpu time spent up to now is       77.8 secs

     total energy              =    -583.84295412 Ry
     estimated scf accuracy    <       0.00049334 Ry

     total magnetization       =     2.66 Bohr mag/cell
     absolute magnetization    =     2.84 Bohr mag/cell

     iteration # 85     ecut=    50.00 Ry     beta= 0.40
     RMM-DIIS diagonalization

---- Real-time Memory Report at c_bands before calling an iterative solver
            75 MiB given to the printing process from OS
            32 MiB allocation reported by mallinfo(arena+hblkhd)
        485007 MiB available memory on the node where the printing process lives
------------------
     ethr =  7.65E-07,  avg # of iterations =  2.6

     negative rho (up, down):  5.899E-04 1.958E-03

     total cpu time spent up to now is       78.4 secs

     total energy              =    -583.84430769 Ry
     estimated scf accuracy    <       0.00050597 Ry

     total magnetization       =     2.89 Bohr mag/cell
     absolute magnetization    =     3.03 Bohr mag/cell

     iteration # 86     ecut=    50.00 Ry     beta= 0.40
     ParO style diagonalization

---- Real-time Memory Report at c_bands before calling an iterative solver
            75 MiB given to the printing process from OS
            32 MiB allocation reported by mallinfo(arena+hblkhd)
        485007 MiB available memory on the node where the printing process lives
------------------
     ethr =  7.65E-07,  avg # of iterations =  5.9

     negative rho (up, down):  6.010E-04 1.977E-03

     total cpu time spent up to now is       80.1 secs

     total energy              =    -583.84531783 Ry
     estimated scf accuracy    <       0.00053248 Ry

     total magnetization       =     2.67 Bohr mag/cell
     absolute magnetization    =     2.85 Bohr mag/cell

     iteration # 87     ecut=    50.00 Ry     beta= 0.40
     RMM-DIIS diagonalization

---- Real-time Memory Report at c_bands before calling an iterative solver
            75 MiB given to the printing process from OS
            32 MiB allocation reported by mallinfo(arena+hblkhd)
        485006 MiB available memory on the node where the printing process lives
------------------
     ethr =  7.65E-07,  avg # of iterations =  2.5

     negative rho (up, down):  4.121E-04 2.335E-03

     total cpu time spent up to now is       80.6 secs

     total energy              =    -583.82454565 Ry
     estimated scf accuracy    <       0.00055310 Ry

     total magnetization       =     2.61 Bohr mag/cell
     absolute magnetization    =     2.81 Bohr mag/cell

     iteration # 88     ecut=    50.00 Ry     beta= 0.40
     RMM-DIIS diagonalization

---- Real-time Memory Report at c_bands before calling an iterative solver
            75 MiB given to the printing process from OS
            32 MiB allocation reported by mallinfo(arena+hblkhd)
        485006 MiB available memory on the node where the printing process lives
------------------
     ethr =  7.65E-07,  avg # of iterations =  4.0

     negative rho (up, down):  3.332E-04 2.930E-03

     total cpu time spent up to now is       81.4 secs

     total energy              =    -583.83123660 Ry
     estimated scf accuracy    <       0.00140298 Ry

     total magnetization       =     3.45 Bohr mag/cell
     absolute magnetization    =     3.56 Bohr mag/cell

     iteration # 89     ecut=    50.00 Ry     beta= 0.40
     RMM-DIIS diagonalization

---- Real-time Memory Report at c_bands before calling an iterative solver
            75 MiB given to the printing process from OS
            32 MiB allocation reported by mallinfo(arena+hblkhd)
        485006 MiB available memory on the node where the printing process lives
------------------
     ethr =  7.65E-07,  avg # of iterations =  3.8

     negative rho (up, down):  7.303E-04 2.182E-03

     total cpu time spent up to now is       82.2 secs

     total energy              =    -583.80097630 Ry
     estimated scf accuracy    <       0.00277015 Ry

     total magnetization       =     3.69 Bohr mag/cell
     absolute magnetization    =     3.80 Bohr mag/cell

     iteration # 90     ecut=    50.00 Ry     beta= 0.40
     RMM-DIIS diagonalization

---- Real-time Memory Report at c_bands before calling an iterative solver
            75 MiB given to the printing process from OS
            32 MiB allocation reported by mallinfo(arena+hblkhd)
        485006 MiB available memory on the node where the printing process lives
------------------
     ethr =  7.65E-07,  avg # of iterations =  4.4

     negative rho (up, down):  7.657E-04 2.241E-03

     total cpu time spent up to now is       83.0 secs

     total energy              =    -583.85089059 Ry
     estimated scf accuracy    <       0.00129568 Ry

     total magnetization       =     1.85 Bohr mag/cell
     absolute magnetization    =     2.52 Bohr mag/cell

     iteration # 91     ecut=    50.00 Ry     beta= 0.40
     ParO style diagonalization

---- Real-time Memory Report at c_bands before calling an iterative solver
            75 MiB given to the printing process from OS
            32 MiB allocation reported by mallinfo(arena+hblkhd)
        485006 MiB available memory on the node where the printing process lives
------------------
     ethr =  7.65E-07,  avg # of iterations =  8.0

     negative rho (up, down):  8.160E-04 2.313E-03

     total cpu time spent up to now is       85.2 secs

     total energy              =    -583.85448867 Ry
     estimated scf accuracy    <       0.00299479 Ry

     total magnetization       =     1.64 Bohr mag/cell
     absolute magnetization    =     2.68 Bohr mag/cell

     iteration # 92     ecut=    50.00 Ry     beta= 0.40
     RMM-DIIS diagonalization

---- Real-time Memory Report at c_bands before calling an iterative solver
            75 MiB given to the printing process from OS
            32 MiB allocation reported by mallinfo(arena+hblkhd)
        485006 MiB available memory on the node where the printing process lives
------------------
     ethr =  7.65E-07,  avg # of iterations =  2.9

     negative rho (up, down):  1.153E-03 2.784E-03

     total cpu time spent up to now is       85.8 secs

     total energy              =    -583.84749894 Ry
     estimated scf accuracy    <       0.00522984 Ry

     total magnetization       =     1.35 Bohr mag/cell
     absolute magnetization    =     3.08 Bohr mag/cell

     iteration # 93     ecut=    50.00 Ry     beta= 0.40
     RMM-DIIS diagonalization

---- Real-time Memory Report at c_bands before calling an iterative solver
            75 MiB given to the printing process from OS
            32 MiB allocation reported by mallinfo(arena+hblkhd)
        485006 MiB available memory on the node where the printing process lives
------------------
     ethr =  7.65E-07,  avg # of iterations =  4.2

     negative rho (up, down):  1.166E-03 2.818E-03

     total cpu time spent up to now is       86.5 secs

     total energy              =    -583.89072084 Ry
     estimated scf accuracy    <       0.08720871 Ry

     total magnetization       =     0.07 Bohr mag/cell
     absolute magnetization    =     5.27 Bohr mag/cell

     iteration # 94     ecut=    50.00 Ry     beta= 0.40
     RMM-DIIS diagonalization

---- Real-time Memory Report at c_bands before calling an iterative solver
            75 MiB given to the printing process from OS
            32 MiB allocation reported by mallinfo(arena+hblkhd)
        485005 MiB available memory on the node where the printing process lives
------------------
     ethr =  7.65E-07,  avg # of iterations =  3.6

     negative rho (up, down):  8.133E-04 2.333E-03

     total cpu time spent up to now is       87.3 secs

     total energy              =    -583.81953583 Ry
     estimated scf accuracy    <       0.10113440 Ry

     total magnetization       =     0.05 Bohr mag/cell
     absolute magnetization    =     5.37 Bohr mag/cell

     iteration # 95     ecut=    50.00 Ry     beta= 0.40
     RMM-DIIS diagonalization

---- Real-time Memory Report at c_bands before calling an iterative solver
            75 MiB given to the printing process from OS
            32 MiB allocation reported by mallinfo(arena+hblkhd)
        485005 MiB available memory on the node where the printing process lives
------------------
     ethr =  7.65E-07,  avg # of iterations =  4.1

     negative rho (up, down):  8.350E-04 2.356E-03

     total cpu time spent up to now is       88.0 secs

     total energy              =    -583.85650295 Ry
     estimated scf accuracy    <       0.00595747 Ry

     total magnetization       =     1.36 Bohr mag/cell
     absolute magnetization    =     3.12 Bohr mag/cell

     iteration # 96     ecut=    50.00 Ry     beta= 0.40
     ParO style diagonalization

---- Real-time Memory Report at c_bands before calling an iterative solver
            75 MiB given to the printing process from OS
            32 MiB allocation reported by mallinfo(arena+hblkhd)
        485005 MiB available memory on the node where the printing process lives
------------------
     ethr =  7.65E-07,  avg # of iterations =  5.6

     negative rho (up, down):  9.051E-04 2.450E-03

     total cpu time spent up to now is       89.8 secs

     total energy              =    -583.86083592 Ry
     estimated scf accuracy    <       0.00659425 Ry

     total magnetization       =     1.23 Bohr mag/cell
     absolute magnetization    =     3.26 Bohr mag/cell

     iteration # 97     ecut=    50.00 Ry     beta= 0.40
     RMM-DIIS diagonalization

---- Real-time Memory Report at c_bands before calling an iterative solver
            75 MiB given to the printing process from OS
            32 MiB allocation reported by mallinfo(arena+hblkhd)
        485005 MiB available memory on the node where the printing process lives
------------------
     ethr =  7.65E-07,  avg # of iterations =  3.0

     negative rho (up, down):  1.129E-03 2.716E-03

     total cpu time spent up to now is       90.4 secs

     total energy              =    -583.86989764 Ry
     estimated scf accuracy    <       0.01392218 Ry

     total magnetization       =     0.84 Bohr mag/cell
     absolute magnetization    =     3.81 Bohr mag/cell

     iteration # 98     ecut=    50.00 Ry     beta= 0.40
     RMM-DIIS diagonalization

---- Real-time Memory Report at c_bands before calling an iterative solver
            75 MiB given to the printing process from OS
            32 MiB allocation reported by mallinfo(arena+hblkhd)
        485005 MiB available memory on the node where the printing process lives
------------------
     ethr =  7.65E-07,  avg # of iterations =  4.0

     negative rho (up, down):  6.104E-04 1.946E-03

     total cpu time spent up to now is       91.1 secs

     total energy              =    -583.75213445 Ry
     estimated scf accuracy    <       0.08328403 Ry

     total magnetization       =     0.09 Bohr mag/cell
     absolute magnetization    =     5.18 Bohr mag/cell

     iteration # 99     ecut=    50.00 Ry     beta= 0.40
     RMM-DIIS diagonalization

---- Real-time Memory Report at c_bands before calling an iterative solver
            75 MiB given to the printing process from OS
            32 MiB allocation reported by mallinfo(arena+hblkhd)
        485004 MiB available memory on the node where the printing process lives
------------------
     ethr =  7.65E-07,  avg # of iterations =  4.5

     negative rho (up, down):  5.845E-04 1.958E-03

     total cpu time spent up to now is       92.0 secs

     total energy              =    -583.84387507 Ry
     estimated scf accuracy    <       0.00112460 Ry

     total magnetization       =     2.54 Bohr mag/cell
     absolute magnetization    =     2.74 Bohr mag/cell

     iteration #100     ecut=    50.00 Ry     beta= 0.40
     RMM-DIIS diagonalization

---- Real-time Memory Report at c_bands before calling an iterative solver
            75 MiB given to the printing process from OS
            32 MiB allocation reported by mallinfo(arena+hblkhd)
        485004 MiB available memory on the node where the printing process lives
------------------
     ethr =  7.65E-07,  avg # of iterations =  3.7

     negative rho (up, down):  5.354E-04 1.850E-03

     total cpu time spent up to now is       92.7 secs

     total energy              =    -583.84159890 Ry
     estimated scf accuracy    <       0.00062126 Ry

     total magnetization       =     2.68 Bohr mag/cell
     absolute magnetization    =     2.85 Bohr mag/cell

     End of self-consistent calculation

     convergence NOT achieved after 100 iterations: stopping

     Writing config to output data dir ./out/aiida.save/ :
     XML data file, charge density

     init_run     :      0.97s CPU      1.05s WALL (       1 calls)
     electrons    :     86.27s CPU     91.15s WALL (       1 calls)

     Called by init_run:
     wfcinit      :      0.21s CPU      0.23s WALL (       1 calls)
     wfcinit:atom :      0.00s CPU      0.00s WALL (      21 calls)
     wfcinit:wfcr :      0.19s CPU      0.20s WALL (      21 calls)
     potinit      :      0.33s CPU      0.38s WALL (       1 calls)
     hinit0       :      0.37s CPU      0.38s WALL (       1 calls)

     Called by electrons:
     c_bands      :     73.39s CPU     77.52s WALL (     100 calls)
     sum_band     :      9.00s CPU      9.49s WALL (     100 calls)
     v_of_rho     :      2.12s CPU      2.20s WALL (     101 calls)
     v_h          :      0.05s CPU      0.06s WALL (     101 calls)
     v_xc         :      2.07s CPU      2.14s WALL (     101 calls)
     newd         :      1.07s CPU      1.09s WALL (     101 calls)
     mix_rho      :      0.29s CPU      0.31s WALL (     100 calls)

     Called by c_bands:
     init_us_2    :      0.64s CPU      0.68s WALL (    4221 calls)
     init_us_2:cp :      0.63s CPU      0.66s WALL (    4221 calls)
     crmmdiagg    :     22.14s CPU     23.21s WALL (    1680 calls)
     wfcrot       :     12.51s CPU     13.30s WALL (    1701 calls)

     Called by sum_band:
     sum_band:wei :      0.15s CPU      0.15s WALL (     100 calls)
     sum_band:loo :      6.70s CPU      7.12s WALL (     100 calls)
     sum_band:buf :      0.07s CPU      0.07s WALL (    2100 calls)
     sum_band:ini :      0.29s CPU      0.31s WALL (    2100 calls)
     sum_band:cal :      0.62s CPU      0.66s WALL (    2100 calls)
     sum_band:bec :      0.04s CPU      0.04s WALL (    2100 calls)
     addusdens    :      1.62s CPU      1.63s WALL (     100 calls)
                                        0.00s GPU  (     100 calls)
     addusd:skk   :      0.00s CPU      0.00s WALL (     400 calls)
                                        0.00s GPU  (     400 calls)

     Called by *rmmdiagg:
     h_psi        :     42.52s CPU     45.09s WALL (   14121 calls)
     s_psi        :      1.98s CPU      2.06s WALL (   14121 calls)
     g_psi        :      0.16s CPU      0.21s WALL (   92857 calls)

     Called by h_psi:
     h_psi:calbec :      2.53s CPU      2.66s WALL (   14121 calls)
     vloc_psi     :     37.78s CPU     40.10s WALL (   14121 calls)
     add_vuspsi   :      2.02s CPU      2.10s WALL (   14121 calls)

     General routines
     calbec       :      3.11s CPU      3.27s WALL (   16221 calls)
     fft          :      0.97s CPU      1.08s WALL (    2523 calls)
     ffts         :      0.39s CPU      0.40s WALL (     402 calls)
     fftw         :     36.77s CPU     38.85s WALL (  565118 calls)
     interpolate  :      0.42s CPU      0.43s WALL (     202 calls)
     davcio       :      0.00s CPU      0.16s WALL (      39 calls)

     Parallel routines

     PWSCF        :   1m27.76s CPU   1m33.08s WALL


   This run was terminated on:   4: 7:18  30Nov2023            

=------------------------------------------------------------------------------=
   JOB DONE.
=------------------------------------------------------------------------------=
