
     Program PWSCF v.7.2 starts on 22Oct2023 at 17:55:19 

     This program is part of the open-source Quantum ESPRESSO suite
     for quantum simulation of materials; please cite
         "P. Giannozzi et al., J. Phys.:Condens. Matter 21 395502 (2009);
         "P. Giannozzi et al., J. Phys.:Condens. Matter 29 465901 (2017);
         "P. Giannozzi et al., J. Chem. Phys. 152 154105 (2020);
          URL http://www.quantum-espresso.org", 
     in publications or presentations arising from this work. More details at
     http://www.quantum-espresso.org/quote

     Parallel version (MPI & OpenMP), running on      12 processor cores
     Number of MPI processes:                 1
     Threads/MPI process:                    12

     MPI processes distributed on     1 nodes
     60335 MiB available memory on the printing compute node when the environment starts
 
     Reading input from aiida.in

     Current dimensions of program PWSCF are:
     Max number of different atomic species (ntypx) = 10
     Max number of k-points (npk) =  40000
     Max angular momentum in pseudopotentials (lmaxx) =  4
     file Ga.pbesol-dn-kjpaw_psl.1.0.0.UPF: wavefunction(s)  4S renormalized
     Message from routine setup:
     using ibrav=0 with symmetry is DISCOURAGED, use correct ibrav instead
 
     Subspace diagonalization in iterative solution of the eigenvalue problem:
     a serial algorithm will be used

 
     G-vector sticks info
     --------------------
     sticks:   dense  smooth     PW     G-vecs:    dense   smooth      PW
     Sum        5647    2839    769               280209    98741   14361
 
     Using Slab Decomposition
 


     bravais-lattice index     =            0
     lattice parameter (alat)  =      12.0942  a.u.
     unit-cell volume          =    1250.8692 (a.u.)^3
     number of atoms/cell      =           10
     number of atomic types    =            3
     number of electrons       =        70.00
     number of Kohn-Sham states=           42
     kinetic-energy cutoff     =      70.0000  Ry
     charge density cutoff     =     560.0000  Ry
     scf convergence threshold =      2.0E-09
     mixing beta               =       0.4000
     number of iterations used =            8  plain     mixing
     Exchange-correlation= PBESOL
                           (   1   4  10   8   0   0   0)

     GPU acceleration is ACTIVE.


     GPU used by master process:

        Device Number: 0
        Device name: Tesla P100-PCIE-16GB
        Compute capability : 60
        Ratio of single to double precision performance  : 2
        Memory Clock Rate (KHz): 715000
        Memory Bus Width (bits): 4096
        Peak Memory Bandwidth (GB/s): 732.16

     celldm(1)=  12.094158  celldm(2)=   0.000000  celldm(3)=   0.000000
     celldm(4)=   0.000000  celldm(5)=   0.000000  celldm(6)=   0.000000

     crystal axes: (cart. coord. in units of alat)
               a(1) = (   0.000000   0.707107   0.707107 )  
               a(2) = (   0.707107   0.000000   0.707107 )  
               a(3) = (   0.707107   0.707107   0.000000 )  

     reciprocal axes: (cart. coord. in units 2 pi/alat)
               b(1) = ( -0.707107  0.707107  0.707107 )  
               b(2) = (  0.707107 -0.707107  0.707107 )  
               b(3) = (  0.707107  0.707107 -0.707107 )  


     PseudoPot. # 1 for F  read from file:
     ./pseudo/f_pbesol_v1.4.uspp.F.UPF
     MD5 check sum: d2815ecb49b17b99c5724ffd2f9bbd8d
     Pseudo is Ultrasoft, Zval =  7.0
     Generated by new atomic code, or converted to UPF format
     Using radial grid of  799 points,  4 beta functions with: 
                l(1) =   0
                l(2) =   0
                l(3) =   1
                l(4) =   1
     Q(r) pseudized with  8 coefficients,  rinner =    0.950   0.950   0.950


     PseudoPot. # 2 for Ga read from file:
     ./pseudo/Ga.pbesol-dn-kjpaw_psl.1.0.0.UPF
     MD5 check sum: 2a7819223b42fad6ccd7f29fc9cbee49
     Pseudo is Projector augmented-wave + core cor, Zval = 13.0
     Generated using "atomic" code by A. Dal Corso  v.6.0 svn rev. 13079
     Shape of augmentation charge: PSQ
     Using radial grid of 1205 points,  6 beta functions with: 
                l(1) =   0
                l(2) =   0
                l(3) =   1
                l(4) =   1
                l(5) =   2
                l(6) =   2
     Q(r) pseudized with 0 coefficients 


     PseudoPot. # 3 for N  read from file:
     ./pseudo/N.pbesol-theos.UPF
     MD5 check sum: 1b64827339d390a5a22afef3ff345c9d
     Pseudo is Ultrasoft + core correction, Zval =  5.0
     Generated using "atomic" code by A. Dal Corso  v.5.1
     Using radial grid of 1085 points,  4 beta functions with: 
                l(1) =   0
                l(2) =   0
                l(3) =   1
                l(4) =   1
     Q(r) pseudized with 0 coefficients 


     atomic species   valence    mass     pseudopotential
        F              7.00    18.99840     F ( 1.00)
        Ga            13.00    69.72300     Ga( 1.00)
        N              5.00    14.00670     N ( 1.00)

     Starting magnetic structure 
     atomic species   magnetization
        F            0.100
        Ga           0.100
        N            0.100

     48 Sym. Ops., with inversion, found


                                    s                        frac. trans.

      isym =  1     identity                                     

 cryst.   s( 1) = (     1          0          0      )
                  (     0          1          0      )
                  (     0          0          1      )

 cart.    s( 1) = (  1.0000000 -0.0000000  0.0000000 )
                  ( -0.0000000  1.0000000  0.0000000 )
                  ( -0.0000000  0.0000000  1.0000000 )


      isym =  2     180 deg rotation - cart. axis [0,0,1]        

 cryst.   s( 2) = (     0          1         -1      )
                  (     1          0         -1      )
                  (     0          0         -1      )

 cart.    s( 2) = ( -1.0000000  0.0000000  0.0000000 )
                  (  0.0000000 -1.0000000  0.0000000 )
                  (  0.0000000 -0.0000000  1.0000000 )


      isym =  3     180 deg rotation - cart. axis [0,1,0]        

 cryst.   s( 3) = (     0         -1          1      )
                  (     0         -1          0      )
                  (     1         -1          0      )

 cart.    s( 3) = ( -1.0000000 -0.0000000 -0.0000000 )
                  (  0.0000000  1.0000000 -0.0000000 )
                  (  0.0000000  0.0000000 -1.0000000 )


      isym =  4     180 deg rotation - cart. axis [1,0,0]        

 cryst.   s( 4) = (    -1          0          0      )
                  (    -1          0          1      )
                  (    -1          1          0      )

 cart.    s( 4) = (  1.0000000  0.0000000 -0.0000000 )
                  ( -0.0000000 -1.0000000 -0.0000000 )
                  ( -0.0000000 -0.0000000 -1.0000000 )


      isym =  5     180 deg rotation - cart. axis [1,1,0]        

 cryst.   s( 5) = (    -1          0          1      )
                  (     0         -1          1      )
                  (     0          0          1      )

 cart.    s( 5) = ( -0.0000000  1.0000000 -0.0000000 )
                  (  1.0000000 -0.0000000 -0.0000000 )
                  (  0.0000000 -0.0000000 -1.0000000 )


      isym =  6     180 deg rotation - cart. axis [1,-1,0]       

 cryst.   s( 6) = (     0         -1          0      )
                  (    -1          0          0      )
                  (     0          0         -1      )

 cart.    s( 6) = (  0.0000000 -1.0000000 -0.0000000 )
                  ( -1.0000000  0.0000000 -0.0000000 )
                  ( -0.0000000  0.0000000 -1.0000000 )


      isym =  7      90 deg rotation - cart. axis [0,0,-1]       

 cryst.   s( 7) = (     0          1          0      )
                  (     0          1         -1      )
                  (    -1          1          0      )

 cart.    s( 7) = (  0.0000000  1.0000000  0.0000000 )
                  ( -1.0000000 -0.0000000  0.0000000 )
                  ( -0.0000000 -0.0000000  1.0000000 )


      isym =  8      90 deg rotation - cart. axis [0,0,1]        

 cryst.   s( 8) = (     1          0         -1      )
                  (     1          0          0      )
                  (     1         -1          0      )

 cart.    s( 8) = ( -0.0000000 -1.0000000  0.0000000 )
                  (  1.0000000  0.0000000  0.0000000 )
                  (  0.0000000  0.0000000  1.0000000 )


      isym =  9     180 deg rotation - cart. axis [1,0,1]        

 cryst.   s( 9) = (    -1          1          0      )
                  (     0          1          0      )
                  (     0          1         -1      )

 cart.    s( 9) = (  0.0000000  0.0000000  1.0000000 )
                  (  0.0000000 -1.0000000 -0.0000000 )
                  (  1.0000000 -0.0000000 -0.0000000 )


      isym = 10     180 deg rotation - cart. axis [-1,0,1]       

 cryst.   s(10) = (     0          0         -1      )
                  (     0         -1          0      )
                  (    -1          0          0      )

 cart.    s(10) = ( -0.0000000  0.0000000 -1.0000000 )
                  ( -0.0000000 -1.0000000  0.0000000 )
                  ( -1.0000000 -0.0000000  0.0000000 )


      isym = 11      90 deg rotation - cart. axis [0,1,0]        

 cryst.   s(11) = (     0          0          1      )
                  (    -1          0          1      )
                  (     0         -1          1      )

 cart.    s(11) = ( -0.0000000 -0.0000000  1.0000000 )
                  ( -0.0000000  1.0000000 -0.0000000 )
                  ( -1.0000000  0.0000000 -0.0000000 )


      isym = 12      90 deg rotation - cart. axis [0,-1,0]       

 cryst.   s(12) = (     1         -1          0      )
                  (     1          0         -1      )
                  (     1          0          0      )

 cart.    s(12) = (  0.0000000 -0.0000000 -1.0000000 )
                  (  0.0000000  1.0000000  0.0000000 )
                  (  1.0000000  0.0000000  0.0000000 )


      isym = 13     180 deg rotation - cart. axis [0,1,1]        

 cryst.   s(13) = (     1          0          0      )
                  (     1         -1          0      )
                  (     1          0         -1      )

 cart.    s(13) = ( -1.0000000  0.0000000 -0.0000000 )
                  (  0.0000000  0.0000000  1.0000000 )
                  (  0.0000000  1.0000000  0.0000000 )


      isym = 14     180 deg rotation - cart. axis [0,1,-1]       

 cryst.   s(14) = (    -1          0          0      )
                  (     0          0         -1      )
                  (     0         -1          0      )

 cart.    s(14) = ( -1.0000000 -0.0000000  0.0000000 )
                  (  0.0000000 -0.0000000 -1.0000000 )
                  (  0.0000000 -1.0000000 -0.0000000 )


      isym = 15      90 deg rotation - cart. axis [-1,0,0]       

 cryst.   s(15) = (     0         -1          1      )
                  (     0          0          1      )
                  (    -1          0          1      )

 cart.    s(15) = (  1.0000000 -0.0000000 -0.0000000 )
                  ( -0.0000000 -0.0000000  1.0000000 )
                  ( -0.0000000 -1.0000000  0.0000000 )


      isym = 16      90 deg rotation - cart. axis [1,0,0]        

 cryst.   s(16) = (     0          1         -1      )
                  (    -1          1          0      )
                  (     0          1          0      )

 cart.    s(16) = (  1.0000000  0.0000000  0.0000000 )
                  ( -0.0000000  0.0000000 -1.0000000 )
                  ( -0.0000000  1.0000000 -0.0000000 )


      isym = 17     120 deg rotation - cart. axis [-1,-1,-1]     

 cryst.   s(17) = (     0          0          1      )
                  (     1          0          0      )
                  (     0          1          0      )

 cart.    s(17) = (  0.0000000  1.0000000 -0.0000000 )
                  (  0.0000000 -0.0000000  1.0000000 )
                  (  1.0000000 -0.0000000  0.0000000 )


      isym = 18     120 deg rotation - cart. axis [-1,1,1]       

 cryst.   s(18) = (     1         -1          0      )
                  (     0         -1          1      )
                  (     0         -1          0      )

 cart.    s(18) = ( -0.0000000 -1.0000000 -0.0000000 )
                  ( -0.0000000  0.0000000  1.0000000 )
                  ( -1.0000000  0.0000000  0.0000000 )


      isym = 19     120 deg rotation - cart. axis [1,1,-1]       

 cryst.   s(19) = (    -1          1          0      )
                  (    -1          0          0      )
                  (    -1          0          1      )

 cart.    s(19) = ( -0.0000000  1.0000000  0.0000000 )
                  ( -0.0000000 -0.0000000 -1.0000000 )
                  ( -1.0000000 -0.0000000 -0.0000000 )


      isym = 20     120 deg rotation - cart. axis [1,-1,1]       

 cryst.   s(20) = (     0          0         -1      )
                  (     0          1         -1      )
                  (     1          0         -1      )

 cart.    s(20) = (  0.0000000 -1.0000000  0.0000000 )
                  (  0.0000000  0.0000000 -1.0000000 )
                  (  1.0000000  0.0000000 -0.0000000 )


      isym = 21     120 deg rotation - cart. axis [1,1,1]        

 cryst.   s(21) = (     0          1          0      )
                  (     0          0          1      )
                  (     1          0          0      )

 cart.    s(21) = ( -0.0000000  0.0000000  1.0000000 )
                  (  1.0000000  0.0000000 -0.0000000 )
                  (  0.0000000  1.0000000 -0.0000000 )


      isym = 22     120 deg rotation - cart. axis [-1,1,-1]      

 cryst.   s(22) = (    -1          0          1      )
                  (    -1          1          0      )
                  (    -1          0          0      )

 cart.    s(22) = (  0.0000000 -0.0000000  1.0000000 )
                  ( -1.0000000 -0.0000000 -0.0000000 )
                  ( -0.0000000 -1.0000000 -0.0000000 )


      isym = 23     120 deg rotation - cart. axis [1,-1,-1]      

 cryst.   s(23) = (     1          0         -1      )
                  (     0          0         -1      )
                  (     0          1         -1      )

 cart.    s(23) = (  0.0000000  0.0000000 -1.0000000 )
                  ( -1.0000000  0.0000000  0.0000000 )
                  ( -0.0000000  1.0000000  0.0000000 )


      isym = 24     120 deg rotation - cart. axis [-1,-1,1]      

 cryst.   s(24) = (     0         -1          0      )
                  (     1         -1          0      )
                  (     0         -1          1      )

 cart.    s(24) = ( -0.0000000 -0.0000000 -1.0000000 )
                  (  1.0000000 -0.0000000  0.0000000 )
                  (  0.0000000 -1.0000000  0.0000000 )


      isym = 25     inversion                                    

 cryst.   s(25) = (    -1          0          0      )
                  (     0         -1          0      )
                  (     0          0         -1      )

 cart.    s(25) = ( -1.0000000  0.0000000 -0.0000000 )
                  (  0.0000000 -1.0000000 -0.0000000 )
                  (  0.0000000 -0.0000000 -1.0000000 )


      isym = 26     inv. 180 deg rotation - cart. axis [0,0,1]   

 cryst.   s(26) = (     0         -1          1      )
                  (    -1          0          1      )
                  (     0          0          1      )

 cart.    s(26) = (  1.0000000 -0.0000000 -0.0000000 )
                  ( -0.0000000  1.0000000 -0.0000000 )
                  ( -0.0000000  0.0000000 -1.0000000 )


      isym = 27     inv. 180 deg rotation - cart. axis [0,1,0]   

 cryst.   s(27) = (     0          1         -1      )
                  (     0          1          0      )
                  (    -1          1          0      )

 cart.    s(27) = (  1.0000000  0.0000000  0.0000000 )
                  ( -0.0000000 -1.0000000  0.0000000 )
                  ( -0.0000000 -0.0000000  1.0000000 )


      isym = 28     inv. 180 deg rotation - cart. axis [1,0,0]   

 cryst.   s(28) = (     1          0          0      )
                  (     1          0         -1      )
                  (     1         -1          0      )

 cart.    s(28) = ( -1.0000000 -0.0000000  0.0000000 )
                  (  0.0000000  1.0000000  0.0000000 )
                  (  0.0000000  0.0000000  1.0000000 )


      isym = 29     inv. 180 deg rotation - cart. axis [1,1,0]   

 cryst.   s(29) = (     1          0         -1      )
                  (     0          1         -1      )
                  (     0          0         -1      )

 cart.    s(29) = (  0.0000000 -1.0000000  0.0000000 )
                  ( -1.0000000  0.0000000  0.0000000 )
                  ( -0.0000000  0.0000000  1.0000000 )


      isym = 30     inv. 180 deg rotation - cart. axis [1,-1,0]  

 cryst.   s(30) = (     0          1          0      )
                  (     1          0          0      )
                  (     0          0          1      )

 cart.    s(30) = ( -0.0000000  1.0000000  0.0000000 )
                  (  1.0000000 -0.0000000  0.0000000 )
                  (  0.0000000 -0.0000000  1.0000000 )


      isym = 31     inv.  90 deg rotation - cart. axis [0,0,-1]  

 cryst.   s(31) = (     0         -1          0      )
                  (     0         -1          1      )
                  (     1         -1          0      )

 cart.    s(31) = ( -0.0000000 -1.0000000 -0.0000000 )
                  (  1.0000000  0.0000000 -0.0000000 )
                  (  0.0000000  0.0000000 -1.0000000 )


      isym = 32     inv.  90 deg rotation - cart. axis [0,0,1]   

 cryst.   s(32) = (    -1          0          1      )
                  (    -1          0          0      )
                  (    -1          1          0      )

 cart.    s(32) = (  0.0000000  1.0000000 -0.0000000 )
                  ( -1.0000000 -0.0000000 -0.0000000 )
                  ( -0.0000000 -0.0000000 -1.0000000 )


      isym = 33     inv. 180 deg rotation - cart. axis [1,0,1]   

 cryst.   s(33) = (     1         -1          0      )
                  (     0         -1          0      )
                  (     0         -1          1      )

 cart.    s(33) = ( -0.0000000 -0.0000000 -1.0000000 )
                  ( -0.0000000  1.0000000  0.0000000 )
                  ( -1.0000000  0.0000000  0.0000000 )


      isym = 34     inv. 180 deg rotation - cart. axis [-1,0,1]  

 cryst.   s(34) = (     0          0          1      )
                  (     0          1          0      )
                  (     1          0          0      )

 cart.    s(34) = (  0.0000000 -0.0000000  1.0000000 )
                  (  0.0000000  1.0000000 -0.0000000 )
                  (  1.0000000  0.0000000 -0.0000000 )


      isym = 35     inv.  90 deg rotation - cart. axis [0,1,0]   

 cryst.   s(35) = (     0          0         -1      )
                  (     1          0         -1      )
                  (     0          1         -1      )

 cart.    s(35) = (  0.0000000  0.0000000 -1.0000000 )
                  (  0.0000000 -1.0000000  0.0000000 )
                  (  1.0000000 -0.0000000  0.0000000 )


      isym = 36     inv.  90 deg rotation - cart. axis [0,-1,0]  

 cryst.   s(36) = (    -1          1          0      )
                  (    -1          0          1      )
                  (    -1          0          0      )

 cart.    s(36) = ( -0.0000000  0.0000000  1.0000000 )
                  ( -0.0000000 -1.0000000 -0.0000000 )
                  ( -1.0000000 -0.0000000 -0.0000000 )


      isym = 37     inv. 180 deg rotation - cart. axis [0,1,1]   

 cryst.   s(37) = (    -1          0          0      )
                  (    -1          1          0      )
                  (    -1          0          1      )

 cart.    s(37) = (  1.0000000 -0.0000000  0.0000000 )
                  ( -0.0000000 -0.0000000 -1.0000000 )
                  ( -0.0000000 -1.0000000 -0.0000000 )


      isym = 38     inv. 180 deg rotation - cart. axis [0,1,-1]  

 cryst.   s(38) = (     1          0          0      )
                  (     0          0          1      )
                  (     0          1          0      )

 cart.    s(38) = (  1.0000000  0.0000000 -0.0000000 )
                  ( -0.0000000  0.0000000  1.0000000 )
                  ( -0.0000000  1.0000000  0.0000000 )


      isym = 39     inv.  90 deg rotation - cart. axis [-1,0,0]  

 cryst.   s(39) = (     0          1         -1      )
                  (     0          0         -1      )
                  (     1          0         -1      )

 cart.    s(39) = ( -1.0000000  0.0000000  0.0000000 )
                  (  0.0000000  0.0000000 -1.0000000 )
                  (  0.0000000  1.0000000 -0.0000000 )


      isym = 40     inv.  90 deg rotation - cart. axis [1,0,0]   

 cryst.   s(40) = (     0         -1          1      )
                  (     1         -1          0      )
                  (     0         -1          0      )

 cart.    s(40) = ( -1.0000000 -0.0000000 -0.0000000 )
                  (  0.0000000 -0.0000000  1.0000000 )
                  (  0.0000000 -1.0000000  0.0000000 )


      isym = 41     inv. 120 deg rotation - cart. axis [-1,-1,-1]

 cryst.   s(41) = (     0          0         -1      )
                  (    -1          0          0      )
                  (     0         -1          0      )

 cart.    s(41) = ( -0.0000000 -1.0000000  0.0000000 )
                  ( -0.0000000  0.0000000 -1.0000000 )
                  ( -1.0000000  0.0000000 -0.0000000 )


      isym = 42     inv. 120 deg rotation - cart. axis [-1,1,1]  

 cryst.   s(42) = (    -1          1          0      )
                  (     0          1         -1      )
                  (     0          1          0      )

 cart.    s(42) = (  0.0000000  1.0000000  0.0000000 )
                  (  0.0000000 -0.0000000 -1.0000000 )
                  (  1.0000000 -0.0000000 -0.0000000 )


      isym = 43     inv. 120 deg rotation - cart. axis [1,1,-1]  

 cryst.   s(43) = (     1         -1          0      )
                  (     1          0          0      )
                  (     1          0         -1      )

 cart.    s(43) = (  0.0000000 -1.0000000 -0.0000000 )
                  (  0.0000000  0.0000000  1.0000000 )
                  (  1.0000000  0.0000000  0.0000000 )


      isym = 44     inv. 120 deg rotation - cart. axis [1,-1,1]  

 cryst.   s(44) = (     0          0          1      )
                  (     0         -1          1      )
                  (    -1          0          1      )

 cart.    s(44) = ( -0.0000000  1.0000000 -0.0000000 )
                  ( -0.0000000 -0.0000000  1.0000000 )
                  ( -1.0000000 -0.0000000  0.0000000 )


      isym = 45     inv. 120 deg rotation - cart. axis [1,1,1]   

 cryst.   s(45) = (     0         -1          0      )
                  (     0          0         -1      )
                  (    -1          0          0      )

 cart.    s(45) = (  0.0000000 -0.0000000 -1.0000000 )
                  ( -1.0000000 -0.0000000  0.0000000 )
                  ( -0.0000000 -1.0000000  0.0000000 )


      isym = 46     inv. 120 deg rotation - cart. axis [-1,1,-1] 

 cryst.   s(46) = (     1          0         -1      )
                  (     1         -1          0      )
                  (     1          0          0      )

 cart.    s(46) = ( -0.0000000  0.0000000 -1.0000000 )
                  (  1.0000000  0.0000000  0.0000000 )
                  (  0.0000000  1.0000000  0.0000000 )


      isym = 47     inv. 120 deg rotation - cart. axis [1,-1,-1] 

 cryst.   s(47) = (    -1          0          1      )
                  (     0          0          1      )
                  (     0         -1          1      )

 cart.    s(47) = ( -0.0000000 -0.0000000  1.0000000 )
                  (  1.0000000 -0.0000000 -0.0000000 )
                  (  0.0000000 -1.0000000 -0.0000000 )


      isym = 48     inv. 120 deg rotation - cart. axis [-1,-1,1] 

 cryst.   s(48) = (     0          1          0      )
                  (    -1          1          0      )
                  (     0          1         -1      )

 cart.    s(48) = (  0.0000000  0.0000000  1.0000000 )
                  ( -1.0000000  0.0000000 -0.0000000 )
                  ( -0.0000000  1.0000000 -0.0000000 )


   Cartesian axes

     site n.     atom                  positions (alat units)
         1           Ga  tau(   1) = (   0.0000000   0.0000000   0.0000000  )
         2           N   tau(   2) = (   0.7071068   0.0000000   0.0000000  )
         3           N   tau(   3) = (   0.3535534   0.3535534   1.0606602  )
         4           N   tau(   4) = (   0.3535534   1.0606602   1.0606602  )
         5           F   tau(   5) = (   1.1172287   0.0000000   0.0000000  )
         6           F   tau(   6) = (   0.7071068   0.4101219  -0.0000000  )
         7           F   tau(   7) = (  -0.0000000  -0.0000000   1.1172287  )
         8           F   tau(   8) = (   0.7071068   0.0000000   1.0040916  )
         9           F   tau(   9) = (   0.7071068   1.0040916   0.0000000  )
        10           F   tau(  10) = (   0.2969848  -0.0000000  -0.0000000  )

   Crystallographic axes

     site n.     atom                  positions (cryst. coord.)
         1           Ga  tau(   1) = (  0.0000000  0.0000000  0.0000000  )
         2           N   tau(   2) = ( -0.5000000  0.5000000  0.5000000  )
         3           N   tau(   3) = (  0.7500000  0.7500000 -0.2500000  )
         4           N   tau(   4) = (  1.2500000  0.2500000  0.2500000  )
         5           F   tau(   5) = ( -0.7900000  0.7900000  0.7900000  )
         6           F   tau(   6) = ( -0.2100000  0.2100000  0.7900000  )
         7           F   tau(   7) = (  0.7900000  0.7900000 -0.7900000  )
         8           F   tau(   8) = (  0.2100000  1.2100000 -0.2100000  )
         9           F   tau(   9) = (  0.2100000 -0.2100000  1.2100000  )
        10           F   tau(  10) = ( -0.2100000  0.2100000  0.2100000  )

     number of k points=    35  Marzari-Vanderbilt smearing, width (Ry)=  0.0100
                       cart. coord. in units 2pi/alat
        k(    1) = (   0.0000000   0.0000000   0.0000000), wk =   0.0013717
        k(    2) = (   0.0785674   0.0785674  -0.0785674), wk =   0.0109739
        k(    3) = (   0.1571348   0.1571348  -0.1571348), wk =   0.0109739
        k(    4) = (   0.2357023   0.2357023  -0.2357023), wk =   0.0109739
        k(    5) = (   0.3142697   0.3142697  -0.3142697), wk =   0.0109739
        k(    6) = (   0.1571348   0.0000000  -0.0000000), wk =   0.0082305
        k(    7) = (   0.2357023   0.0785674  -0.0785674), wk =   0.0329218
        k(    8) = (   0.3142697   0.1571348  -0.1571348), wk =   0.0329218
        k(    9) = (   0.3928371   0.2357023  -0.2357023), wk =   0.0329218
        k(   10) = (  -0.2357023  -0.3928371   0.3928371), wk =   0.0329218
        k(   11) = (  -0.1571348  -0.3142697   0.3142697), wk =   0.0329218
        k(   12) = (  -0.0785674  -0.2357023   0.2357023), wk =   0.0329218
        k(   13) = (  -0.0000000  -0.1571348   0.1571348), wk =   0.0164609
        k(   14) = (   0.3142697   0.0000000  -0.0000000), wk =   0.0082305
        k(   15) = (   0.3928371   0.0785674  -0.0785674), wk =   0.0329218
        k(   16) = (   0.4714045   0.1571348  -0.1571348), wk =   0.0329218
        k(   17) = (  -0.1571348  -0.4714045   0.4714045), wk =   0.0329218
        k(   18) = (  -0.0785674  -0.3928371   0.3928371), wk =   0.0329218
        k(   19) = (  -0.0000000  -0.3142697   0.3142697), wk =   0.0164609
        k(   20) = (   0.4714045   0.0000000  -0.0000000), wk =   0.0082305
        k(   21) = (   0.5499719   0.0785674  -0.0785674), wk =   0.0329218
        k(   22) = (  -0.0785674  -0.5499719   0.5499719), wk =   0.0329218
        k(   23) = (  -0.0000000  -0.4714045   0.4714045), wk =   0.0164609
        k(   24) = (   0.6285394   0.0000000  -0.0000000), wk =   0.0082305
        k(   25) = (  -0.0000000  -0.6285394   0.6285394), wk =   0.0164609
        k(   26) = (   0.3142697   0.1571348  -0.0000000), wk =   0.0329218
        k(   27) = (   0.3928371   0.2357023  -0.0785674), wk =   0.0658436
        k(   28) = (  -0.2357023  -0.3928371   0.5499719), wk =   0.0658436
        k(   29) = (   0.4714045   0.1571348  -0.0000000), wk =   0.0329218
        k(   30) = (  -0.1571348  -0.4714045   0.6285394), wk =   0.0658436
        k(   31) = (  -0.0785674  -0.3928371   0.5499719), wk =   0.0658436
        k(   32) = (   0.0000000  -0.3142697   0.4714045), wk =   0.0329218
        k(   33) = (  -0.0785674  -0.5499719   0.7071068), wk =   0.0329218
        k(   34) = (  -0.0000000  -0.4714045   0.6285394), wk =   0.0329218
        k(   35) = (  -0.0785674  -0.3928371   0.7071068), wk =   0.0329218

                       cryst. coord.
        k(    1) = (   0.0000000   0.0000000   0.0000000), wk =   0.0013717
        k(    2) = (  -0.0000000  -0.0000000   0.1111111), wk =   0.0109739
        k(    3) = (  -0.0000000  -0.0000000   0.2222222), wk =   0.0109739
        k(    4) = (   0.0000000   0.0000000   0.3333333), wk =   0.0109739
        k(    5) = (  -0.0000000  -0.0000000   0.4444444), wk =   0.0109739
        k(    6) = (  -0.0000000   0.1111111   0.1111111), wk =   0.0082305
        k(    7) = (   0.0000000   0.1111111   0.2222222), wk =   0.0329218
        k(    8) = (   0.0000000   0.1111111   0.3333333), wk =   0.0329218
        k(    9) = (   0.0000000   0.1111111   0.4444444), wk =   0.0329218
        k(   10) = (  -0.0000000   0.1111111  -0.4444444), wk =   0.0329218
        k(   11) = (  -0.0000000   0.1111111  -0.3333333), wk =   0.0329218
        k(   12) = (  -0.0000000   0.1111111  -0.2222222), wk =   0.0329218
        k(   13) = (   0.0000000   0.1111111  -0.1111111), wk =   0.0164609
        k(   14) = (  -0.0000000   0.2222222   0.2222222), wk =   0.0082305
        k(   15) = (   0.0000000   0.2222222   0.3333333), wk =   0.0329218
        k(   16) = (   0.0000000   0.2222222   0.4444444), wk =   0.0329218
        k(   17) = (  -0.0000000   0.2222222  -0.4444444), wk =   0.0329218
        k(   18) = (  -0.0000000   0.2222222  -0.3333333), wk =   0.0329218
        k(   19) = (   0.0000000   0.2222222  -0.2222222), wk =   0.0164609
        k(   20) = (  -0.0000000   0.3333333   0.3333333), wk =   0.0082305
        k(   21) = (   0.0000000   0.3333333   0.4444444), wk =   0.0329218
        k(   22) = (  -0.0000000   0.3333333  -0.4444444), wk =   0.0329218
        k(   23) = (   0.0000000   0.3333333  -0.3333333), wk =   0.0164609
        k(   24) = (  -0.0000000   0.4444444   0.4444444), wk =   0.0082305
        k(   25) = (   0.0000000   0.4444444  -0.4444444), wk =   0.0164609
        k(   26) = (   0.1111111   0.2222222   0.3333333), wk =   0.0329218
        k(   27) = (   0.1111111   0.2222222   0.4444444), wk =   0.0658436
        k(   28) = (   0.1111111   0.2222222  -0.4444444), wk =   0.0658436
        k(   29) = (   0.1111111   0.3333333   0.4444444), wk =   0.0329218
        k(   30) = (   0.1111111   0.3333333  -0.4444444), wk =   0.0658436
        k(   31) = (   0.1111111   0.3333333  -0.3333333), wk =   0.0658436
        k(   32) = (   0.1111111   0.3333333  -0.2222222), wk =   0.0329218
        k(   33) = (   0.1111111   0.4444444  -0.4444444), wk =   0.0329218
        k(   34) = (   0.1111111   0.4444444  -0.3333333), wk =   0.0329218
        k(   35) = (   0.2222222   0.4444444  -0.3333333), wk =   0.0329218

     Dense  grid:   280209 G-vectors     FFT dimensions: (  96,  96,  96)

     Smooth grid:    98741 G-vectors     FFT dimensions: (  72,  72,  72)

     Dynamical RAM for                 wfc:       7.93 MB

     Dynamical RAM for     wfc (w. buffer):     562.90 MB

     Dynamical RAM for           str. fact:      12.83 MB

     Dynamical RAM for           local pot:       0.00 MB

     Dynamical RAM for          nlocal pot:      16.99 MB

     Dynamical RAM for                qrad:       5.70 MB

     Dynamical RAM for          rho,v,vnew:      66.15 MB

     Dynamical RAM for               rhoin:      22.05 MB

     Dynamical RAM for            rho*nmix:     136.82 MB

     Dynamical RAM for           G-vectors:      16.79 MB

     Dynamical RAM for          h,s,v(r/c):       0.32 MB

     Dynamical RAM for          <psi|beta>:       0.06 MB

     Dynamical RAM for                 psi:      15.86 MB

     Dynamical RAM for                hpsi:      15.86 MB

     Dynamical RAM for                spsi:      15.86 MB

     Dynamical RAM for      wfcinit/wfcrot:      17.04 MB

     Dynamical RAM for           addusdens:     825.20 MB

     Dynamical RAM for          addusforce:     868.00 MB

     Dynamical RAM for         addusstress:     865.82 MB

     Estimated static dynamical RAM per process >     761.01 MB

     Estimated max dynamical RAM per process >       1.72 GB
     Generating pointlists ...
     new r_m :   0.1225 (alat units)  1.4816 (a.u.) for type    1
     new r_m :   0.1225 (alat units)  1.4816 (a.u.) for type    2
     new r_m :   0.1692 (alat units)  2.0460 (a.u.) for type    3

     Initial potential from superposition of free atoms

     starting charge      69.9973, renormalised to      70.0000
     Starting wfcs are   45 randomized atomic wfcs
     Checking if some PAW data can be deallocated... 

     total cpu time spent up to now is        6.5 secs

     per-process dynamical memory:  1404.2 Mb

     Self-consistent Calculation
[tb_dev] Currently allocated     1.37E+01 Mbytes, locked:    0 /  15
[tb_pin] Currently allocated     0.00E+00 Mbytes, locked:    0 /   0

     iteration #  1     ecut=    70.00 Ry     beta= 0.40
     Davidson diagonalization with overlap

---- Real-time Memory Report at c_bands before calling an iterative solver
          1647 MiB given to the printing process from OS
          1395 MiB allocation reported by mallinfo(arena+hblkhd)
         57543 MiB available memory on the node where the printing process lives
     GPU memory used/free/total (MiB): 1454 / 14826 / 16280
------------------
     ethr =  1.00E-02,  avg # of iterations =  2.0

     total cpu time spent up to now is       10.7 secs

     total energy              =    -623.44925313 Ry
     estimated scf accuracy    <       3.42264844 Ry

     total magnetization       =     6.00 Bohr mag/cell
     absolute magnetization    =     6.29 Bohr mag/cell
[tb_dev] Currently allocated     1.37E+01 Mbytes, locked:    0 /  13
[tb_pin] Currently allocated     0.00E+00 Mbytes, locked:    0 /   0

     iteration #  2     ecut=    70.00 Ry     beta= 0.40
     Davidson diagonalization with overlap

---- Real-time Memory Report at c_bands before calling an iterative solver
          1777 MiB given to the printing process from OS
          1458 MiB allocation reported by mallinfo(arena+hblkhd)
         57486 MiB available memory on the node where the printing process lives
     GPU memory used/free/total (MiB): 2504 / 13776 / 16280
------------------
     ethr =  4.89E-03,  avg # of iterations =  3.0

     total cpu time spent up to now is       15.8 secs

     total energy              =    -623.44082033 Ry
     estimated scf accuracy    <      15.76725993 Ry

     total magnetization       =    12.42 Bohr mag/cell
     absolute magnetization    =    12.49 Bohr mag/cell
[tb_dev] Currently allocated     1.37E+01 Mbytes, locked:    0 /  13
[tb_pin] Currently allocated     0.00E+00 Mbytes, locked:    0 /   0

     iteration #  3     ecut=    70.00 Ry     beta= 0.40
     Davidson diagonalization with overlap

---- Real-time Memory Report at c_bands before calling an iterative solver
          1854 MiB given to the printing process from OS
          1469 MiB allocation reported by mallinfo(arena+hblkhd)
         57475 MiB available memory on the node where the printing process lives
     GPU memory used/free/total (MiB): 2696 / 13584 / 16280
------------------
     ethr =  4.89E-03,  avg # of iterations =  2.0

     total cpu time spent up to now is       20.0 secs

     total energy              =    -624.76740843 Ry
     estimated scf accuracy    <       2.64056972 Ry

     total magnetization       =     5.51 Bohr mag/cell
     absolute magnetization    =     5.76 Bohr mag/cell
[tb_dev] Currently allocated     1.37E+01 Mbytes, locked:    0 /  13
[tb_pin] Currently allocated     0.00E+00 Mbytes, locked:    0 /   0

     iteration #  4     ecut=    70.00 Ry     beta= 0.40
     Davidson diagonalization with overlap

---- Real-time Memory Report at c_bands before calling an iterative solver
          1929 MiB given to the printing process from OS
          1480 MiB allocation reported by mallinfo(arena+hblkhd)
         57462 MiB available memory on the node where the printing process lives
     GPU memory used/free/total (MiB): 2696 / 13584 / 16280
------------------
     ethr =  3.77E-03,  avg # of iterations =  1.0

     total cpu time spent up to now is       23.9 secs

     total energy              =    -624.73586414 Ry
     estimated scf accuracy    <       0.92852329 Ry

     total magnetization       =     6.00 Bohr mag/cell
     absolute magnetization    =     6.30 Bohr mag/cell
[tb_dev] Currently allocated     1.37E+01 Mbytes, locked:    0 /  13
[tb_pin] Currently allocated     0.00E+00 Mbytes, locked:    0 /   0

     iteration #  5     ecut=    70.00 Ry     beta= 0.40
     Davidson diagonalization with overlap

---- Real-time Memory Report at c_bands before calling an iterative solver
          2001 MiB given to the printing process from OS
          1488 MiB allocation reported by mallinfo(arena+hblkhd)
         57458 MiB available memory on the node where the printing process lives
     GPU memory used/free/total (MiB): 2696 / 13584 / 16280
------------------
     ethr =  1.33E-03,  avg # of iterations =  2.0

     total cpu time spent up to now is       28.1 secs

     total energy              =    -624.71262641 Ry
     estimated scf accuracy    <       1.44559647 Ry

     total magnetization       =     6.66 Bohr mag/cell
     absolute magnetization    =     6.76 Bohr mag/cell
[tb_dev] Currently allocated     1.37E+01 Mbytes, locked:    0 /  13
[tb_pin] Currently allocated     0.00E+00 Mbytes, locked:    0 /   0

     iteration #  6     ecut=    70.00 Ry     beta= 0.40
     Davidson diagonalization with overlap

---- Real-time Memory Report at c_bands before calling an iterative solver
          2077 MiB given to the printing process from OS
          1499 MiB allocation reported by mallinfo(arena+hblkhd)
         57445 MiB available memory on the node where the printing process lives
     GPU memory used/free/total (MiB): 2696 / 13584 / 16280
------------------
     ethr =  1.33E-03,  avg # of iterations =  1.5
     Minimization algorithm failed to find Fermi energy: reverting to bisection
     Possible cause: smearing is larger than the electronic band-gap.

     total cpu time spent up to now is       32.1 secs

     total energy              =    -625.01007082 Ry
     estimated scf accuracy    <       1.03303286 Ry

     total magnetization       =    11.75 Bohr mag/cell
     absolute magnetization    =    11.79 Bohr mag/cell
[tb_dev] Currently allocated     1.37E+01 Mbytes, locked:    0 /  13
[tb_pin] Currently allocated     0.00E+00 Mbytes, locked:    0 /   0

     iteration #  7     ecut=    70.00 Ry     beta= 0.40
     Davidson diagonalization with overlap

---- Real-time Memory Report at c_bands before calling an iterative solver
          2146 MiB given to the printing process from OS
          1504 MiB allocation reported by mallinfo(arena+hblkhd)
         57443 MiB available memory on the node where the printing process lives
     GPU memory used/free/total (MiB): 2696 / 13584 / 16280
------------------
     ethr =  1.33E-03,  avg # of iterations =  1.0
     Minimization algorithm failed to find Fermi energy: reverting to bisection
     Possible cause: smearing is larger than the electronic band-gap.

     total cpu time spent up to now is       36.0 secs

     total energy              =    -625.01705863 Ry
     estimated scf accuracy    <       0.91492743 Ry

     total magnetization       =    11.69 Bohr mag/cell
     absolute magnetization    =    11.74 Bohr mag/cell
[tb_dev] Currently allocated     1.37E+01 Mbytes, locked:    0 /  13
[tb_pin] Currently allocated     0.00E+00 Mbytes, locked:    0 /   0

     iteration #  8     ecut=    70.00 Ry     beta= 0.40
     Davidson diagonalization with overlap

---- Real-time Memory Report at c_bands before calling an iterative solver
          2219 MiB given to the printing process from OS
          1515 MiB allocation reported by mallinfo(arena+hblkhd)
         57430 MiB available memory on the node where the printing process lives
     GPU memory used/free/total (MiB): 2696 / 13584 / 16280
------------------
     ethr =  1.31E-03,  avg # of iterations =  1.0
     Minimization algorithm failed to find Fermi energy: reverting to bisection
     Possible cause: smearing is larger than the electronic band-gap.

     total cpu time spent up to now is       39.9 secs

     total energy              =    -624.97964318 Ry
     estimated scf accuracy    <       0.85441966 Ry

     total magnetization       =    11.92 Bohr mag/cell
     absolute magnetization    =    11.96 Bohr mag/cell
[tb_dev] Currently allocated     1.37E+01 Mbytes, locked:    0 /  13
[tb_pin] Currently allocated     0.00E+00 Mbytes, locked:    0 /   0

     iteration #  9     ecut=    70.00 Ry     beta= 0.40
     Davidson diagonalization with overlap

---- Real-time Memory Report at c_bands before calling an iterative solver
          2262 MiB given to the printing process from OS
          1526 MiB allocation reported by mallinfo(arena+hblkhd)
         57422 MiB available memory on the node where the printing process lives
     GPU memory used/free/total (MiB): 2696 / 13584 / 16280
------------------
     ethr =  1.22E-03,  avg # of iterations =  1.1
     Minimization algorithm failed to find Fermi energy: reverting to bisection
     Possible cause: smearing is larger than the electronic band-gap.

     total cpu time spent up to now is       43.9 secs

     total energy              =    -624.88839141 Ry
     estimated scf accuracy    <       0.48016356 Ry

     total magnetization       =    11.95 Bohr mag/cell
     absolute magnetization    =    12.01 Bohr mag/cell
[tb_dev] Currently allocated     1.37E+01 Mbytes, locked:    0 /  13
[tb_pin] Currently allocated     0.00E+00 Mbytes, locked:    0 /   0

     iteration # 10     ecut=    70.00 Ry     beta= 0.40
     Davidson diagonalization with overlap

---- Real-time Memory Report at c_bands before calling an iterative solver
          2297 MiB given to the printing process from OS
          1540 MiB allocation reported by mallinfo(arena+hblkhd)
         57406 MiB available memory on the node where the printing process lives
     GPU memory used/free/total (MiB): 2696 / 13584 / 16280
------------------
     ethr =  6.86E-04,  avg # of iterations =  2.0

     total cpu time spent up to now is       48.3 secs

     total energy              =    -624.86133652 Ry
     estimated scf accuracy    <       1.04118252 Ry

     total magnetization       =     7.45 Bohr mag/cell
     absolute magnetization    =     7.62 Bohr mag/cell
[tb_dev] Currently allocated     1.37E+01 Mbytes, locked:    0 /  13
[tb_pin] Currently allocated     0.00E+00 Mbytes, locked:    0 /   0

     iteration # 11     ecut=    70.00 Ry     beta= 0.40
     Davidson diagonalization with overlap

---- Real-time Memory Report at c_bands before calling an iterative solver
          2319 MiB given to the printing process from OS
          1542 MiB allocation reported by mallinfo(arena+hblkhd)
         57406 MiB available memory on the node where the printing process lives
     GPU memory used/free/total (MiB): 2742 / 13538 / 16280
------------------
     ethr =  6.86E-04,  avg # of iterations =  1.0

     total cpu time spent up to now is       52.2 secs

     total energy              =    -624.98201027 Ry
     estimated scf accuracy    <       0.25459199 Ry

     total magnetization       =    11.34 Bohr mag/cell
     absolute magnetization    =    11.41 Bohr mag/cell
[tb_dev] Currently allocated     1.37E+01 Mbytes, locked:    0 /  13
[tb_pin] Currently allocated     0.00E+00 Mbytes, locked:    0 /   0

     iteration # 12     ecut=    70.00 Ry     beta= 0.40
     Davidson diagonalization with overlap

---- Real-time Memory Report at c_bands before calling an iterative solver
          2341 MiB given to the printing process from OS
          1543 MiB allocation reported by mallinfo(arena+hblkhd)
         57402 MiB available memory on the node where the printing process lives
     GPU memory used/free/total (MiB): 2742 / 13538 / 16280
------------------
     ethr =  3.64E-04,  avg # of iterations =  2.8

     total cpu time spent up to now is       56.6 secs

     total energy              =    -624.98837899 Ry
     estimated scf accuracy    <       0.15045366 Ry

     total magnetization       =    10.51 Bohr mag/cell
     absolute magnetization    =    10.68 Bohr mag/cell
[tb_dev] Currently allocated     1.37E+01 Mbytes, locked:    0 /  13
[tb_pin] Currently allocated     0.00E+00 Mbytes, locked:    0 /   0

     iteration # 13     ecut=    70.00 Ry     beta= 0.40
     Davidson diagonalization with overlap

---- Real-time Memory Report at c_bands before calling an iterative solver
          2362 MiB given to the printing process from OS
          1545 MiB allocation reported by mallinfo(arena+hblkhd)
         57404 MiB available memory on the node where the printing process lives
     GPU memory used/free/total (MiB): 2742 / 13538 / 16280
------------------
     ethr =  2.15E-04,  avg # of iterations =  3.7

     total cpu time spent up to now is       61.4 secs

     total energy              =    -624.98354565 Ry
     estimated scf accuracy    <       0.29282524 Ry

     total magnetization       =     8.96 Bohr mag/cell
     absolute magnetization    =     9.34 Bohr mag/cell
[tb_dev] Currently allocated     1.37E+01 Mbytes, locked:    0 /  13
[tb_pin] Currently allocated     0.00E+00 Mbytes, locked:    0 /   0

     iteration # 14     ecut=    70.00 Ry     beta= 0.40
     Davidson diagonalization with overlap

---- Real-time Memory Report at c_bands before calling an iterative solver
          2384 MiB given to the printing process from OS
          1547 MiB allocation reported by mallinfo(arena+hblkhd)
         57399 MiB available memory on the node where the printing process lives
     GPU memory used/free/total (MiB): 2742 / 13538 / 16280
------------------
     ethr =  2.15E-04,  avg # of iterations =  1.4

     total cpu time spent up to now is       65.5 secs

     total energy              =    -625.00106234 Ry
     estimated scf accuracy    <       0.15712288 Ry

     total magnetization       =    10.79 Bohr mag/cell
     absolute magnetization    =    10.99 Bohr mag/cell
[tb_dev] Currently allocated     1.37E+01 Mbytes, locked:    0 /  13
[tb_pin] Currently allocated     0.00E+00 Mbytes, locked:    0 /   0

     iteration # 15     ecut=    70.00 Ry     beta= 0.40
     Davidson diagonalization with overlap

---- Real-time Memory Report at c_bands before calling an iterative solver
          2407 MiB given to the printing process from OS
          1549 MiB allocation reported by mallinfo(arena+hblkhd)
         57400 MiB available memory on the node where the printing process lives
     GPU memory used/free/total (MiB): 2742 / 13538 / 16280
------------------
     ethr =  2.15E-04,  avg # of iterations =  1.1

     total cpu time spent up to now is       69.4 secs

     total energy              =    -625.02774907 Ry
     estimated scf accuracy    <       0.26633477 Ry

     total magnetization       =     9.07 Bohr mag/cell
     absolute magnetization    =     9.41 Bohr mag/cell
[tb_dev] Currently allocated     1.37E+01 Mbytes, locked:    0 /  13
[tb_pin] Currently allocated     0.00E+00 Mbytes, locked:    0 /   0

     iteration # 16     ecut=    70.00 Ry     beta= 0.40
     Davidson diagonalization with overlap

---- Real-time Memory Report at c_bands before calling an iterative solver
          2430 MiB given to the printing process from OS
          1551 MiB allocation reported by mallinfo(arena+hblkhd)
         57396 MiB available memory on the node where the printing process lives
     GPU memory used/free/total (MiB): 2742 / 13538 / 16280
------------------
     ethr =  2.15E-04,  avg # of iterations =  1.0

     total cpu time spent up to now is       73.4 secs

     total energy              =    -625.02641000 Ry
     estimated scf accuracy    <       0.66077812 Ry

     total magnetization       =     7.95 Bohr mag/cell
     absolute magnetization    =     8.35 Bohr mag/cell
[tb_dev] Currently allocated     1.37E+01 Mbytes, locked:    0 /  13
[tb_pin] Currently allocated     0.00E+00 Mbytes, locked:    0 /   0

     iteration # 17     ecut=    70.00 Ry     beta= 0.40
     Davidson diagonalization with overlap

---- Real-time Memory Report at c_bands before calling an iterative solver
          2452 MiB given to the printing process from OS
          1553 MiB allocation reported by mallinfo(arena+hblkhd)
         57393 MiB available memory on the node where the printing process lives
     GPU memory used/free/total (MiB): 2742 / 13538 / 16280
------------------
     ethr =  2.15E-04,  avg # of iterations =  1.0

     total cpu time spent up to now is       77.3 secs

     total energy              =    -625.02875449 Ry
     estimated scf accuracy    <       0.21816068 Ry

     total magnetization       =     9.67 Bohr mag/cell
     absolute magnetization    =     9.91 Bohr mag/cell
[tb_dev] Currently allocated     1.37E+01 Mbytes, locked:    0 /  13
[tb_pin] Currently allocated     0.00E+00 Mbytes, locked:    0 /   0

     iteration # 18     ecut=    70.00 Ry     beta= 0.40
     Davidson diagonalization with overlap

---- Real-time Memory Report at c_bands before calling an iterative solver
          2474 MiB given to the printing process from OS
          1555 MiB allocation reported by mallinfo(arena+hblkhd)
         57391 MiB available memory on the node where the printing process lives
     GPU memory used/free/total (MiB): 2742 / 13538 / 16280
------------------
     ethr =  2.15E-04,  avg # of iterations =  1.0

     total cpu time spent up to now is       81.2 secs

     total energy              =    -625.03304532 Ry
     estimated scf accuracy    <       0.20003511 Ry

     total magnetization       =    10.06 Bohr mag/cell
     absolute magnetization    =    10.27 Bohr mag/cell
[tb_dev] Currently allocated     1.37E+01 Mbytes, locked:    0 /  13
[tb_pin] Currently allocated     0.00E+00 Mbytes, locked:    0 /   0

     iteration # 19     ecut=    70.00 Ry     beta= 0.40
     Davidson diagonalization with overlap

---- Real-time Memory Report at c_bands before calling an iterative solver
          2484 MiB given to the printing process from OS
          1557 MiB allocation reported by mallinfo(arena+hblkhd)
         57391 MiB available memory on the node where the printing process lives
     GPU memory used/free/total (MiB): 2742 / 13538 / 16280
------------------
     ethr =  2.15E-04,  avg # of iterations =  1.0

     total cpu time spent up to now is       85.1 secs

     total energy              =    -624.92838082 Ry
     estimated scf accuracy    <       0.28546976 Ry

     total magnetization       =    10.90 Bohr mag/cell
     absolute magnetization    =    11.03 Bohr mag/cell
[tb_dev] Currently allocated     1.37E+01 Mbytes, locked:    0 /  13
[tb_pin] Currently allocated     0.00E+00 Mbytes, locked:    0 /   0

     iteration # 20     ecut=    70.00 Ry     beta= 0.40
     Davidson diagonalization with overlap

---- Real-time Memory Report at c_bands before calling an iterative solver
          2486 MiB given to the printing process from OS
          1559 MiB allocation reported by mallinfo(arena+hblkhd)
         57388 MiB available memory on the node where the printing process lives
     GPU memory used/free/total (MiB): 2742 / 13538 / 16280
------------------
     ethr =  2.15E-04,  avg # of iterations =  2.5

     total cpu time spent up to now is       89.8 secs

     total energy              =    -624.77438356 Ry
     estimated scf accuracy    <       2.66191633 Ry

     total magnetization       =     6.00 Bohr mag/cell
     absolute magnetization    =     6.52 Bohr mag/cell
[tb_dev] Currently allocated     1.37E+01 Mbytes, locked:    0 /  13
[tb_pin] Currently allocated     0.00E+00 Mbytes, locked:    0 /   0

     iteration # 21     ecut=    70.00 Ry     beta= 0.40
     Davidson diagonalization with overlap

---- Real-time Memory Report at c_bands before calling an iterative solver
          2488 MiB given to the printing process from OS
          1561 MiB allocation reported by mallinfo(arena+hblkhd)
         57390 MiB available memory on the node where the printing process lives
     GPU memory used/free/total (MiB): 2794 / 13486 / 16280
------------------
     ethr =  2.15E-04,  avg # of iterations =  2.5

     total cpu time spent up to now is       94.6 secs

     total energy              =    -625.06009969 Ry
     estimated scf accuracy    <       0.39920618 Ry

     total magnetization       =    11.53 Bohr mag/cell
     absolute magnetization    =    11.61 Bohr mag/cell
[tb_dev] Currently allocated     1.37E+01 Mbytes, locked:    0 /  13
[tb_pin] Currently allocated     0.00E+00 Mbytes, locked:    0 /   0

     iteration # 22     ecut=    70.00 Ry     beta= 0.40
     Davidson diagonalization with overlap

---- Real-time Memory Report at c_bands before calling an iterative solver
          2489 MiB given to the printing process from OS
          1563 MiB allocation reported by mallinfo(arena+hblkhd)
         57388 MiB available memory on the node where the printing process lives
     GPU memory used/free/total (MiB): 2794 / 13486 / 16280
------------------
     ethr =  2.15E-04,  avg # of iterations =  1.0

     total cpu time spent up to now is       98.5 secs

     total energy              =    -625.08079215 Ry
     estimated scf accuracy    <       0.40600646 Ry

     total magnetization       =    11.17 Bohr mag/cell
     absolute magnetization    =    11.25 Bohr mag/cell
[tb_dev] Currently allocated     1.37E+01 Mbytes, locked:    0 /  13
[tb_pin] Currently allocated     0.00E+00 Mbytes, locked:    0 /   0

     iteration # 23     ecut=    70.00 Ry     beta= 0.40
     Davidson diagonalization with overlap

---- Real-time Memory Report at c_bands before calling an iterative solver
          2492 MiB given to the printing process from OS
          1565 MiB allocation reported by mallinfo(arena+hblkhd)
         57386 MiB available memory on the node where the printing process lives
     GPU memory used/free/total (MiB): 2794 / 13486 / 16280
------------------
     ethr =  2.15E-04,  avg # of iterations =  1.0

     total cpu time spent up to now is      102.4 secs

     total energy              =    -625.08716046 Ry
     estimated scf accuracy    <       0.37625911 Ry

     total magnetization       =     9.83 Bohr mag/cell
     absolute magnetization    =    10.13 Bohr mag/cell
[tb_dev] Currently allocated     1.37E+01 Mbytes, locked:    0 /  13
[tb_pin] Currently allocated     0.00E+00 Mbytes, locked:    0 /   0

     iteration # 24     ecut=    70.00 Ry     beta= 0.40
     Davidson diagonalization with overlap

---- Real-time Memory Report at c_bands before calling an iterative solver
          2494 MiB given to the printing process from OS
          1567 MiB allocation reported by mallinfo(arena+hblkhd)
         57382 MiB available memory on the node where the printing process lives
     GPU memory used/free/total (MiB): 2794 / 13486 / 16280
------------------
     ethr =  2.15E-04,  avg # of iterations =  1.0

     total cpu time spent up to now is      106.4 secs

     total energy              =    -625.08713633 Ry
     estimated scf accuracy    <       0.40179722 Ry

     total magnetization       =     9.90 Bohr mag/cell
     absolute magnetization    =    10.18 Bohr mag/cell
[tb_dev] Currently allocated     1.37E+01 Mbytes, locked:    0 /  13
[tb_pin] Currently allocated     0.00E+00 Mbytes, locked:    0 /   0

     iteration # 25     ecut=    70.00 Ry     beta= 0.40
     Davidson diagonalization with overlap

---- Real-time Memory Report at c_bands before calling an iterative solver
          2495 MiB given to the printing process from OS
          1569 MiB allocation reported by mallinfo(arena+hblkhd)
         57380 MiB available memory on the node where the printing process lives
     GPU memory used/free/total (MiB): 2794 / 13486 / 16280
------------------
     ethr =  2.15E-04,  avg # of iterations =  1.0

     total cpu time spent up to now is      110.3 secs

     total energy              =    -625.09572778 Ry
     estimated scf accuracy    <       0.44057643 Ry

     total magnetization       =     8.53 Bohr mag/cell
     absolute magnetization    =     9.02 Bohr mag/cell
[tb_dev] Currently allocated     1.37E+01 Mbytes, locked:    0 /  13
[tb_pin] Currently allocated     0.00E+00 Mbytes, locked:    0 /   0

     iteration # 26     ecut=    70.00 Ry     beta= 0.40
     Davidson diagonalization with overlap

---- Real-time Memory Report at c_bands before calling an iterative solver
          2500 MiB given to the printing process from OS
          1571 MiB allocation reported by mallinfo(arena+hblkhd)
         57378 MiB available memory on the node where the printing process lives
     GPU memory used/free/total (MiB): 2794 / 13486 / 16280
------------------
     ethr =  2.15E-04,  avg # of iterations =  1.0

     total cpu time spent up to now is      114.1 secs

     total energy              =    -625.07909217 Ry
     estimated scf accuracy    <       0.47209392 Ry

     total magnetization       =     8.30 Bohr mag/cell
     absolute magnetization    =     8.86 Bohr mag/cell
[tb_dev] Currently allocated     1.37E+01 Mbytes, locked:    0 /  13
[tb_pin] Currently allocated     0.00E+00 Mbytes, locked:    0 /   0

     iteration # 27     ecut=    70.00 Ry     beta= 0.40
     Davidson diagonalization with overlap

---- Real-time Memory Report at c_bands before calling an iterative solver
          2503 MiB given to the printing process from OS
          1573 MiB allocation reported by mallinfo(arena+hblkhd)
         57377 MiB available memory on the node where the printing process lives
     GPU memory used/free/total (MiB): 2794 / 13486 / 16280
------------------
     ethr =  2.15E-04,  avg # of iterations =  1.0

     total cpu time spent up to now is      118.0 secs

     total energy              =    -625.09454082 Ry
     estimated scf accuracy    <       0.38470971 Ry

     total magnetization       =     7.96 Bohr mag/cell
     absolute magnetization    =     8.82 Bohr mag/cell
[tb_dev] Currently allocated     1.37E+01 Mbytes, locked:    0 /  13
[tb_pin] Currently allocated     0.00E+00 Mbytes, locked:    0 /   0

     iteration # 28     ecut=    70.00 Ry     beta= 0.40
     Davidson diagonalization with overlap

---- Real-time Memory Report at c_bands before calling an iterative solver
          2505 MiB given to the printing process from OS
          1575 MiB allocation reported by mallinfo(arena+hblkhd)
         57375 MiB available memory on the node where the printing process lives
     GPU memory used/free/total (MiB): 2794 / 13486 / 16280
------------------
     ethr =  2.15E-04,  avg # of iterations =  1.0

     total cpu time spent up to now is      121.9 secs

     total energy              =    -625.07989565 Ry
     estimated scf accuracy    <       0.47733269 Ry

     total magnetization       =     8.97 Bohr mag/cell
     absolute magnetization    =     9.31 Bohr mag/cell
[tb_dev] Currently allocated     1.37E+01 Mbytes, locked:    0 /  13
[tb_pin] Currently allocated     0.00E+00 Mbytes, locked:    0 /   0

     iteration # 29     ecut=    70.00 Ry     beta= 0.40
     Davidson diagonalization with overlap

---- Real-time Memory Report at c_bands before calling an iterative solver
          2505 MiB given to the printing process from OS
          1577 MiB allocation reported by mallinfo(arena+hblkhd)
         57376 MiB available memory on the node where the printing process lives
     GPU memory used/free/total (MiB): 2794 / 13486 / 16280
------------------
     ethr =  2.15E-04,  avg # of iterations =  1.0

     total cpu time spent up to now is      125.8 secs

     total energy              =    -624.87757337 Ry
     estimated scf accuracy    <       0.42967298 Ry

     total magnetization       =     9.26 Bohr mag/cell
     absolute magnetization    =     9.57 Bohr mag/cell
[tb_dev] Currently allocated     1.37E+01 Mbytes, locked:    0 /  13
[tb_pin] Currently allocated     0.00E+00 Mbytes, locked:    0 /   0

     iteration # 30     ecut=    70.00 Ry     beta= 0.40
     Davidson diagonalization with overlap

---- Real-time Memory Report at c_bands before calling an iterative solver
          2509 MiB given to the printing process from OS
          1579 MiB allocation reported by mallinfo(arena+hblkhd)
         57374 MiB available memory on the node where the printing process lives
     GPU memory used/free/total (MiB): 2794 / 13486 / 16280
------------------
     ethr =  2.15E-04,  avg # of iterations =  3.0

     total cpu time spent up to now is      130.8 secs

     total energy              =    -624.63002330 Ry
     estimated scf accuracy    <       2.18682205 Ry

     total magnetization       =     6.00 Bohr mag/cell
     absolute magnetization    =     6.20 Bohr mag/cell
[tb_dev] Currently allocated     1.37E+01 Mbytes, locked:    0 /  13
[tb_pin] Currently allocated     0.00E+00 Mbytes, locked:    0 /   0

     iteration # 31     ecut=    70.00 Ry     beta= 0.40
     Davidson diagonalization with overlap

---- Real-time Memory Report at c_bands before calling an iterative solver
          2512 MiB given to the printing process from OS
          1582 MiB allocation reported by mallinfo(arena+hblkhd)
         57367 MiB available memory on the node where the printing process lives
     GPU memory used/free/total (MiB): 2928 / 13352 / 16280
------------------
     ethr =  2.15E-04,  avg # of iterations =  3.0

     total cpu time spent up to now is      135.9 secs

     total energy              =    -625.02646496 Ry
     estimated scf accuracy    <       0.40903356 Ry

     total magnetization       =     6.25 Bohr mag/cell
     absolute magnetization    =     9.96 Bohr mag/cell
[tb_dev] Currently allocated     1.37E+01 Mbytes, locked:    0 /  13
[tb_pin] Currently allocated     0.00E+00 Mbytes, locked:    0 /   0

     iteration # 32     ecut=    70.00 Ry     beta= 0.40
     Davidson diagonalization with overlap

---- Real-time Memory Report at c_bands before calling an iterative solver
          2513 MiB given to the printing process from OS
          1584 MiB allocation reported by mallinfo(arena+hblkhd)
         57370 MiB available memory on the node where the printing process lives
     GPU memory used/free/total (MiB): 2928 / 13352 / 16280
------------------
     ethr =  2.15E-04,  avg # of iterations =  1.0

     total cpu time spent up to now is      139.8 secs

     total energy              =    -625.05115834 Ry
     estimated scf accuracy    <       0.30466047 Ry

     total magnetization       =     9.50 Bohr mag/cell
     absolute magnetization    =     9.76 Bohr mag/cell
[tb_dev] Currently allocated     1.37E+01 Mbytes, locked:    0 /  13
[tb_pin] Currently allocated     0.00E+00 Mbytes, locked:    0 /   0

     iteration # 33     ecut=    70.00 Ry     beta= 0.40
     Davidson diagonalization with overlap

---- Real-time Memory Report at c_bands before calling an iterative solver
          2515 MiB given to the printing process from OS
          1586 MiB allocation reported by mallinfo(arena+hblkhd)
         57368 MiB available memory on the node where the printing process lives
     GPU memory used/free/total (MiB): 2928 / 13352 / 16280
------------------
     ethr =  2.15E-04,  avg # of iterations =  1.0

     total cpu time spent up to now is      143.6 secs

     total energy              =    -625.02584569 Ry
     estimated scf accuracy    <       0.25198946 Ry

     total magnetization       =     9.97 Bohr mag/cell
     absolute magnetization    =    10.15 Bohr mag/cell
[tb_dev] Currently allocated     1.37E+01 Mbytes, locked:    0 /  13
[tb_pin] Currently allocated     0.00E+00 Mbytes, locked:    0 /   0

     iteration # 34     ecut=    70.00 Ry     beta= 0.40
     Davidson diagonalization with overlap

---- Real-time Memory Report at c_bands before calling an iterative solver
          2517 MiB given to the printing process from OS
          1588 MiB allocation reported by mallinfo(arena+hblkhd)
         57367 MiB available memory on the node where the printing process lives
     GPU memory used/free/total (MiB): 2928 / 13352 / 16280
------------------
     ethr =  2.15E-04,  avg # of iterations =  1.0

     total cpu time spent up to now is      147.5 secs

     total energy              =    -624.97831573 Ry
     estimated scf accuracy    <       0.18404498 Ry

     total magnetization       =     9.74 Bohr mag/cell
     absolute magnetization    =     9.95 Bohr mag/cell
[tb_dev] Currently allocated     1.37E+01 Mbytes, locked:    0 /  13
[tb_pin] Currently allocated     0.00E+00 Mbytes, locked:    0 /   0

     iteration # 35     ecut=    70.00 Ry     beta= 0.40
     Davidson diagonalization with overlap

---- Real-time Memory Report at c_bands before calling an iterative solver
          2520 MiB given to the printing process from OS
          1590 MiB allocation reported by mallinfo(arena+hblkhd)
         57364 MiB available memory on the node where the printing process lives
     GPU memory used/free/total (MiB): 2928 / 13352 / 16280
------------------
     ethr =  2.15E-04,  avg # of iterations =  1.5

     total cpu time spent up to now is      151.6 secs

     total energy              =    -625.03372209 Ry
     estimated scf accuracy    <       0.11284001 Ry

     total magnetization       =    10.92 Bohr mag/cell
     absolute magnetization    =    11.04 Bohr mag/cell
[tb_dev] Currently allocated     1.37E+01 Mbytes, locked:    0 /  13
[tb_pin] Currently allocated     0.00E+00 Mbytes, locked:    0 /   0

     iteration # 36     ecut=    70.00 Ry     beta= 0.40
     Davidson diagonalization with overlap

---- Real-time Memory Report at c_bands before calling an iterative solver
          2521 MiB given to the printing process from OS
          1592 MiB allocation reported by mallinfo(arena+hblkhd)
         57362 MiB available memory on the node where the printing process lives
     GPU memory used/free/total (MiB): 2928 / 13352 / 16280
------------------
     ethr =  1.61E-04,  avg # of iterations =  2.0

     total cpu time spent up to now is      156.0 secs

     total energy              =    -625.06322738 Ry
     estimated scf accuracy    <       0.23770073 Ry

     total magnetization       =    10.20 Bohr mag/cell
     absolute magnetization    =    10.36 Bohr mag/cell
[tb_dev] Currently allocated     1.37E+01 Mbytes, locked:    0 /  13
[tb_pin] Currently allocated     0.00E+00 Mbytes, locked:    0 /   0

     iteration # 37     ecut=    70.00 Ry     beta= 0.40
     Davidson diagonalization with overlap

---- Real-time Memory Report at c_bands before calling an iterative solver
          2521 MiB given to the printing process from OS
          1594 MiB allocation reported by mallinfo(arena+hblkhd)
         57359 MiB available memory on the node where the printing process lives
     GPU memory used/free/total (MiB): 3008 / 13272 / 16280
------------------
     ethr =  1.61E-04,  avg # of iterations =  1.0

     total cpu time spent up to now is      159.9 secs

     total energy              =    -625.08445333 Ry
     estimated scf accuracy    <       0.32008775 Ry

     total magnetization       =     9.03 Bohr mag/cell
     absolute magnetization    =     9.46 Bohr mag/cell
[tb_dev] Currently allocated     1.37E+01 Mbytes, locked:    0 /  13
[tb_pin] Currently allocated     0.00E+00 Mbytes, locked:    0 /   0

     iteration # 38     ecut=    70.00 Ry     beta= 0.40
     Davidson diagonalization with overlap

---- Real-time Memory Report at c_bands before calling an iterative solver
          2523 MiB given to the printing process from OS
          1596 MiB allocation reported by mallinfo(arena+hblkhd)
         57358 MiB available memory on the node where the printing process lives
     GPU memory used/free/total (MiB): 3008 / 13272 / 16280
------------------
     ethr =  1.61E-04,  avg # of iterations =  1.0

     total cpu time spent up to now is      163.8 secs

     total energy              =    -625.00676022 Ry
     estimated scf accuracy    <       0.33808432 Ry

     total magnetization       =     9.50 Bohr mag/cell
     absolute magnetization    =     9.76 Bohr mag/cell
[tb_dev] Currently allocated     1.37E+01 Mbytes, locked:    0 /  13
[tb_pin] Currently allocated     0.00E+00 Mbytes, locked:    0 /   0

     iteration # 39     ecut=    70.00 Ry     beta= 0.40
     Davidson diagonalization with overlap

---- Real-time Memory Report at c_bands before calling an iterative solver
          2524 MiB given to the printing process from OS
          1598 MiB allocation reported by mallinfo(arena+hblkhd)
         57355 MiB available memory on the node where the printing process lives
     GPU memory used/free/total (MiB): 3008 / 13272 / 16280
------------------
     ethr =  1.61E-04,  avg # of iterations =  2.0

     total cpu time spent up to now is      168.0 secs

     total energy              =    -624.92544238 Ry
     estimated scf accuracy    <       0.15293672 Ry

     total magnetization       =    10.03 Bohr mag/cell
     absolute magnetization    =    10.20 Bohr mag/cell
[tb_dev] Currently allocated     1.37E+01 Mbytes, locked:    0 /  13
[tb_pin] Currently allocated     0.00E+00 Mbytes, locked:    0 /   0

     iteration # 40     ecut=    70.00 Ry     beta= 0.40
     Davidson diagonalization with overlap

---- Real-time Memory Report at c_bands before calling an iterative solver
          2529 MiB given to the printing process from OS
          1600 MiB allocation reported by mallinfo(arena+hblkhd)
         57351 MiB available memory on the node where the printing process lives
     GPU memory used/free/total (MiB): 3008 / 13272 / 16280
------------------
     ethr =  1.61E-04,  avg # of iterations =  2.5

     total cpu time spent up to now is      173.0 secs

     total energy              =    -624.79261711 Ry
     estimated scf accuracy    <       2.44315335 Ry

     total magnetization       =     6.00 Bohr mag/cell
     absolute magnetization    =     6.33 Bohr mag/cell
[tb_dev] Currently allocated     1.37E+01 Mbytes, locked:    0 /  13
[tb_pin] Currently allocated     0.00E+00 Mbytes, locked:    0 /   0

     iteration # 41     ecut=    70.00 Ry     beta= 0.40
     Davidson diagonalization with overlap

---- Real-time Memory Report at c_bands before calling an iterative solver
          2532 MiB given to the printing process from OS
          1602 MiB allocation reported by mallinfo(arena+hblkhd)
         57349 MiB available memory on the node where the printing process lives
     GPU memory used/free/total (MiB): 3008 / 13272 / 16280
------------------
     ethr =  1.61E-04,  avg # of iterations =  2.5

     total cpu time spent up to now is      177.8 secs

     total energy              =    -625.00247629 Ry
     estimated scf accuracy    <       0.18493883 Ry

     total magnetization       =     9.72 Bohr mag/cell
     absolute magnetization    =     9.95 Bohr mag/cell
[tb_dev] Currently allocated     1.37E+01 Mbytes, locked:    0 /  13
[tb_pin] Currently allocated     0.00E+00 Mbytes, locked:    0 /   0

     iteration # 42     ecut=    70.00 Ry     beta= 0.40
     Davidson diagonalization with overlap

---- Real-time Memory Report at c_bands before calling an iterative solver
          2534 MiB given to the printing process from OS
          1604 MiB allocation reported by mallinfo(arena+hblkhd)
         57345 MiB available memory on the node where the printing process lives
     GPU memory used/free/total (MiB): 3008 / 13272 / 16280
------------------
     ethr =  1.61E-04,  avg # of iterations =  1.0

     total cpu time spent up to now is      181.8 secs

     total energy              =    -625.00899355 Ry
     estimated scf accuracy    <       0.16152147 Ry

     total magnetization       =     9.97 Bohr mag/cell
     absolute magnetization    =    10.18 Bohr mag/cell
[tb_dev] Currently allocated     1.37E+01 Mbytes, locked:    0 /  13
[tb_pin] Currently allocated     0.00E+00 Mbytes, locked:    0 /   0

     iteration # 43     ecut=    70.00 Ry     beta= 0.40
     Davidson diagonalization with overlap

---- Real-time Memory Report at c_bands before calling an iterative solver
          2534 MiB given to the printing process from OS
          1606 MiB allocation reported by mallinfo(arena+hblkhd)
         57347 MiB available memory on the node where the printing process lives
     GPU memory used/free/total (MiB): 3008 / 13272 / 16280
------------------
     ethr =  1.61E-04,  avg # of iterations =  1.0

     total cpu time spent up to now is      185.7 secs

     total energy              =    -625.01391126 Ry
     estimated scf accuracy    <       0.14382245 Ry

     total magnetization       =     9.84 Bohr mag/cell
     absolute magnetization    =    10.05 Bohr mag/cell
[tb_dev] Currently allocated     1.37E+01 Mbytes, locked:    0 /  13
[tb_pin] Currently allocated     0.00E+00 Mbytes, locked:    0 /   0

     iteration # 44     ecut=    70.00 Ry     beta= 0.40
     Davidson diagonalization with overlap

---- Real-time Memory Report at c_bands before calling an iterative solver
          2535 MiB given to the printing process from OS
          1608 MiB allocation reported by mallinfo(arena+hblkhd)
         57346 MiB available memory on the node where the printing process lives
     GPU memory used/free/total (MiB): 3008 / 13272 / 16280
------------------
     ethr =  1.61E-04,  avg # of iterations =  1.0

     total cpu time spent up to now is      189.7 secs

     total energy              =    -625.01074596 Ry
     estimated scf accuracy    <       0.14878733 Ry

     total magnetization       =     9.78 Bohr mag/cell
     absolute magnetization    =    10.00 Bohr mag/cell
[tb_dev] Currently allocated     1.37E+01 Mbytes, locked:    0 /  13
[tb_pin] Currently allocated     0.00E+00 Mbytes, locked:    0 /   0

     iteration # 45     ecut=    70.00 Ry     beta= 0.40
     Davidson diagonalization with overlap

---- Real-time Memory Report at c_bands before calling an iterative solver
          2537 MiB given to the printing process from OS
          1610 MiB allocation reported by mallinfo(arena+hblkhd)
         57344 MiB available memory on the node where the printing process lives
     GPU memory used/free/total (MiB): 3008 / 13272 / 16280
------------------
     ethr =  1.61E-04,  avg # of iterations =  1.0

     total cpu time spent up to now is      193.6 secs

     total energy              =    -625.00730541 Ry
     estimated scf accuracy    <       0.14550668 Ry

     total magnetization       =     9.79 Bohr mag/cell
     absolute magnetization    =    10.01 Bohr mag/cell
[tb_dev] Currently allocated     1.37E+01 Mbytes, locked:    0 /  13
[tb_pin] Currently allocated     0.00E+00 Mbytes, locked:    0 /   0

     iteration # 46     ecut=    70.00 Ry     beta= 0.40
     Davidson diagonalization with overlap

---- Real-time Memory Report at c_bands before calling an iterative solver
          2538 MiB given to the printing process from OS
          1612 MiB allocation reported by mallinfo(arena+hblkhd)
         57342 MiB available memory on the node where the printing process lives
     GPU memory used/free/total (MiB): 3008 / 13272 / 16280
------------------
     ethr =  1.61E-04,  avg # of iterations =  1.0

     total cpu time spent up to now is      197.6 secs

     total energy              =    -625.00845461 Ry
     estimated scf accuracy    <       0.14747224 Ry

     total magnetization       =     9.85 Bohr mag/cell
     absolute magnetization    =    10.07 Bohr mag/cell
[tb_dev] Currently allocated     1.37E+01 Mbytes, locked:    0 /  13
[tb_pin] Currently allocated     0.00E+00 Mbytes, locked:    0 /   0

     iteration # 47     ecut=    70.00 Ry     beta= 0.40
     Davidson diagonalization with overlap

---- Real-time Memory Report at c_bands before calling an iterative solver
          2540 MiB given to the printing process from OS
          1614 MiB allocation reported by mallinfo(arena+hblkhd)
         57340 MiB available memory on the node where the printing process lives
     GPU memory used/free/total (MiB): 3008 / 13272 / 16280
------------------
     ethr =  1.61E-04,  avg # of iterations =  1.0

     total cpu time spent up to now is      201.5 secs

     total energy              =    -624.99770118 Ry
     estimated scf accuracy    <       0.14590895 Ry

     total magnetization       =     9.82 Bohr mag/cell
     absolute magnetization    =    10.04 Bohr mag/cell
[tb_dev] Currently allocated     1.37E+01 Mbytes, locked:    0 /  13
[tb_pin] Currently allocated     0.00E+00 Mbytes, locked:    0 /   0

     iteration # 48     ecut=    70.00 Ry     beta= 0.40
     Davidson diagonalization with overlap

---- Real-time Memory Report at c_bands before calling an iterative solver
          2543 MiB given to the printing process from OS
          1616 MiB allocation reported by mallinfo(arena+hblkhd)
         57338 MiB available memory on the node where the printing process lives
     GPU memory used/free/total (MiB): 3008 / 13272 / 16280
------------------
     ethr =  1.61E-04,  avg # of iterations =  1.0

     total cpu time spent up to now is      205.4 secs

     total energy              =    -625.00413423 Ry
     estimated scf accuracy    <       0.17842927 Ry

     total magnetization       =    10.05 Bohr mag/cell
     absolute magnetization    =    10.27 Bohr mag/cell
[tb_dev] Currently allocated     1.37E+01 Mbytes, locked:    0 /  13
[tb_pin] Currently allocated     0.00E+00 Mbytes, locked:    0 /   0

     iteration # 49     ecut=    70.00 Ry     beta= 0.40
     Davidson diagonalization with overlap

---- Real-time Memory Report at c_bands before calling an iterative solver
          2548 MiB given to the printing process from OS
          1618 MiB allocation reported by mallinfo(arena+hblkhd)
         57336 MiB available memory on the node where the printing process lives
     GPU memory used/free/total (MiB): 3008 / 13272 / 16280
------------------
     ethr =  1.61E-04,  avg # of iterations =  1.0

     total cpu time spent up to now is      209.4 secs

     total energy              =    -625.01615148 Ry
     estimated scf accuracy    <       0.15416767 Ry

     total magnetization       =     9.96 Bohr mag/cell
     absolute magnetization    =    10.17 Bohr mag/cell
[tb_dev] Currently allocated     1.37E+01 Mbytes, locked:    0 /  13
[tb_pin] Currently allocated     0.00E+00 Mbytes, locked:    0 /   0

     iteration # 50     ecut=    70.00 Ry     beta= 0.40
     Davidson diagonalization with overlap

---- Real-time Memory Report at c_bands before calling an iterative solver
          2549 MiB given to the printing process from OS
[...]
[tb_dev] Currently allocated     1.37E+01 Mbytes, locked:    0 /  13
[tb_pin] Currently allocated     0.00E+00 Mbytes, locked:    0 /   0

     iteration # 65     ecut=    70.00 Ry     beta= 0.40
     Davidson diagonalization with overlap

---- Real-time Memory Report at c_bands before calling an iterative solver
          2577 MiB given to the printing process from OS
          1650 MiB allocation reported by mallinfo(arena+hblkhd)
         57302 MiB available memory on the node where the printing process lives
     GPU memory used/free/total (MiB): 3008 / 13272 / 16280
------------------
     ethr =  1.61E-04,  avg # of iterations =  1.0

     total cpu time spent up to now is      276.3 secs

     total energy              =    -625.00505854 Ry
     estimated scf accuracy    <       0.69960201 Ry

     total magnetization       =     6.82 Bohr mag/cell
     absolute magnetization    =     7.02 Bohr mag/cell
[tb_dev] Currently allocated     1.37E+01 Mbytes, locked:    0 /  13
[tb_pin] Currently allocated     0.00E+00 Mbytes, locked:    0 /   0

     iteration # 66     ecut=    70.00 Ry     beta= 0.40
     Davidson diagonalization with overlap

---- Real-time Memory Report at c_bands before calling an iterative solver
          2580 MiB given to the printing process from OS
          1653 MiB allocation reported by mallinfo(arena+hblkhd)
         57298 MiB available memory on the node where the printing process lives
     GPU memory used/free/total (MiB): 3008 / 13272 / 16280
------------------
     ethr =  1.61E-04,  avg # of iterations =  1.0

     total cpu time spent up to now is      280.2 secs

     total energy              =    -624.94413924 Ry
     estimated scf accuracy    <       1.24940938 Ry

     total magnetization       =     6.16 Bohr mag/cell
     absolute magnetization    =     6.47 Bohr mag/cell
[tb_dev] Currently allocated     1.37E+01 Mbytes, locked:    0 /  13
[tb_pin] Currently allocated     0.00E+00 Mbytes, locked:    0 /   0

     iteration # 67     ecut=    70.00 Ry     beta= 0.40
     Davidson diagonalization with overlap

---- Real-time Memory Report at c_bands before calling an iterative solver
          2581 MiB given to the printing process from OS
          1655 MiB allocation reported by mallinfo(arena+hblkhd)
         57296 MiB available memory on the node where the printing process lives
     GPU memory used/free/total (MiB): 3008 / 13272 / 16280
------------------
     ethr =  1.61E-04,  avg # of iterations =  1.0

     total cpu time spent up to now is      284.1 secs

     total energy              =    -624.99450171 Ry
     estimated scf accuracy    <       0.18318020 Ry

     total magnetization       =    10.15 Bohr mag/cell
     absolute magnetization    =    10.36 Bohr mag/cell
[tb_dev] Currently allocated     1.37E+01 Mbytes, locked:    0 /  13
[tb_pin] Currently allocated     0.00E+00 Mbytes, locked:    0 /   0

     iteration # 68     ecut=    70.00 Ry     beta= 0.40
     Davidson diagonalization with overlap

---- Real-time Memory Report at c_bands before calling an iterative solver
          2586 MiB given to the printing process from OS
          1657 MiB allocation reported by mallinfo(arena+hblkhd)
         57294 MiB available memory on the node where the printing process lives
     GPU memory used/free/total (MiB): 3008 / 13272 / 16280
------------------
     ethr =  1.61E-04,  avg # of iterations =  1.0

     total cpu time spent up to now is      288.1 secs

     total energy              =    -624.99402927 Ry
     estimated scf accuracy    <       0.15696635 Ry

     total magnetization       =    10.12 Bohr mag/cell
     absolute magnetization    =    10.32 Bohr mag/cell
[tb_dev] Currently allocated     1.37E+01 Mbytes, locked:    0 /  13
[tb_pin] Currently allocated     0.00E+00 Mbytes, locked:    0 /   0

     iteration # 69     ecut=    70.00 Ry     beta= 0.40
     Davidson diagonalization with overlap

---- Real-time Memory Report at c_bands before calling an iterative solver
          2588 MiB given to the printing process from OS
          1659 MiB allocation reported by mallinfo(arena+hblkhd)
         57291 MiB available memory on the node where the printing process lives
     GPU memory used/free/total (MiB): 3008 / 13272 / 16280
------------------
     ethr =  1.61E-04,  avg # of iterations =  1.0

     total cpu time spent up to now is      291.9 secs

     total energy              =    -624.99505536 Ry
     estimated scf accuracy    <       0.14416827 Ry

     total magnetization       =    10.06 Bohr mag/cell
     absolute magnetization    =    10.26 Bohr mag/cell
[tb_dev] Currently allocated     1.37E+01 Mbytes, locked:    0 /  13
[tb_pin] Currently allocated     0.00E+00 Mbytes, locked:    0 /   0

     iteration # 70     ecut=    70.00 Ry     beta= 0.40
     Davidson diagonalization with overlap

---- Real-time Memory Report at c_bands before calling an iterative solver
          2591 MiB given to the printing process from OS
          1661 MiB allocation reported by mallinfo(arena+hblkhd)
         57291 MiB available memory on the node where the printing process lives
     GPU memory used/free/total (MiB): 3008 / 13272 / 16280
------------------
     ethr =  1.61E-04,  avg # of iterations =  1.0

     total cpu time spent up to now is      295.9 secs

     total energy              =    -624.99426290 Ry
     estimated scf accuracy    <       0.16468478 Ry

     total magnetization       =    10.14 Bohr mag/cell
     absolute magnetization    =    10.34 Bohr mag/cell
[tb_dev] Currently allocated     1.37E+01 Mbytes, locked:    0 /  13
[tb_pin] Currently allocated     0.00E+00 Mbytes, locked:    0 /   0

     iteration # 71     ecut=    70.00 Ry     beta= 0.40
     Davidson diagonalization with overlap

---- Real-time Memory Report at c_bands before calling an iterative solver
          2592 MiB given to the printing process from OS
          1663 MiB allocation reported by mallinfo(arena+hblkhd)
         57290 MiB available memory on the node where the printing process lives
     GPU memory used/free/total (MiB): 3008 / 13272 / 16280
------------------
     ethr =  1.61E-04,  avg # of iterations =  1.0

     total cpu time spent up to now is      299.8 secs

     total energy              =    -624.99336144 Ry
     estimated scf accuracy    <       0.14483483 Ry

     total magnetization       =    10.01 Bohr mag/cell
     absolute magnetization    =    10.22 Bohr mag/cell
[tb_dev] Currently allocated     1.37E+01 Mbytes, locked:    0 /  13
[tb_pin] Currently allocated     0.00E+00 Mbytes, locked:    0 /   0

     iteration # 72     ecut=    70.00 Ry     beta= 0.40
     Davidson diagonalization with overlap

---- Real-time Memory Report at c_bands before calling an iterative solver
          2594 MiB given to the printing process from OS
          1665 MiB allocation reported by mallinfo(arena+hblkhd)
         57288 MiB available memory on the node where the printing process lives
     GPU memory used/free/total (MiB): 3008 / 13272 / 16280
------------------
     ethr =  1.61E-04,  avg # of iterations =  1.0

     total cpu time spent up to now is      303.7 secs

     total energy              =    -624.99318308 Ry
     estimated scf accuracy    <       0.11515954 Ry

     total magnetization       =     9.83 Bohr mag/cell
     absolute magnetization    =    10.05 Bohr mag/cell
[tb_dev] Currently allocated     1.37E+01 Mbytes, locked:    0 /  13
[tb_pin] Currently allocated     0.00E+00 Mbytes, locked:    0 /   0

     iteration # 73     ecut=    70.00 Ry     beta= 0.40
     Davidson diagonalization with overlap

---- Real-time Memory Report at c_bands before calling an iterative solver
          2597 MiB given to the printing process from OS
          1667 MiB allocation reported by mallinfo(arena+hblkhd)
         57286 MiB available memory on the node where the printing process lives
     GPU memory used/free/total (MiB): 3008 / 13272 / 16280
------------------
     ethr =  1.61E-04,  avg # of iterations =  1.0

     total cpu time spent up to now is      307.7 secs

     total energy              =    -624.99276910 Ry
     estimated scf accuracy    <       0.10484578 Ry

     total magnetization       =     9.77 Bohr mag/cell
     absolute magnetization    =     9.98 Bohr mag/cell
[tb_dev] Currently allocated     1.37E+01 Mbytes, locked:    0 /  13
[tb_pin] Currently allocated     0.00E+00 Mbytes, locked:    0 /   0

     iteration # 74     ecut=    70.00 Ry     beta= 0.40
     Davidson diagonalization with overlap

---- Real-time Memory Report at c_bands before calling an iterative solver
          2598 MiB given to the printing process from OS
          1669 MiB allocation reported by mallinfo(arena+hblkhd)
         57285 MiB available memory on the node where the printing process lives
     GPU memory used/free/total (MiB): 3008 / 13272 / 16280
------------------
     ethr =  1.50E-04,  avg # of iterations =  1.0

     total cpu time spent up to now is      311.7 secs

     total energy              =    -624.99359570 Ry
     estimated scf accuracy    <       0.10116452 Ry

     total magnetization       =     9.81 Bohr mag/cell
     absolute magnetization    =    10.01 Bohr mag/cell
[tb_dev] Currently allocated     1.37E+01 Mbytes, locked:    0 /  13
[tb_pin] Currently allocated     0.00E+00 Mbytes, locked:    0 /   0

     iteration # 75     ecut=    70.00 Ry     beta= 0.40
     Davidson diagonalization with overlap

---- Real-time Memory Report at c_bands before calling an iterative solver
          2600 MiB given to the printing process from OS
          1671 MiB allocation reported by mallinfo(arena+hblkhd)
         57277 MiB available memory on the node where the printing process lives
     GPU memory used/free/total (MiB): 3008 / 13272 / 16280
------------------
     ethr =  1.45E-04,  avg # of iterations =  1.0

     total cpu time spent up to now is      315.7 secs

     total energy              =    -624.98209925 Ry
     estimated scf accuracy    <       0.12909558 Ry

     total magnetization       =     9.96 Bohr mag/cell
     absolute magnetization    =    10.16 Bohr mag/cell
[tb_dev] Currently allocated     1.37E+01 Mbytes, locked:    0 /  13
[tb_pin] Currently allocated     0.00E+00 Mbytes, locked:    0 /   0

     iteration # 76     ecut=    70.00 Ry     beta= 0.40
     Davidson diagonalization with overlap

---- Real-time Memory Report at c_bands before calling an iterative solver
          2602 MiB given to the printing process from OS
          1673 MiB allocation reported by mallinfo(arena+hblkhd)
         57278 MiB available memory on the node where the printing process lives
     GPU memory used/free/total (MiB): 3008 / 13272 / 16280
------------------
     ethr =  1.45E-04,  avg # of iterations =  1.0

     total cpu time spent up to now is      319.6 secs

     total energy              =    -624.99452628 Ry
     estimated scf accuracy    <       0.09230427 Ry

     total magnetization       =     7.09 Bohr mag/cell
     absolute magnetization    =     7.68 Bohr mag/cell
[tb_dev] Currently allocated     1.37E+01 Mbytes, locked:    0 /  13
[tb_pin] Currently allocated     0.00E+00 Mbytes, locked:    0 /   0

     iteration # 77     ecut=    70.00 Ry     beta= 0.40
     Davidson diagonalization with overlap

---- Real-time Memory Report at c_bands before calling an iterative solver
          2608 MiB given to the printing process from OS
          1675 MiB allocation reported by mallinfo(arena+hblkhd)
         57277 MiB available memory on the node where the printing process lives
     GPU memory used/free/total (MiB): 3008 / 13272 / 16280
------------------
     ethr =  1.32E-04,  avg # of iterations =  1.0

     total cpu time spent up to now is      323.4 secs

     total energy              =    -624.98970913 Ry
     estimated scf accuracy    <       0.13953969 Ry

     total magnetization       =     6.96 Bohr mag/cell
     absolute magnetization    =     7.55 Bohr mag/cell
[tb_dev] Currently allocated     1.37E+01 Mbytes, locked:    0 /  13
[tb_pin] Currently allocated     0.00E+00 Mbytes, locked:    0 /   0

     iteration # 78     ecut=    70.00 Ry     beta= 0.40
     Davidson diagonalization with overlap

---- Real-time Memory Report at c_bands before calling an iterative solver
          2609 MiB given to the printing process from OS
          1677 MiB allocation reported by mallinfo(arena+hblkhd)
         57276 MiB available memory on the node where the printing process lives
     GPU memory used/free/total (MiB): 3008 / 13272 / 16280
------------------
     ethr =  1.32E-04,  avg # of iterations =  1.0

     total cpu time spent up to now is      327.3 secs

     total energy              =    -624.96159469 Ry
     estimated scf accuracy    <       0.00776792 Ry

     total magnetization       =     7.29 Bohr mag/cell
     absolute magnetization    =     8.07 Bohr mag/cell
[tb_dev] Currently allocated     1.37E+01 Mbytes, locked:    0 /  13
[tb_pin] Currently allocated     0.00E+00 Mbytes, locked:    0 /   0

     iteration # 79     ecut=    70.00 Ry     beta= 0.40
     Davidson diagonalization with overlap

---- Real-time Memory Report at c_bands before calling an iterative solver
          2611 MiB given to the printing process from OS
          1679 MiB allocation reported by mallinfo(arena+hblkhd)
         57271 MiB available memory on the node where the printing process lives
     GPU memory used/free/total (MiB): 3008 / 13272 / 16280
------------------
     ethr =  1.11E-05,  avg # of iterations =  2.2

     total cpu time spent up to now is      332.3 secs

     total energy              =    -624.98080361 Ry
     estimated scf accuracy    <       0.20563125 Ry

     total magnetization       =    10.75 Bohr mag/cell
     absolute magnetization    =    10.89 Bohr mag/cell
[tb_dev] Currently allocated     1.37E+01 Mbytes, locked:    0 /  13
[tb_pin] Currently allocated     0.00E+00 Mbytes, locked:    0 /   0

     iteration # 80     ecut=    70.00 Ry     beta= 0.40
     Davidson diagonalization with overlap

---- Real-time Memory Report at c_bands before calling an iterative solver
          2614 MiB given to the printing process from OS
          1681 MiB allocation reported by mallinfo(arena+hblkhd)
         57269 MiB available memory on the node where the printing process lives
     GPU memory used/free/total (MiB): 3008 / 13272 / 16280
------------------
     ethr =  1.11E-05,  avg # of iterations =  2.0

     total cpu time spent up to now is      337.1 secs

     total energy              =    -624.99048593 Ry
     estimated scf accuracy    <       0.01298665 Ry

     total magnetization       =     8.10 Bohr mag/cell
     absolute magnetization    =     8.41 Bohr mag/cell

     End of self-consistent calculation

     convergence NOT achieved after  80 iterations: stopping

     Writing config to output data dir ./out/aiida.save/
 
     init_run     :     24.16s CPU      5.80s WALL (       1 calls)
     electrons    :    858.36s CPU    330.61s WALL (       1 calls)

     Called by init_run:
     wfcinit      :      2.17s CPU      2.90s WALL (       1 calls)
                                        2.90s GPU  (       1 calls)
     wfcinit:atom :      0.02s CPU      0.05s WALL (      70 calls)
                                        0.05s GPU  (      70 calls)
     wfcinit:wfcr :      1.37s CPU      1.84s WALL (      70 calls)
                                        1.83s GPU  (      70 calls)
     potinit      :      8.76s CPU      0.83s WALL (       1 calls)
     hinit0       :      7.34s CPU      1.19s WALL (       1 calls)

     Called by electrons:
     c_bands      :    302.10s CPU    224.73s WALL (      80 calls)
     sum_band     :     56.84s CPU     60.06s WALL (      80 calls)
     v_of_rho     :     55.23s CPU      4.95s WALL (      81 calls)
     v_h          :      7.91s CPU      0.69s WALL (      81 calls)
     v_xc         :     47.31s CPU      4.26s WALL (      81 calls)
     newd         :     66.60s CPU      6.40s WALL (      81 calls)
                                        6.40s GPU  (      81 calls)
     PAW_pot      :    307.79s CPU     27.84s WALL (      81 calls)
     mix_rho      :     54.52s CPU      5.30s WALL (      80 calls)

     Called by c_bands:
     init_us_2    :     15.09s CPU     13.44s WALL (   11270 calls)
     init_us_2:gp :     14.84s CPU     13.24s WALL (   11270 calls)
     cegterg      :    254.12s CPU    189.24s WALL (    5600 calls)

     Called by sum_band:
     sum_band:wei :      0.29s CPU      0.29s WALL (      80 calls)
                                        0.29s GPU  (      80 calls)
     sum_band:loo :     48.70s CPU     51.81s WALL (      80 calls)
                                       51.81s GPU  (      80 calls)
     sum_band:buf :     12.94s CPU     13.34s WALL (    5600 calls)
                                       13.31s GPU  (    5600 calls)
     sum_band:ini :      5.71s CPU      6.53s WALL (    5600 calls)
                                        6.50s GPU  (    5600 calls)
     sum_band:cal :      0.17s CPU      2.44s WALL (    5600 calls)
                                        1.33s GPU  (    5600 calls)
     sum_band:bec :      1.52s CPU      1.64s WALL (    5600 calls)
                                        1.60s GPU  (    5600 calls)
     addusdens    :      4.60s CPU      4.71s WALL (      80 calls)
                                        4.71s GPU  (      80 calls)
     addusd:skk   :      0.04s CPU      0.04s WALL (     240 calls)
                                        0.04s GPU  (     240 calls)

     Called by *egterg:
     cdiaghg      :     52.07s CPU     43.49s WALL (   13531 calls)
                                       43.40s GPU  (   13531 calls)
     cegterg:over :      4.44s CPU      3.38s WALL (    7931 calls)
     cegterg:upda :      6.22s CPU      4.69s WALL (    7931 calls)
     cegterg:last :      2.28s CPU      1.82s WALL (    7095 calls)
     h_psi        :    174.85s CPU    126.34s WALL (   13601 calls)
                                      126.11s GPU  (   13601 calls)
     s_psi        :      2.83s CPU      4.67s WALL (   13601 calls)
                                        4.23s GPU  (   13601 calls)
     g_psi        :      0.08s CPU      0.48s WALL (    7931 calls)
                                        0.43s GPU  (    7931 calls)

     Called by h_psi:
     h_psi:calbec :      0.64s CPU      3.38s WALL (   13601 calls)
                                        3.29s GPU  (   13601 calls)
     vloc_psi     :    159.73s CPU    115.94s WALL (   13601 calls)
                                      115.86s GPU  (   13601 calls)
     add_vuspsi   :      4.52s CPU      5.56s WALL (   13601 calls)
                                        5.47s GPU  (   13601 calls)

     General routines
     calbec       :      0.57s CPU      0.44s WALL (   19201 calls)
     fft          :      2.66s CPU      0.70s WALL (    2023 calls)
                                        0.56s GPU  (    1861 calls)
     ffts         :      0.11s CPU      0.08s WALL (     322 calls)
                                        0.02s GPU  (     160 calls)
     fftw         :      2.52s CPU    100.67s WALL (   90172 calls)
                                      100.04s GPU  (   90172 calls)
     interpolate  :      8.14s CPU      0.71s WALL (     162 calls)
     davcio       :      0.42s CPU      0.38s WALL (      88 calls)
 
     Parallel routines

     PAW routines
     PAW_pot      :    307.79s CPU     27.84s WALL (      81 calls)
     PAW_symme    :      0.76s CPU      0.12s WALL (     161 calls)
 
     PWSCF        :  14m45.55s CPU   5m37.60s WALL

 
   This run was terminated on:  18: 0:56  22Oct2023            

=------------------------------------------------------------------------------=
   JOB DONE.
=------------------------------------------------------------------------------=
