
     Program PWSCF v.7.2 starts on 23Oct2023 at 20:35:58 

     This program is part of the open-source Quantum ESPRESSO suite
     for quantum simulation of materials; please cite
         "P. Giannozzi et al., J. Phys.:Condens. Matter 21 395502 (2009);
         "P. Giannozzi et al., J. Phys.:Condens. Matter 29 465901 (2017);
         "P. Giannozzi et al., J. Chem. Phys. 152 154105 (2020);
          URL http://www.quantum-espresso.org", 
     in publications or presentations arising from this work. More details at
     http://www.quantum-espresso.org/quote

     Parallel version (MPI & OpenMP), running on      12 processor cores
     Number of MPI processes:                 1
     Threads/MPI process:                    12

     MPI processes distributed on     1 nodes
     60338 MiB available memory on the printing compute node when the environment starts
 
     Reading input from aiida.in

     Current dimensions of program PWSCF are:
     Max number of different atomic species (ntypx) = 10
     Max number of k-points (npk) =  40000
     Max angular momentum in pseudopotentials (lmaxx) =  4
     file O.pbesol-n-kjpaw_psl.0.1.UPF: wavefunction(s)  2P renormalized
     Message from routine setup:
     using ibrav=0 with symmetry is DISCOURAGED, use correct ibrav instead
 
     Subspace diagonalization in iterative solution of the eigenvalue problem:
     a serial algorithm will be used

 
     G-vector sticks info
     --------------------
     sticks:   dense  smooth     PW     G-vecs:    dense   smooth      PW
     Sum        2735    1359    399               107339    37897    5977
 
     Using Slab Decomposition
 


     bravais-lattice index     =            0
     lattice parameter (alat)  =       8.4603  a.u.
     unit-cell volume          =     604.0218 (a.u.)^3
     number of atoms/cell      =            5
     number of atomic types    =            3
     number of electrons       =        30.00
     number of Kohn-Sham states=           19
     kinetic-energy cutoff     =      60.0000  Ry
     charge density cutoff     =     480.0000  Ry
     scf convergence threshold =      1.0E-09
     mixing beta               =       0.1000
     number of iterations used =            8  plain     mixing
     Exchange-correlation= SLA  PW   PSX  PSC
                           (   1   4  10   8   0   0   0)

     GPU acceleration is ACTIVE.


     GPU used by master process:

        Device Number: 0
        Device name: Tesla P100-PCIE-16GB
        Compute capability : 60
        Ratio of single to double precision performance  : 2
        Memory Clock Rate (KHz): 715000
        Memory Bus Width (bits): 4096
        Peak Memory Bandwidth (GB/s): 732.16

     celldm(1)=   8.460298  celldm(2)=   0.000000  celldm(3)=   0.000000
     celldm(4)=   0.000000  celldm(5)=   0.000000  celldm(6)=   0.000000

     crystal axes: (cart. coord. in units of alat)
               a(1) = (   0.692205   0.399645   0.600946 )  
               a(2) = (  -0.692205   0.399645   0.600946 )  
               a(3) = (   0.000000  -0.799290   0.600946 )  

     reciprocal axes: (cart. coord. in units 2 pi/alat)
               b(1) = (  0.722329  0.417037  0.554681 )  
               b(2) = ( -0.722329  0.417037  0.554681 )  
               b(3) = (  0.000000 -0.834074  0.554681 )  


     PseudoPot. # 1 for Br read from file:
     ./pseudo/br_pbesol_v1.4.uspp.F.UPF
     MD5 check sum: 7bf6084e715f6bfd1944787c04c43e72
     Pseudo is Ultrasoft + core correction, Zval =  7.0
     Generated by new atomic code, or converted to UPF format
     Using radial grid of  879 points,  6 beta functions with: 
                l(1) =   0
                l(2) =   0
                l(3) =   1
                l(4) =   1
                l(5) =   2
                l(6) =   2
     Q(r) pseudized with  8 coefficients,  rinner =    1.200   1.200   1.200
                                                       1.200   1.200

     PseudoPot. # 2 for N  read from file:
     ./pseudo/N.pbesol-theos.UPF
     MD5 check sum: 1b64827339d390a5a22afef3ff345c9d
     Pseudo is Ultrasoft + core correction, Zval =  5.0
     Generated using "atomic" code by A. Dal Corso  v.5.1
     Using radial grid of 1085 points,  4 beta functions with: 
                l(1) =   0
                l(2) =   0
                l(3) =   1
                l(4) =   1
     Q(r) pseudized with 0 coefficients 


     PseudoPot. # 3 for O  read from file:
     ./pseudo/O.pbesol-n-kjpaw_psl.0.1.UPF
     MD5 check sum: 81d73d1479e654e5638b0319f0d6c2c7
     Pseudo is Projector augmented-wave + core cor, Zval =  6.0
     Generated using "atomic" code by A. Dal Corso  v.6.0 svn rev. 13079
     Shape of augmentation charge: BESSEL
     Using radial grid of 1095 points,  4 beta functions with: 
                l(1) =   0
                l(2) =   0
                l(3) =   1
                l(4) =   1
     Q(r) pseudized with 0 coefficients 


     atomic species   valence    mass     pseudopotential
        Br             7.00    79.90400     Br( 1.00)
        N              5.00    14.00670     N ( 1.00)
        O              6.00    15.99940     O ( 1.00)

     Starting magnetic structure 
     atomic species   magnetization
        Br           0.100
        N            0.100
        O            0.100

      6 Sym. Ops. (no inversion) found


                                    s                        frac. trans.

      isym =  1     identity                                     

 cryst.   s( 1) = (     1          0          0      )
                  (     0          1          0      )
                  (     0          0          1      )

 cart.    s( 1) = (  1.0000000  0.0000000  0.0000000 )
                  ( -0.0000000  1.0000000 -0.0000000 )
                  ( -0.0000000 -0.0000000  1.0000000 )


      isym =  2     120 deg rotation - cryst. axis [0,0,1]       

 cryst.   s( 2) = (     0          1          0      )
                  (     0          0          1      )
                  (     1          0          0      )

 cart.    s( 2) = ( -0.5000000 -0.8660254  0.0000000 )
                  (  0.8660254 -0.5000000 -0.0000000 )
                  ( -0.0000000  0.0000000  1.0000000 )


      isym =  3     120 deg rotation - cryst. axis [0,0,-1]      

 cryst.   s( 3) = (     0          0          1      )
                  (     1          0          0      )
                  (     0          1          0      )

 cart.    s( 3) = ( -0.5000000  0.8660254  0.0000000 )
                  ( -0.8660254 -0.5000000 -0.0000000 )
                  (  0.0000000 -0.0000000  1.0000000 )


      isym =  4     inv. 180 deg rotation - cart. axis [1,0,0]   

 cryst.   s( 4) = (     0          1          0      )
                  (     1          0          0      )
                  (     0          0          1      )

 cart.    s( 4) = ( -1.0000000  0.0000000  0.0000000 )
                  ( -0.0000000  1.0000000 -0.0000000 )
                  (  0.0000000 -0.0000000  1.0000000 )


      isym =  5     inv. 180 deg rotation - cryst. axis [0,1,0]  

 cryst.   s( 5) = (     1          0          0      )
                  (     0          0          1      )
                  (     0          1          0      )

 cart.    s( 5) = (  0.5000000  0.8660254  0.0000000 )
                  (  0.8660254 -0.5000000 -0.0000000 )
                  ( -0.0000000 -0.0000000  1.0000000 )


      isym =  6     inv. 180 deg rotation - cryst. axis [1,1,0]  

 cryst.   s( 6) = (     0          0          1      )
                  (     0          1          0      )
                  (     1          0          0      )

 cart.    s( 6) = (  0.5000000 -0.8660254  0.0000000 )
                  ( -0.8660254 -0.5000000 -0.0000000 )
                  (  0.0000000  0.0000000  1.0000000 )


   Cartesian axes

     site n.     atom                  positions (alat units)
         1           Br  tau(   1) = (  -0.0000000   0.7992896   0.3004730  )
         2           N   tau(   2) = (   0.0000000  -0.0000000   0.0000000  )
         3           O   tau(   3) = (  -0.2906569   0.6314788   0.1545032  )
         4           O   tau(   4) = (   0.2906569   0.6314788   0.1545032  )
         5           O   tau(   5) = (  -0.0000000   1.1349113   0.1545032  )

   Crystallographic axes

     site n.     atom                  positions (cryst. coord.)
         1           Br  tau(   1) = (  0.5000000  0.5000000 -0.5000000  )
         2           N   tau(   2) = (  0.0000000  0.0000000  0.0000000  )
         3           O   tau(   3) = (  0.1391000  0.5590000 -0.4410000  )
         4           O   tau(   4) = (  0.5590000  0.1391000 -0.4410000  )
         5           O   tau(   5) = (  0.5590000  0.5590000 -0.8609000  )

     number of k points=   116  Marzari-Vanderbilt smearing, width (Ry)=  0.0100
                       cart. coord. in units 2pi/alat
        k(    1) = (   0.0000000   0.0000000   0.0000000), wk =   0.0010000
        k(    2) = (   0.0000000  -0.0834074   0.0554681), wk =   0.0060000
        k(    3) = (   0.0000000  -0.1668148   0.1109362), wk =   0.0060000
        k(    4) = (   0.0000000  -0.2502222   0.1664043), wk =   0.0060000
        k(    5) = (   0.0000000  -0.3336296   0.2218724), wk =   0.0060000
        k(    6) = (  -0.0000000   0.4170370  -0.2773405), wk =   0.0030000
        k(    7) = (  -0.0722329  -0.0417037   0.1109362), wk =   0.0060000
        k(    8) = (  -0.0722329  -0.1251111   0.1664043), wk =   0.0120000
        k(    9) = (  -0.0722329  -0.2085185   0.2218724), wk =   0.0120000
        k(   10) = (  -0.0722329  -0.2919259   0.2773405), wk =   0.0120000
        k(   11) = (  -0.0722329   0.4587407  -0.2218724), wk =   0.0120000
        k(   12) = (  -0.0722329   0.3753333  -0.1664043), wk =   0.0120000
        k(   13) = (  -0.0722329   0.2919259  -0.1109362), wk =   0.0120000
        k(   14) = (  -0.0722329   0.2085185  -0.0554681), wk =   0.0120000
        k(   15) = (  -0.0722329   0.1251111   0.0000000), wk =   0.0060000
        k(   16) = (  -0.1444659  -0.0834074   0.2218724), wk =   0.0060000
        k(   17) = (  -0.1444659  -0.1668148   0.2773405), wk =   0.0120000
        k(   18) = (  -0.1444659  -0.2502222   0.3328086), wk =   0.0120000
        k(   19) = (  -0.1444659   0.5004444  -0.1664043), wk =   0.0120000
        k(   20) = (  -0.1444659   0.4170370  -0.1109362), wk =   0.0120000
        k(   21) = (  -0.1444659   0.3336296  -0.0554681), wk =   0.0120000
        k(   22) = (  -0.1444659   0.2502222   0.0000000), wk =   0.0060000
        k(   23) = (  -0.2166988  -0.1251111   0.3328086), wk =   0.0060000
        k(   24) = (  -0.2166988  -0.2085185   0.3882767), wk =   0.0120000
        k(   25) = (  -0.2166988   0.5421481  -0.1109362), wk =   0.0120000
        k(   26) = (  -0.2166988   0.4587407  -0.0554681), wk =   0.0120000
        k(   27) = (  -0.2166988   0.3753333  -0.0000000), wk =   0.0060000
        k(   28) = (  -0.2889317  -0.1668148   0.4437448), wk =   0.0060000
        k(   29) = (  -0.2889317   0.5838518  -0.0554681), wk =   0.0120000
        k(   30) = (  -0.2889317   0.5004444  -0.0000000), wk =   0.0060000
        k(   31) = (   0.3611646   0.2085185  -0.5546810), wk =   0.0030000
        k(   32) = (  -0.0000000   0.0000000   0.1664043), wk =   0.0020000
        k(   33) = (  -0.0000000  -0.0834074   0.2218724), wk =   0.0060000
        k(   34) = (  -0.0000000  -0.1668148   0.2773405), wk =   0.0060000
        k(   35) = (  -0.0000000  -0.2502222   0.3328086), wk =   0.0060000
        k(   36) = (  -0.0000000   0.5004444  -0.1664043), wk =   0.0060000
        k(   37) = (  -0.0000000   0.4170370  -0.1109362), wk =   0.0060000
        k(   38) = (  -0.0000000   0.3336296  -0.0554681), wk =   0.0060000
        k(   39) = (  -0.0000000   0.2502222   0.0000000), wk =   0.0060000
        k(   40) = (  -0.0000000   0.1668148   0.0554681), wk =   0.0060000
        k(   41) = (  -0.0722329  -0.0417037   0.2773405), wk =   0.0060000
        k(   42) = (  -0.0722329  -0.1251111   0.3328086), wk =   0.0120000
        k(   43) = (  -0.0722329  -0.2085185   0.3882767), wk =   0.0120000
        k(   44) = (  -0.0722329   0.5421481  -0.1109362), wk =   0.0120000
        k(   45) = (  -0.0722329   0.4587407  -0.0554681), wk =   0.0120000
        k(   46) = (  -0.0722329   0.3753333  -0.0000000), wk =   0.0120000
        k(   47) = (  -0.0722329   0.2919259   0.0554681), wk =   0.0120000
        k(   48) = (  -0.0722329   0.2085185   0.1109362), wk =   0.0120000
        k(   49) = (  -0.1444659  -0.0834074   0.3882767), wk =   0.0060000
        k(   50) = (  -0.1444659  -0.1668148   0.4437448), wk =   0.0120000
        k(   51) = (  -0.1444659   0.5838518  -0.0554681), wk =   0.0120000
        k(   52) = (  -0.1444659   0.5004444  -0.0000000), wk =   0.0120000
        k(   53) = (  -0.1444659   0.4170370   0.0554681), wk =   0.0120000
        k(   54) = (  -0.1444659   0.3336296   0.1109362), wk =   0.0120000
        k(   55) = (  -0.1444659   0.2502222   0.1664043), wk =   0.0120000
        k(   56) = (  -0.2166988  -0.1251111   0.4992129), wk =   0.0060000
        k(   57) = (  -0.2166988   0.6255555   0.0000000), wk =   0.0120000
        k(   58) = (  -0.2166988   0.5421481   0.0554681), wk =   0.0120000
        k(   59) = (  -0.2166988   0.4587407   0.1109362), wk =   0.0120000
        k(   60) = (  -0.2166988   0.3753333   0.1664043), wk =   0.0120000
        k(   61) = (  -0.2166988   0.2919259   0.2218724), wk =   0.0120000
        k(   62) = (   0.4333976   0.2502222  -0.4992129), wk =   0.0060000
        k(   63) = (   0.4333976   0.1668148  -0.4437448), wk =   0.0120000
        k(   64) = (   0.4333976   0.0834074  -0.3882767), wk =   0.0120000
        k(   65) = (   0.4333976  -0.0000000  -0.3328086), wk =   0.0120000
        k(   66) = (   0.4333976  -0.0834074  -0.2773405), wk =   0.0060000
        k(   67) = (   0.3611646   0.2085185  -0.3882767), wk =   0.0060000
        k(   68) = (   0.3611646   0.1251111  -0.3328086), wk =   0.0120000
        k(   69) = (   0.3611646   0.0417037  -0.2773405), wk =   0.0120000
        k(   70) = (   0.2889317   0.1668148  -0.2773405), wk =   0.0060000
        k(   71) = (   0.2889317   0.0834074  -0.2218724), wk =   0.0120000
        k(   72) = (   0.2166988   0.1251111  -0.1664043), wk =   0.0060000
        k(   73) = (  -0.0000000   0.0000000   0.3328086), wk =   0.0020000
        k(   74) = (  -0.0000000  -0.0834074   0.3882767), wk =   0.0060000
        k(   75) = (  -0.0000000  -0.1668148   0.4437448), wk =   0.0060000
        k(   76) = (  -0.0000000   0.5838518  -0.0554681), wk =   0.0060000
        k(   77) = (  -0.0000000   0.5004444  -0.0000000), wk =   0.0060000
        k(   78) = (  -0.0000000   0.4170370   0.0554681), wk =   0.0060000
        k(   79) = (  -0.0000000   0.3336296   0.1109362), wk =   0.0060000
        k(   80) = (  -0.0722329  -0.0417037   0.4437448), wk =   0.0060000
        k(   81) = (  -0.0722329  -0.1251111   0.4992129), wk =   0.0120000
        k(   82) = (  -0.0722329   0.6255555   0.0000000), wk =   0.0120000
        k(   83) = (  -0.0722329   0.5421481   0.0554681), wk =   0.0120000
        k(   84) = (  -0.0722329   0.4587407   0.1109362), wk =   0.0120000
        k(   85) = (  -0.0722329   0.3753333   0.1664043), wk =   0.0120000
        k(   86) = (  -0.1444659  -0.0834074   0.5546810), wk =   0.0060000
        k(   87) = (  -0.1444659   0.6672592   0.0554681), wk =   0.0120000
        k(   88) = (  -0.1444659   0.5838518   0.1109362), wk =   0.0120000
        k(   89) = (  -0.1444659   0.5004444   0.1664043), wk =   0.0120000
        k(   90) = (  -0.1444659   0.4170370   0.2218724), wk =   0.0120000
        k(   91) = (   0.5056305   0.2919259  -0.4437448), wk =   0.0060000
        k(   92) = (   0.5056305   0.2085185  -0.3882767), wk =   0.0120000
        k(   93) = (   0.5056305   0.1251111  -0.3328086), wk =   0.0120000
        k(   94) = (   0.5056305   0.0417037  -0.2773405), wk =   0.0060000
        k(   95) = (   0.4333976   0.2502222  -0.3328086), wk =   0.0060000
        k(   96) = (   0.4333976   0.1668148  -0.2773405), wk =   0.0120000
        k(   97) = (   0.3611646   0.2085185  -0.2218724), wk =   0.0060000
        k(   98) = (   0.0000000  -0.0000000   0.4992129), wk =   0.0020000
        k(   99) = (   0.0000000  -0.0834074   0.5546810), wk =   0.0060000
        k(  100) = (   0.0000000   0.6672592   0.0554681), wk =   0.0060000
        k(  101) = (   0.0000000   0.5838518   0.1109362), wk =   0.0060000
        k(  102) = (   0.0000000   0.5004444   0.1664043), wk =   0.0060000
        k(  103) = (  -0.0722329  -0.0417037   0.6101491), wk =   0.0060000
        k(  104) = (  -0.0722329   0.7089629   0.1109362), wk =   0.0120000
        k(  105) = (  -0.0722329   0.6255555   0.1664043), wk =   0.0120000
        k(  106) = (  -0.0722329   0.5421481   0.2218724), wk =   0.0120000
        k(  107) = (   0.5778634   0.3336296  -0.3882767), wk =   0.0060000
        k(  108) = (   0.5778634   0.2502222  -0.3328086), wk =   0.0120000
        k(  109) = (   0.5778634   0.1668148  -0.2773405), wk =   0.0060000
        k(  110) = (   0.5056305   0.2919259  -0.2773405), wk =   0.0060000
        k(  111) = (  -0.0000000   0.0000000   0.6656172), wk =   0.0020000
        k(  112) = (  -0.0000000   0.7506666   0.1664043), wk =   0.0060000
        k(  113) = (  -0.0000000   0.6672592   0.2218724), wk =   0.0060000
        k(  114) = (   0.6500963   0.3753333  -0.3328086), wk =   0.0060000
        k(  115) = (   0.6500963   0.2919259  -0.2773405), wk =   0.0060000
        k(  116) = (  -0.0000000   0.0000000  -0.8320215), wk =   0.0010000

                       cryst. coord.
        k(    1) = (   0.0000000   0.0000000   0.0000000), wk =   0.0010000
        k(    2) = (  -0.0000000  -0.0000000   0.1000000), wk =   0.0060000
        k(    3) = (  -0.0000000  -0.0000000   0.2000000), wk =   0.0060000
        k(    4) = (  -0.0000000  -0.0000000   0.3000000), wk =   0.0060000
        k(    5) = (  -0.0000000  -0.0000000   0.4000000), wk =   0.0060000
        k(    6) = (   0.0000000   0.0000000  -0.5000000), wk =   0.0030000
        k(    7) = (  -0.0000000   0.1000000   0.1000000), wk =   0.0060000
        k(    8) = (  -0.0000000   0.1000000   0.2000000), wk =   0.0120000
        k(    9) = (  -0.0000000   0.1000000   0.3000000), wk =   0.0120000
        k(   10) = (  -0.0000000   0.1000000   0.4000000), wk =   0.0120000
        k(   11) = (   0.0000000   0.1000000  -0.5000000), wk =   0.0120000
        k(   12) = (   0.0000000   0.1000000  -0.4000000), wk =   0.0120000
        k(   13) = (   0.0000000   0.1000000  -0.3000000), wk =   0.0120000
        k(   14) = (   0.0000000   0.1000000  -0.2000000), wk =   0.0120000
        k(   15) = (   0.0000000   0.1000000  -0.1000000), wk =   0.0060000
        k(   16) = (  -0.0000000   0.2000000   0.2000000), wk =   0.0060000
        k(   17) = (  -0.0000000   0.2000000   0.3000000), wk =   0.0120000
        k(   18) = (  -0.0000000   0.2000000   0.4000000), wk =   0.0120000
        k(   19) = (   0.0000000   0.2000000  -0.5000000), wk =   0.0120000
        k(   20) = (   0.0000000   0.2000000  -0.4000000), wk =   0.0120000
        k(   21) = (  -0.0000000   0.2000000  -0.3000000), wk =   0.0120000
        k(   22) = (   0.0000000   0.2000000  -0.2000000), wk =   0.0060000
        k(   23) = (  -0.0000000   0.3000000   0.3000000), wk =   0.0060000
        k(   24) = (  -0.0000000   0.3000000   0.4000000), wk =   0.0120000
        k(   25) = (   0.0000000   0.3000000  -0.5000000), wk =   0.0120000
        k(   26) = (  -0.0000000   0.3000000  -0.4000000), wk =   0.0120000
        k(   27) = (  -0.0000000   0.3000000  -0.3000000), wk =   0.0060000
        k(   28) = (  -0.0000000   0.4000000   0.4000000), wk =   0.0060000
        k(   29) = (  -0.0000000   0.4000000  -0.5000000), wk =   0.0120000
        k(   30) = (  -0.0000000   0.4000000  -0.4000000), wk =   0.0060000
        k(   31) = (   0.0000000  -0.5000000  -0.5000000), wk =   0.0030000
        k(   32) = (   0.1000000   0.1000000   0.1000000), wk =   0.0020000
        k(   33) = (   0.1000000   0.1000000   0.2000000), wk =   0.0060000
        k(   34) = (   0.1000000   0.1000000   0.3000000), wk =   0.0060000
        k(   35) = (   0.1000000   0.1000000   0.4000000), wk =   0.0060000
        k(   36) = (   0.1000000   0.1000000  -0.5000000), wk =   0.0060000
        k(   37) = (   0.1000000   0.1000000  -0.4000000), wk =   0.0060000
        k(   38) = (   0.1000000   0.1000000  -0.3000000), wk =   0.0060000
        k(   39) = (   0.1000000   0.1000000  -0.2000000), wk =   0.0060000
        k(   40) = (   0.1000000   0.1000000  -0.1000000), wk =   0.0060000
        k(   41) = (   0.1000000   0.2000000   0.2000000), wk =   0.0060000
        k(   42) = (   0.1000000   0.2000000   0.3000000), wk =   0.0120000
        k(   43) = (   0.1000000   0.2000000   0.4000000), wk =   0.0120000
        k(   44) = (   0.1000000   0.2000000  -0.5000000), wk =   0.0120000
        k(   45) = (   0.1000000   0.2000000  -0.4000000), wk =   0.0120000
        k(   46) = (   0.1000000   0.2000000  -0.3000000), wk =   0.0120000
        k(   47) = (   0.1000000   0.2000000  -0.2000000), wk =   0.0120000
        k(   48) = (   0.1000000   0.2000000  -0.1000000), wk =   0.0120000
        k(   49) = (   0.1000000   0.3000000   0.3000000), wk =   0.0060000
        k(   50) = (   0.1000000   0.3000000   0.4000000), wk =   0.0120000
        k(   51) = (   0.1000000   0.3000000  -0.5000000), wk =   0.0120000
        k(   52) = (   0.1000000   0.3000000  -0.4000000), wk =   0.0120000
        k(   53) = (   0.1000000   0.3000000  -0.3000000), wk =   0.0120000
        k(   54) = (   0.1000000   0.3000000  -0.2000000), wk =   0.0120000
        k(   55) = (   0.1000000   0.3000000  -0.1000000), wk =   0.0120000
        k(   56) = (   0.1000000   0.4000000   0.4000000), wk =   0.0060000
        k(   57) = (   0.1000000   0.4000000  -0.5000000), wk =   0.0120000
        k(   58) = (   0.1000000   0.4000000  -0.4000000), wk =   0.0120000
        k(   59) = (   0.1000000   0.4000000  -0.3000000), wk =   0.0120000
        k(   60) = (   0.1000000   0.4000000  -0.2000000), wk =   0.0120000
        k(   61) = (   0.1000000   0.4000000  -0.1000000), wk =   0.0120000
        k(   62) = (   0.1000000  -0.5000000  -0.5000000), wk =   0.0060000
        k(   63) = (   0.1000000  -0.5000000  -0.4000000), wk =   0.0120000
        k(   64) = (   0.1000000  -0.5000000  -0.3000000), wk =   0.0120000
        k(   65) = (   0.1000000  -0.5000000  -0.2000000), wk =   0.0120000
        k(   66) = (   0.1000000  -0.5000000  -0.1000000), wk =   0.0060000
        k(   67) = (   0.1000000  -0.4000000  -0.4000000), wk =   0.0060000
        k(   68) = (   0.1000000  -0.4000000  -0.3000000), wk =   0.0120000
        k(   69) = (   0.1000000  -0.4000000  -0.2000000), wk =   0.0120000
        k(   70) = (   0.1000000  -0.3000000  -0.3000000), wk =   0.0060000
        k(   71) = (   0.1000000  -0.3000000  -0.2000000), wk =   0.0120000
        k(   72) = (   0.1000000  -0.2000000  -0.2000000), wk =   0.0060000
        k(   73) = (   0.2000000   0.2000000   0.2000000), wk =   0.0020000
        k(   74) = (   0.2000000   0.2000000   0.3000000), wk =   0.0060000
        k(   75) = (   0.2000000   0.2000000   0.4000000), wk =   0.0060000
        k(   76) = (   0.2000000   0.2000000  -0.5000000), wk =   0.0060000
        k(   77) = (   0.2000000   0.2000000  -0.4000000), wk =   0.0060000
        k(   78) = (   0.2000000   0.2000000  -0.3000000), wk =   0.0060000
        k(   79) = (   0.2000000   0.2000000  -0.2000000), wk =   0.0060000
        k(   80) = (   0.2000000   0.3000000   0.3000000), wk =   0.0060000
        k(   81) = (   0.2000000   0.3000000   0.4000000), wk =   0.0120000
        k(   82) = (   0.2000000   0.3000000  -0.5000000), wk =   0.0120000
        k(   83) = (   0.2000000   0.3000000  -0.4000000), wk =   0.0120000
        k(   84) = (   0.2000000   0.3000000  -0.3000000), wk =   0.0120000
        k(   85) = (   0.2000000   0.3000000  -0.2000000), wk =   0.0120000
        k(   86) = (   0.2000000   0.4000000   0.4000000), wk =   0.0060000
        k(   87) = (   0.2000000   0.4000000  -0.5000000), wk =   0.0120000
        k(   88) = (   0.2000000   0.4000000  -0.4000000), wk =   0.0120000
        k(   89) = (   0.2000000   0.4000000  -0.3000000), wk =   0.0120000
        k(   90) = (   0.2000000   0.4000000  -0.2000000), wk =   0.0120000
        k(   91) = (   0.2000000  -0.5000000  -0.5000000), wk =   0.0060000
        k(   92) = (   0.2000000  -0.5000000  -0.4000000), wk =   0.0120000
        k(   93) = (   0.2000000  -0.5000000  -0.3000000), wk =   0.0120000
        k(   94) = (   0.2000000  -0.5000000  -0.2000000), wk =   0.0060000
        k(   95) = (   0.2000000  -0.4000000  -0.4000000), wk =   0.0060000
        k(   96) = (   0.2000000  -0.4000000  -0.3000000), wk =   0.0120000
        k(   97) = (   0.2000000  -0.3000000  -0.3000000), wk =   0.0060000
        k(   98) = (   0.3000000   0.3000000   0.3000000), wk =   0.0020000
        k(   99) = (   0.3000000   0.3000000   0.4000000), wk =   0.0060000
        k(  100) = (   0.3000000   0.3000000  -0.5000000), wk =   0.0060000
        k(  101) = (   0.3000000   0.3000000  -0.4000000), wk =   0.0060000
        k(  102) = (   0.3000000   0.3000000  -0.3000000), wk =   0.0060000
        k(  103) = (   0.3000000   0.4000000   0.4000000), wk =   0.0060000
        k(  104) = (   0.3000000   0.4000000  -0.5000000), wk =   0.0120000
        k(  105) = (   0.3000000   0.4000000  -0.4000000), wk =   0.0120000
        k(  106) = (   0.3000000   0.4000000  -0.3000000), wk =   0.0120000
        k(  107) = (   0.3000000  -0.5000000  -0.5000000), wk =   0.0060000
        k(  108) = (   0.3000000  -0.5000000  -0.4000000), wk =   0.0120000
        k(  109) = (   0.3000000  -0.5000000  -0.3000000), wk =   0.0060000
        k(  110) = (   0.3000000  -0.4000000  -0.4000000), wk =   0.0060000
        k(  111) = (   0.4000000   0.4000000   0.4000000), wk =   0.0020000
        k(  112) = (   0.4000000   0.4000000  -0.5000000), wk =   0.0060000
        k(  113) = (   0.4000000   0.4000000  -0.4000000), wk =   0.0060000
        k(  114) = (   0.4000000  -0.5000000  -0.5000000), wk =   0.0060000
        k(  115) = (   0.4000000  -0.5000000  -0.4000000), wk =   0.0060000
        k(  116) = (  -0.5000000  -0.5000000  -0.5000000), wk =   0.0010000

     Dense  grid:   107339 G-vectors     FFT dimensions: (  60,  60,  60)

     Smooth grid:    37897 G-vectors     FFT dimensions: (  45,  45,  45)

     Dynamical RAM for                 wfc:       1.37 MB

     Dynamical RAM for     wfc (w. buffer):     320.26 MB

     Dynamical RAM for           str. fact:       4.91 MB

     Dynamical RAM for           local pot:       0.00 MB

     Dynamical RAM for          nlocal pot:       3.62 MB

     Dynamical RAM for                qrad:       5.27 MB

     Dynamical RAM for          rho,v,vnew:      19.71 MB

     Dynamical RAM for               rhoin:       6.57 MB

     Dynamical RAM for            rho*nmix:      52.41 MB

     Dynamical RAM for           G-vectors:       6.43 MB

     Dynamical RAM for          h,s,v(r/c):       0.07 MB

     Dynamical RAM for          <psi|beta>:       0.01 MB

     Dynamical RAM for                 psi:       2.75 MB

     Dynamical RAM for                hpsi:       2.75 MB

     Dynamical RAM for                spsi:       2.75 MB

     Dynamical RAM for      wfcinit/wfcrot:       2.76 MB

     Dynamical RAM for           addusdens:     311.19 MB

     Dynamical RAM for          addusforce:     317.77 MB

     Dynamical RAM for         addusstress:     331.67 MB

     Estimated static dynamical RAM per process >     383.22 MB

     Estimated max dynamical RAM per process >     767.30 MB

     Atomic positions and unit cell read from directory:
     ./out/aiida.save/
 
     Generating pointlists ...
     new r_m :   0.1510 (alat units)  1.2773 (a.u.) for type    1
     new r_m :   0.2655 (alat units)  2.2463 (a.u.) for type    2
     new r_m :   0.1510 (alat units)  1.2773 (a.u.) for type    3

     The initial density is read from file :
     ./out/aiida.save/charge-density

     Starting wfcs from file
     Checking if some PAW data can be deallocated... 

     total cpu time spent up to now is        3.4 secs

     per-process dynamical memory:   431.4 Mb

     Self-consistent Calculation
[tb_dev] Currently allocated     3.81E-05 Mbytes, locked:    0 /   2
[tb_pin] Currently allocated     0.00E+00 Mbytes, locked:    0 /   0

     iteration #  1     ecut=    60.00 Ry     beta= 0.10
     Davidson diagonalization with overlap

---- Real-time Memory Report at c_bands before calling an iterative solver
           633 MiB given to the printing process from OS
           425 MiB allocation reported by mallinfo(arena+hblkhd)
         58935 MiB available memory on the node where the printing process lives
     GPU memory used/free/total (MiB): 834 / 15446 / 16280
------------------
     ethr =  1.00E-05,  avg # of iterations =  1.7

     Threshold (ethr) on eigenvalues was too large:
     Diagonalizing with lowered threshold

     Davidson diagonalization with overlap

---- Real-time Memory Report at c_bands before calling an iterative solver
          1305 MiB given to the printing process from OS
          1060 MiB allocation reported by mallinfo(arena+hblkhd)
         57552 MiB available memory on the node where the printing process lives
     GPU memory used/free/total (MiB): 1402 / 14878 / 16280
------------------
     ethr =  3.08E-07,  avg # of iterations =  1.2

     total cpu time spent up to now is       12.0 secs

     total energy              =    -183.12930332 Ry
     estimated scf accuracy    <       0.00009531 Ry

     total magnetization       =     3.21 Bohr mag/cell
     absolute magnetization    =     3.25 Bohr mag/cell
[tb_dev] Currently allocated     3.31E+00 Mbytes, locked:    0 /  10
[tb_pin] Currently allocated     0.00E+00 Mbytes, locked:    0 /   0

     iteration #  2     ecut=    60.00 Ry     beta= 0.10
     Davidson diagonalization with overlap

---- Real-time Memory Report at c_bands before calling an iterative solver
          1399 MiB given to the printing process from OS
          1095 MiB allocation reported by mallinfo(arena+hblkhd)
         57521 MiB available memory on the node where the printing process lives
     GPU memory used/free/total (MiB): 1410 / 14870 / 16280
------------------
     ethr =  3.18E-07,  avg # of iterations =  1.0

     total cpu time spent up to now is       15.1 secs

     total energy              =    -183.12931328 Ry
     estimated scf accuracy    <       0.00011305 Ry

     total magnetization       =     3.17 Bohr mag/cell
     absolute magnetization    =     3.21 Bohr mag/cell
[tb_dev] Currently allocated     3.31E+00 Mbytes, locked:    0 /  10
[tb_pin] Currently allocated     0.00E+00 Mbytes, locked:    0 /   0

     iteration #  3     ecut=    60.00 Ry     beta= 0.10
     Davidson diagonalization with overlap

---- Real-time Memory Report at c_bands before calling an iterative solver
          1481 MiB given to the printing process from OS
          1107 MiB allocation reported by mallinfo(arena+hblkhd)
         57510 MiB available memory on the node where the printing process lives
     GPU memory used/free/total (MiB): 1410 / 14870 / 16280
------------------
     ethr =  3.18E-07,  avg # of iterations =  1.0

     total cpu time spent up to now is       18.2 secs

     total energy              =    -183.12933412 Ry
     estimated scf accuracy    <       0.00005380 Ry

     total magnetization       =     3.18 Bohr mag/cell
     absolute magnetization    =     3.22 Bohr mag/cell
[tb_dev] Currently allocated     3.31E+00 Mbytes, locked:    0 /  10
[tb_pin] Currently allocated     0.00E+00 Mbytes, locked:    0 /   0

     iteration #  4     ecut=    60.00 Ry     beta= 0.10
     Davidson diagonalization with overlap

---- Real-time Memory Report at c_bands before calling an iterative solver
          1559 MiB given to the printing process from OS
          1116 MiB allocation reported by mallinfo(arena+hblkhd)
         57499 MiB available memory on the node where the printing process lives
     GPU memory used/free/total (MiB): 1410 / 14870 / 16280
------------------
     ethr =  1.79E-07,  avg # of iterations =  1.3

     total cpu time spent up to now is       21.5 secs

     total energy              =    -183.12937531 Ry
     estimated scf accuracy    <       0.00003971 Ry

     total magnetization       =     3.15 Bohr mag/cell
     absolute magnetization    =     3.19 Bohr mag/cell
[tb_dev] Currently allocated     3.31E+00 Mbytes, locked:    0 /  10
[tb_pin] Currently allocated     0.00E+00 Mbytes, locked:    0 /   0

     iteration #  5     ecut=    60.00 Ry     beta= 0.10
     Davidson diagonalization with overlap

---- Real-time Memory Report at c_bands before calling an iterative solver
          1637 MiB given to the printing process from OS
          1125 MiB allocation reported by mallinfo(arena+hblkhd)
         57485 MiB available memory on the node where the printing process lives
     GPU memory used/free/total (MiB): 1410 / 14870 / 16280
------------------
     ethr =  1.32E-07,  avg # of iterations =  3.6

     total cpu time spent up to now is       26.6 secs

     total energy              =    -183.12944095 Ry
     estimated scf accuracy    <       0.00004939 Ry

     total magnetization       =     3.07 Bohr mag/cell
     absolute magnetization    =     3.15 Bohr mag/cell
[tb_dev] Currently allocated     3.31E+00 Mbytes, locked:    0 /  10
[tb_pin] Currently allocated     0.00E+00 Mbytes, locked:    0 /   0

     iteration #  6     ecut=    60.00 Ry     beta= 0.10
     Davidson diagonalization with overlap

---- Real-time Memory Report at c_bands before calling an iterative solver
          1714 MiB given to the printing process from OS
          1134 MiB allocation reported by mallinfo(arena+hblkhd)
         57474 MiB available memory on the node where the printing process lives
     GPU memory used/free/total (MiB): 1506 / 14774 / 16280
------------------
     ethr =  1.32E-07,  avg # of iterations =  1.0

     total cpu time spent up to now is       29.7 secs

     total energy              =    -183.12936435 Ry
     estimated scf accuracy    <       0.00004611 Ry

     total magnetization       =     3.09 Bohr mag/cell
     absolute magnetization    =     3.15 Bohr mag/cell
[tb_dev] Currently allocated     3.31E+00 Mbytes, locked:    0 /  10
[tb_pin] Currently allocated     0.00E+00 Mbytes, locked:    0 /   0

     iteration #  7     ecut=    60.00 Ry     beta= 0.10
     Davidson diagonalization with overlap

---- Real-time Memory Report at c_bands before calling an iterative solver
          1793 MiB given to the printing process from OS
          1143 MiB allocation reported by mallinfo(arena+hblkhd)
         57461 MiB available memory on the node where the printing process lives
     GPU memory used/free/total (MiB): 1506 / 14774 / 16280
------------------
     ethr =  1.32E-07,  avg # of iterations =  1.4

     total cpu time spent up to now is       33.0 secs

     total energy              =    -183.12825138 Ry
     estimated scf accuracy    <       0.00004593 Ry

     total magnetization       =     3.13 Bohr mag/cell
     absolute magnetization    =     3.18 Bohr mag/cell
[tb_dev] Currently allocated     3.31E+00 Mbytes, locked:    0 /  10
[tb_pin] Currently allocated     0.00E+00 Mbytes, locked:    0 /   0

     iteration #  8     ecut=    60.00 Ry     beta= 0.10
     Davidson diagonalization with overlap

---- Real-time Memory Report at c_bands before calling an iterative solver
          1847 MiB given to the printing process from OS
          1152 MiB allocation reported by mallinfo(arena+hblkhd)
         57450 MiB available memory on the node where the printing process lives
     GPU memory used/free/total (MiB): 1506 / 14774 / 16280
------------------
     ethr =  1.32E-07,  avg # of iterations =  5.1

     total cpu time spent up to now is       39.5 secs

     total energy              =    -183.12904000 Ry
     estimated scf accuracy    <       0.00008555 Ry

     total magnetization       =     3.42 Bohr mag/cell
     absolute magnetization    =     3.45 Bohr mag/cell
[tb_dev] Currently allocated     3.31E+00 Mbytes, locked:    0 /  10
[tb_pin] Currently allocated     0.00E+00 Mbytes, locked:    0 /   0

     iteration #  9     ecut=    60.00 Ry     beta= 0.10
     Davidson diagonalization with overlap

---- Real-time Memory Report at c_bands before calling an iterative solver
          1887 MiB given to the printing process from OS
          1161 MiB allocation reported by mallinfo(arena+hblkhd)
         57438 MiB available memory on the node where the printing process lives
     GPU memory used/free/total (MiB): 1520 / 14760 / 16280
------------------
     ethr =  1.32E-07,  avg # of iterations =  2.7

     total cpu time spent up to now is       44.1 secs

     total energy              =    -183.12922485 Ry
     estimated scf accuracy    <       0.00017991 Ry

     total magnetization       =     3.29 Bohr mag/cell
     absolute magnetization    =     3.33 Bohr mag/cell
[tb_dev] Currently allocated     3.31E+00 Mbytes, locked:    0 /  10
[tb_pin] Currently allocated     0.00E+00 Mbytes, locked:    0 /   0

     iteration # 10     ecut=    60.00 Ry     beta= 0.10
     Davidson diagonalization with overlap

---- Real-time Memory Report at c_bands before calling an iterative solver
          1924 MiB given to the printing process from OS
          1170 MiB allocation reported by mallinfo(arena+hblkhd)
         57432 MiB available memory on the node where the printing process lives
     GPU memory used/free/total (MiB): 1520 / 14760 / 16280
------------------
     ethr =  1.32E-07,  avg # of iterations =  1.0

     total cpu time spent up to now is       47.4 secs

     total energy              =    -183.12916735 Ry
     estimated scf accuracy    <       0.00017298 Ry

     total magnetization       =     3.32 Bohr mag/cell
     absolute magnetization    =     3.35 Bohr mag/cell
[tb_dev] Currently allocated     3.31E+00 Mbytes, locked:    0 /  10
[tb_pin] Currently allocated     0.00E+00 Mbytes, locked:    0 /   0

     iteration # 11     ecut=    60.00 Ry     beta= 0.10
     Davidson diagonalization with overlap

---- Real-time Memory Report at c_bands before calling an iterative solver
          1951 MiB given to the printing process from OS
          1179 MiB allocation reported by mallinfo(arena+hblkhd)
         57423 MiB available memory on the node where the printing process lives
     GPU memory used/free/total (MiB): 1520 / 14760 / 16280
------------------
     ethr =  1.32E-07,  avg # of iterations =  1.7

     total cpu time spent up to now is       50.9 secs

     total energy              =    -183.12892039 Ry
     estimated scf accuracy    <       0.00010255 Ry

     total magnetization       =     3.35 Bohr mag/cell
     absolute magnetization    =     3.38 Bohr mag/cell
[tb_dev] Currently allocated     3.31E+00 Mbytes, locked:    0 /  10
[tb_pin] Currently allocated     0.00E+00 Mbytes, locked:    0 /   0

     iteration # 12     ecut=    60.00 Ry     beta= 0.10
     Davidson diagonalization with overlap

---- Real-time Memory Report at c_bands before calling an iterative solver
          1977 MiB given to the printing process from OS
          1184 MiB allocation reported by mallinfo(arena+hblkhd)
         57419 MiB available memory on the node where the printing process lives
     GPU memory used/free/total (MiB): 1520 / 14760 / 16280
------------------
     ethr =  1.32E-07,  avg # of iterations =  3.4

     total cpu time spent up to now is       55.9 secs

     total energy              =    -183.12887010 Ry
     estimated scf accuracy    <       0.00009137 Ry

     total magnetization       =     3.46 Bohr mag/cell
     absolute magnetization    =     3.50 Bohr mag/cell
[tb_dev] Currently allocated     3.31E+00 Mbytes, locked:    0 /  10
[tb_pin] Currently allocated     0.00E+00 Mbytes, locked:    0 /   0

     iteration # 13     ecut=    60.00 Ry     beta= 0.10
     Davidson diagonalization with overlap

---- Real-time Memory Report at c_bands before calling an iterative solver
          2002 MiB given to the printing process from OS
          1190 MiB allocation reported by mallinfo(arena+hblkhd)
         57413 MiB available memory on the node where the printing process lives
     GPU memory used/free/total (MiB): 1520 / 14760 / 16280
------------------
     ethr =  1.32E-07,  avg # of iterations =  4.2

     total cpu time spent up to now is       61.4 secs

     total energy              =    -183.12890447 Ry
     estimated scf accuracy    <       0.00009302 Ry

     total magnetization       =     3.55 Bohr mag/cell
     absolute magnetization    =     3.59 Bohr mag/cell
[tb_dev] Currently allocated     3.31E+00 Mbytes, locked:    0 /  10
[tb_pin] Currently allocated     0.00E+00 Mbytes, locked:    0 /   0

     iteration # 14     ecut=    60.00 Ry     beta= 0.10
     Davidson diagonalization with overlap

---- Real-time Memory Report at c_bands before calling an iterative solver
          2028 MiB given to the printing process from OS
          1195 MiB allocation reported by mallinfo(arena+hblkhd)
         57406 MiB available memory on the node where the printing process lives
     GPU memory used/free/total (MiB): 1520 / 14760 / 16280
------------------
     ethr =  1.32E-07,  avg # of iterations =  3.1

     total cpu time spent up to now is       66.2 secs

     total energy              =    -183.12907527 Ry
     estimated scf accuracy    <       0.00000757 Ry

     total magnetization       =     3.40 Bohr mag/cell
     absolute magnetization    =     3.44 Bohr mag/cell
[tb_dev] Currently allocated     3.31E+00 Mbytes, locked:    0 /  10
[tb_pin] Currently allocated     0.00E+00 Mbytes, locked:    0 /   0

     iteration # 15     ecut=    60.00 Ry     beta= 0.10
     Davidson diagonalization with overlap

---- Real-time Memory Report at c_bands before calling an iterative solver
          2055 MiB given to the printing process from OS
          1201 MiB allocation reported by mallinfo(arena+hblkhd)
         57403 MiB available memory on the node where the printing process lives
     GPU memory used/free/total (MiB): 1520 / 14760 / 16280
------------------
     ethr =  2.52E-08,  avg # of iterations =  2.5

     total cpu time spent up to now is       70.7 secs

     total energy              =    -183.12845532 Ry
     estimated scf accuracy    <       0.00001520 Ry

     total magnetization       =     3.45 Bohr mag/cell
     absolute magnetization    =     3.49 Bohr mag/cell
[tb_dev] Currently allocated     3.31E+00 Mbytes, locked:    0 /  10
[tb_pin] Currently allocated     0.00E+00 Mbytes, locked:    0 /   0

     iteration # 16     ecut=    60.00 Ry     beta= 0.10
     Davidson diagonalization with overlap

---- Real-time Memory Report at c_bands before calling an iterative solver
          2080 MiB given to the printing process from OS
          1206 MiB allocation reported by mallinfo(arena+hblkhd)
         57396 MiB available memory on the node where the printing process lives
     GPU memory used/free/total (MiB): 1520 / 14760 / 16280
------------------
     ethr =  2.52E-08,  avg # of iterations =  7.7

     total cpu time spent up to now is       79.2 secs

     total energy              =    -183.12681858 Ry
     estimated scf accuracy    <       0.00012028 Ry

     total magnetization       =     3.60 Bohr mag/cell
     absolute magnetization    =     3.65 Bohr mag/cell
[tb_dev] Currently allocated     3.31E+00 Mbytes, locked:    0 /  10
[tb_pin] Currently allocated     0.00E+00 Mbytes, locked:    0 /   0

     iteration # 17     ecut=    60.00 Ry     beta= 0.10
     Davidson diagonalization with overlap

---- Real-time Memory Report at c_bands before calling an iterative solver
          2090 MiB given to the printing process from OS
          1212 MiB allocation reported by mallinfo(arena+hblkhd)
         57393 MiB available memory on the node where the printing process lives
     GPU memory used/free/total (MiB): 1520 / 14760 / 16280
------------------
     ethr =  2.52E-08,  avg # of iterations =  9.9

     total cpu time spent up to now is       89.8 secs

     total energy              =    -183.12931443 Ry
     estimated scf accuracy    <       0.00011678 Ry

     total magnetization       =     3.19 Bohr mag/cell
     absolute magnetization    =     3.23 Bohr mag/cell
[tb_dev] Currently allocated     3.31E+00 Mbytes, locked:    0 /  10
[tb_pin] Currently allocated     0.00E+00 Mbytes, locked:    0 /   0

     iteration # 18     ecut=    60.00 Ry     beta= 0.10
     Davidson diagonalization with overlap

---- Real-time Memory Report at c_bands before calling an iterative solver
          2100 MiB given to the printing process from OS
          1218 MiB allocation reported by mallinfo(arena+hblkhd)
         57389 MiB available memory on the node where the printing process lives
     GPU memory used/free/total (MiB): 1520 / 14760 / 16280
------------------
     ethr =  2.52E-08,  avg # of iterations =  6.2

     total cpu time spent up to now is       97.0 secs

     total energy              =    -183.12954610 Ry
     estimated scf accuracy    <       0.00037529 Ry

     total magnetization       =     3.05 Bohr mag/cell
     absolute magnetization    =     3.17 Bohr mag/cell
[tb_dev] Currently allocated     3.31E+00 Mbytes, locked:    0 /  10
[tb_pin] Currently allocated     0.00E+00 Mbytes, locked:    0 /   0

     iteration # 19     ecut=    60.00 Ry     beta= 0.10
     Davidson diagonalization with overlap

---- Real-time Memory Report at c_bands before calling an iterative solver
          2110 MiB given to the printing process from OS
          1223 MiB allocation reported by mallinfo(arena+hblkhd)
         57382 MiB available memory on the node where the printing process lives
     GPU memory used/free/total (MiB): 1520 / 14760 / 16280
------------------
     ethr =  2.52E-08,  avg # of iterations =  1.0

     total cpu time spent up to now is      100.3 secs

     total energy              =    -183.12947627 Ry
     estimated scf accuracy    <       0.00037487 Ry

     total magnetization       =     3.07 Bohr mag/cell
     absolute magnetization    =     3.17 Bohr mag/cell
[tb_dev] Currently allocated     3.31E+00 Mbytes, locked:    0 /  10
[tb_pin] Currently allocated     0.00E+00 Mbytes, locked:    0 /   0

     iteration # 20     ecut=    60.00 Ry     beta= 0.10
     Davidson diagonalization with overlap

---- Real-time Memory Report at c_bands before calling an iterative solver
          2120 MiB given to the printing process from OS
          1229 MiB allocation reported by mallinfo(arena+hblkhd)
         57375 MiB available memory on the node where the printing process lives
     GPU memory used/free/total (MiB): 1520 / 14760 / 16280
------------------
     ethr =  2.52E-08,  avg # of iterations =  2.0

     total cpu time spent up to now is      104.3 secs

     total energy              =    -183.12949295 Ry
     estimated scf accuracy    <       0.00031560 Ry

     total magnetization       =     3.10 Bohr mag/cell
     absolute magnetization    =     3.18 Bohr mag/cell
[tb_dev] Currently allocated     3.31E+00 Mbytes, locked:    0 /  10
[tb_pin] Currently allocated     0.00E+00 Mbytes, locked:    0 /   0

     iteration # 21     ecut=    60.00 Ry     beta= 0.10
     Davidson diagonalization with overlap

---- Real-time Memory Report at c_bands before calling an iterative solver
          2131 MiB given to the printing process from OS
          1234 MiB allocation reported by mallinfo(arena+hblkhd)
         57372 MiB available memory on the node where the printing process lives
     GPU memory used/free/total (MiB): 1520 / 14760 / 16280
------------------
     ethr =  2.52E-08,  avg # of iterations =  1.0

     total cpu time spent up to now is      107.4 secs

     total energy              =    -183.12943790 Ry
     estimated scf accuracy    <       0.00030927 Ry

     total magnetization       =     3.10 Bohr mag/cell
     absolute magnetization    =     3.18 Bohr mag/cell
[tb_dev] Currently allocated     3.31E+00 Mbytes, locked:    0 /  10
[tb_pin] Currently allocated     0.00E+00 Mbytes, locked:    0 /   0

     iteration # 22     ecut=    60.00 Ry     beta= 0.10
     Davidson diagonalization with overlap

---- Real-time Memory Report at c_bands before calling an iterative solver
          2137 MiB given to the printing process from OS
          1240 MiB allocation reported by mallinfo(arena+hblkhd)
         57369 MiB available memory on the node where the printing process lives
     GPU memory used/free/total (MiB): 1520 / 14760 / 16280
------------------
     ethr =  2.52E-08,  avg # of iterations =  2.0

     total cpu time spent up to now is      111.2 secs

     total energy              =    -183.12947007 Ry
     estimated scf accuracy    <       0.00029157 Ry

     total magnetization       =     3.13 Bohr mag/cell
     absolute magnetization    =     3.19 Bohr mag/cell
[tb_dev] Currently allocated     3.31E+00 Mbytes, locked:    0 /  10
[tb_pin] Currently allocated     0.00E+00 Mbytes, locked:    0 /   0

     iteration # 23     ecut=    60.00 Ry     beta= 0.10
     Davidson diagonalization with overlap

---- Real-time Memory Report at c_bands before calling an iterative solver
          2144 MiB given to the printing process from OS
          1245 MiB allocation reported by mallinfo(arena+hblkhd)
         57361 MiB available memory on the node where the printing process lives
     GPU memory used/free/total (MiB): 1520 / 14760 / 16280
------------------
     ethr =  2.52E-08,  avg # of iterations =  1.0

     total cpu time spent up to now is      114.4 secs

     total energy              =    -183.12920707 Ry
     estimated scf accuracy    <       0.00032721 Ry

     total magnetization       =     3.11 Bohr mag/cell
     absolute magnetization    =     3.18 Bohr mag/cell
[tb_dev] Currently allocated     3.31E+00 Mbytes, locked:    0 /  10
[tb_pin] Currently allocated     0.00E+00 Mbytes, locked:    0 /   0

     iteration # 24     ecut=    60.00 Ry     beta= 0.10
     Davidson diagonalization with overlap

---- Real-time Memory Report at c_bands before calling an iterative solver
          2150 MiB given to the printing process from OS
          1251 MiB allocation reported by mallinfo(arena+hblkhd)
         57352 MiB available memory on the node where the printing process lives
     GPU memory used/free/total (MiB): 1520 / 14760 / 16280
------------------
     ethr =  2.52E-08,  avg # of iterations =  5.1

     total cpu time spent up to now is      120.7 secs

     total energy              =    -183.12924394 Ry
     estimated scf accuracy    <       0.00014712 Ry

     total magnetization       =     3.21 Bohr mag/cell
     absolute magnetization    =     3.24 Bohr mag/cell
[tb_dev] Currently allocated     3.31E+00 Mbytes, locked:    0 /  10
[tb_pin] Currently allocated     0.00E+00 Mbytes, locked:    0 /   0

     iteration # 25     ecut=    60.00 Ry     beta= 0.10
     Davidson diagonalization with overlap

---- Real-time Memory Report at c_bands before calling an iterative solver
          2156 MiB given to the printing process from OS
          1256 MiB allocation reported by mallinfo(arena+hblkhd)
         57351 MiB available memory on the node where the printing process lives
     GPU memory used/free/total (MiB): 1520 / 14760 / 16280
------------------
     ethr =  2.52E-08,  avg # of iterations =  3.3

     total cpu time spent up to now is      125.6 secs

     total energy              =    -183.12871772 Ry
     estimated scf accuracy    <       0.00012658 Ry

     total magnetization       =     3.26 Bohr mag/cell
     absolute magnetization    =     3.29 Bohr mag/cell
[tb_dev] Currently allocated     3.31E+00 Mbytes, locked:    0 /  10
[tb_pin] Currently allocated     0.00E+00 Mbytes, locked:    0 /   0

     iteration # 26     ecut=    60.00 Ry     beta= 0.10
     Davidson diagonalization with overlap

---- Real-time Memory Report at c_bands before calling an iterative solver
          2163 MiB given to the printing process from OS
          1262 MiB allocation reported by mallinfo(arena+hblkhd)
         57344 MiB available memory on the node where the printing process lives
     GPU memory used/free/total (MiB): 1520 / 14760 / 16280
------------------
     ethr =  2.52E-08,  avg # of iterations =  7.5

     total cpu time spent up to now is      134.1 secs

     total energy              =    -183.12912458 Ry
     estimated scf accuracy    <       0.00006270 Ry

     total magnetization       =     3.42 Bohr mag/cell
     absolute magnetization    =     3.46 Bohr mag/cell
[tb_dev] Currently allocated     3.31E+00 Mbytes, locked:    0 /  10
[tb_pin] Currently allocated     0.00E+00 Mbytes, locked:    0 /   0

     iteration # 27     ecut=    60.00 Ry     beta= 0.10
     Davidson diagonalization with overlap

---- Real-time Memory Report at c_bands before calling an iterative solver
          2168 MiB given to the printing process from OS
          1267 MiB allocation reported by mallinfo(arena+hblkhd)
         57337 MiB available memory on the node where the printing process lives
     GPU memory used/free/total (MiB): 1520 / 14760 / 16280
------------------
     ethr =  2.52E-08,  avg # of iterations =  3.4

     total cpu time spent up to now is      139.1 secs

     total energy              =    -183.12913687 Ry
     estimated scf accuracy    <       0.00007967 Ry

     total magnetization       =     3.37 Bohr mag/cell
     absolute magnetization    =     3.40 Bohr mag/cell
[tb_dev] Currently allocated     3.31E+00 Mbytes, locked:    0 /  10
[tb_pin] Currently allocated     0.00E+00 Mbytes, locked:    0 /   0

     iteration # 28     ecut=    60.00 Ry     beta= 0.10
     Davidson diagonalization with overlap

---- Real-time Memory Report at c_bands before calling an iterative solver
          2175 MiB given to the printing process from OS
          1273 MiB allocation reported by mallinfo(arena+hblkhd)
         57329 MiB available memory on the node where the printing process lives
     GPU memory used/free/total (MiB): 1520 / 14760 / 16280
------------------
     ethr =  2.52E-08,  avg # of iterations =  2.0

     total cpu time spent up to now is      143.0 secs

     total energy              =    -183.12906723 Ry
     estimated scf accuracy    <       0.00007147 Ry

     total magnetization       =     3.40 Bohr mag/cell
     absolute magnetization    =     3.43 Bohr mag/cell
[tb_dev] Currently allocated     3.31E+00 Mbytes, locked:    0 /  10
[tb_pin] Currently allocated     0.00E+00 Mbytes, locked:    0 /   0

     iteration # 29     ecut=    60.00 Ry     beta= 0.10
     Davidson diagonalization with overlap

---- Real-time Memory Report at c_bands before calling an iterative solver
          2180 MiB given to the printing process from OS
          1278 MiB allocation reported by mallinfo(arena+hblkhd)
         57324 MiB available memory on the node where the printing process lives
     GPU memory used/free/total (MiB): 1520 / 14760 / 16280
------------------
     ethr =  2.52E-08,  avg # of iterations =  4.2

     total cpu time spent up to now is      148.5 secs

     total energy              =    -183.12907756 Ry
     estimated scf accuracy    <       0.00005638 Ry

     total magnetization       =     3.45 Bohr mag/cell
     absolute magnetization    =     3.48 Bohr mag/cell
[tb_dev] Currently allocated     3.31E+00 Mbytes, locked:    0 /  10
[tb_pin] Currently allocated     0.00E+00 Mbytes, locked:    0 /   0

     iteration # 30     ecut=    60.00 Ry     beta= 0.10
     Davidson diagonalization with overlap

---- Real-time Memory Report at c_bands before calling an iterative solver
          2186 MiB given to the printing process from OS
          1284 MiB allocation reported by mallinfo(arena+hblkhd)
         57320 MiB available memory on the node where the printing process lives
     GPU memory used/free/total (MiB): 1520 / 14760 / 16280
------------------
     ethr =  2.52E-08,  avg # of iterations =  3.2

     total cpu time spent up to now is      153.3 secs

     total energy              =    -183.12901315 Ry
     estimated scf accuracy    <       0.00007021 Ry

     total magnetization       =     3.48 Bohr mag/cell
     absolute magnetization    =     3.52 Bohr mag/cell
[tb_dev] Currently allocated     3.31E+00 Mbytes, locked:    0 /  10
[tb_pin] Currently allocated     0.00E+00 Mbytes, locked:    0 /   0

     iteration # 31     ecut=    60.00 Ry     beta= 0.10
     Davidson diagonalization with overlap

---- Real-time Memory Report at c_bands before calling an iterative solver
          2192 MiB given to the printing process from OS
          1289 MiB allocation reported by mallinfo(arena+hblkhd)
         57315 MiB available memory on the node where the printing process lives
     GPU memory used/free/total (MiB): 1520 / 14760 / 16280
------------------
     ethr =  2.52E-08,  avg # of iterations =  5.3

     total cpu time spent up to now is      159.8 secs

     total energy              =    -183.12913669 Ry
     estimated scf accuracy    <       0.00006181 Ry

     total magnetization       =     3.38 Bohr mag/cell
     absolute magnetization    =     3.41 Bohr mag/cell
[tb_dev] Currently allocated     3.31E+00 Mbytes, locked:    0 /  10
[tb_pin] Currently allocated     0.00E+00 Mbytes, locked:    0 /   0

     iteration # 32     ecut=    60.00 Ry     beta= 0.10
     Davidson diagonalization with overlap

---- Real-time Memory Report at c_bands before calling an iterative solver
          2197 MiB given to the printing process from OS
          1295 MiB allocation reported by mallinfo(arena+hblkhd)
         57305 MiB available memory on the node where the printing process lives
     GPU memory used/free/total (MiB): 1520 / 14760 / 16280
------------------
     ethr =  2.52E-08,  avg # of iterations =  2.0

     total cpu time spent up to now is      163.7 secs

     total energy              =    -183.12851955 Ry
     estimated scf accuracy    <       0.00007192 Ry

     total magnetization       =     3.41 Bohr mag/cell
     absolute magnetization    =     3.44 Bohr mag/cell
[tb_dev] Currently allocated     3.31E+00 Mbytes, locked:    0 /  10
[tb_pin] Currently allocated     0.00E+00 Mbytes, locked:    0 /   0

     iteration # 33     ecut=    60.00 Ry     beta= 0.10
     Davidson diagonalization with overlap

---- Real-time Memory Report at c_bands before calling an iterative solver
          2204 MiB given to the printing process from OS
          1300 MiB allocation reported by mallinfo(arena+hblkhd)
         57301 MiB available memory on the node where the printing process lives
     GPU memory used/free/total (MiB): 1520 / 14760 / 16280
------------------
     ethr =  2.52E-08,  avg # of iterations =  7.4

     total cpu time spent up to now is      172.1 secs

     total energy              =    -183.12850495 Ry
     estimated scf accuracy    <       0.00006647 Ry

     total magnetization       =     3.55 Bohr mag/cell
     absolute magnetization    =     3.60 Bohr mag/cell
[tb_dev] Currently allocated     3.31E+00 Mbytes, locked:    0 /  10
[tb_pin] Currently allocated     0.00E+00 Mbytes, locked:    0 /   0

     iteration # 34     ecut=    60.00 Ry     beta= 0.10
     Davidson diagonalization with overlap

---- Real-time Memory Report at c_bands before calling an iterative solver
          2210 MiB given to the printing process from OS
          1306 MiB allocation reported by mallinfo(arena+hblkhd)
         57298 MiB available memory on the node where the printing process lives
     GPU memory used/free/total (MiB): 1520 / 14760 / 16280
------------------
     ethr =  2.52E-08,  avg # of iterations =  8.1

     total cpu time spent up to now is      181.0 secs

     total energy              =    -183.12712954 Ry
     estimated scf accuracy    <       0.00003712 Ry

     total magnetization       =     3.35 Bohr mag/cell
     absolute magnetization    =     3.39 Bohr mag/cell
[tb_dev] Currently allocated     3.31E+00 Mbytes, locked:    0 /  10
[tb_pin] Currently allocated     0.00E+00 Mbytes, locked:    0 /   0

     iteration # 35     ecut=    60.00 Ry     beta= 0.10
     Davidson diagonalization with overlap

---- Real-time Memory Report at c_bands before calling an iterative solver
          2215 MiB given to the printing process from OS
          1312 MiB allocation reported by mallinfo(arena+hblkhd)
         57291 MiB available memory on the node where the printing process lives
     GPU memory used/free/total (MiB): 1520 / 14760 / 16280
------------------
     ethr =  2.52E-08,  avg # of iterations =  9.7

     total cpu time spent up to now is      191.5 secs

     total energy              =    -183.12604720 Ry
     estimated scf accuracy    <       0.00128938 Ry

     total magnetization       =     2.88 Bohr mag/cell
     absolute magnetization    =     3.20 Bohr mag/cell
[tb_dev] Currently allocated     3.31E+00 Mbytes, locked:    0 /  10
[tb_pin] Currently allocated     0.00E+00 Mbytes, locked:    0 /   0

     iteration # 36     ecut=    60.00 Ry     beta= 0.10
     Davidson diagonalization with overlap

---- Real-time Memory Report at c_bands before calling an iterative solver
          2217 MiB given to the printing process from OS
          1273 MiB allocation reported by mallinfo(arena+hblkhd)
         57321 MiB available memory on the node where the printing process lives
     GPU memory used/free/total (MiB): 1520 / 14760 / 16280
------------------
     ethr =  2.52E-08,  avg # of iterations =  9.7

     total cpu time spent up to now is      201.9 secs

     total energy              =    -183.12918734 Ry
     estimated scf accuracy    <       0.00005906 Ry

     total magnetization       =     3.36 Bohr mag/cell
     absolute magnetization    =     3.39 Bohr mag/cell
[tb_dev] Currently allocated     3.31E+00 Mbytes, locked:    0 /  10
[tb_pin] Currently allocated     0.00E+00 Mbytes, locked:    0 /   0

     iteration # 37     ecut=    60.00 Ry     beta= 0.10
     Davidson diagonalization with overlap

---- Real-time Memory Report at c_bands before calling an iterative solver
          2217 MiB given to the printing process from OS
          1278 MiB allocation reported by mallinfo(arena+hblkhd)
         57319 MiB available memory on the node where the printing process lives
     GPU memory used/free/total (MiB): 1520 / 14760 / 16280
------------------
     ethr =  2.52E-08,  avg # of iterations =  2.5

     total cpu time spent up to now is      206.3 secs

     total energy              =    -183.12921613 Ry
     estimated scf accuracy    <       0.00007573 Ry

     total magnetization       =     3.31 Bohr mag/cell
     absolute magnetization    =     3.35 Bohr mag/cell
[tb_dev] Currently allocated     3.31E+00 Mbytes, locked:    0 /  10
[tb_pin] Currently allocated     0.00E+00 Mbytes, locked:    0 /   0

     iteration # 38     ecut=    60.00 Ry     beta= 0.10
     Davidson diagonalization with overlap

---- Real-time Memory Report at c_bands before calling an iterative solver
          2217 MiB given to the printing process from OS
          1287 MiB allocation reported by mallinfo(arena+hblkhd)
         57313 MiB available memory on the node where the printing process lives
     GPU memory used/free/total (MiB): 1520 / 14760 / 16280
------------------
     ethr =  2.52E-08,  avg # of iterations =  1.0

     total cpu time spent up to now is      209.4 secs

     total energy              =    -183.12910344 Ry
     estimated scf accuracy    <       0.00007556 Ry

     total magnetization       =     3.32 Bohr mag/cell
     absolute magnetization    =     3.35 Bohr mag/cell
[tb_dev] Currently allocated     3.31E+00 Mbytes, locked:    0 /  10
[tb_pin] Currently allocated     0.00E+00 Mbytes, locked:    0 /   0

     iteration # 39     ecut=    60.00 Ry     beta= 0.10
     Davidson diagonalization with overlap

---- Real-time Memory Report at c_bands before calling an iterative solver
          2217 MiB given to the printing process from OS
          1292 MiB allocation reported by mallinfo(arena+hblkhd)
         57308 MiB available memory on the node where the printing process lives
     GPU memory used/free/total (MiB): 1520 / 14760 / 16280
------------------
     ethr =  2.52E-08,  avg # of iterations =  3.3

     total cpu time spent up to now is      214.3 secs

     total energy              =    -183.12911914 Ry
     estimated scf accuracy    <       0.00006244 Ry

     total magnetization       =     3.38 Bohr mag/cell
     absolute magnetization    =     3.41 Bohr mag/cell
[tb_dev] Currently allocated     3.31E+00 Mbytes, locked:    0 /  10
[tb_pin] Currently allocated     0.00E+00 Mbytes, locked:    0 /   0

     iteration # 40     ecut=    60.00 Ry     beta= 0.10
     Davidson diagonalization with overlap

---- Real-time Memory Report at c_bands before calling an iterative solver
          2219 MiB given to the printing process from OS
          1298 MiB allocation reported by mallinfo(arena+hblkhd)
         57298 MiB available memory on the node where the printing process lives
     GPU memory used/free/total (MiB): 1520 / 14760 / 16280
------------------
     ethr =  2.52E-08,  avg # of iterations =  3.7

     total cpu time spent up to now is      219.5 secs

     total energy              =    -183.12912686 Ry
     estimated scf accuracy    <       0.00005905 Ry

     total magnetization       =     3.41 Bohr mag/cell
     absolute magnetization    =     3.45 Bohr mag/cell
[tb_dev] Currently allocated     3.31E+00 Mbytes, locked:    0 /  10
[tb_pin] Currently allocated     0.00E+00 Mbytes, locked:    0 /   0

     iteration # 41     ecut=    60.00 Ry     beta= 0.10
     Davidson diagonalization with overlap

---- Real-time Memory Report at c_bands before calling an iterative solver
          2224 MiB given to the printing process from OS
          1303 MiB allocation reported by mallinfo(arena+hblkhd)
         57295 MiB available memory on the node where the printing process lives
     GPU memory used/free/total (MiB): 1520 / 14760 / 16280
------------------
     ethr =  2.52E-08,  avg # of iterations =  3.2

     total cpu time spent up to now is      224.4 secs

     total energy              =    -183.12919166 Ry
     estimated scf accuracy    <       0.00006762 Ry

     total magnetization       =     3.35 Bohr mag/cell
     absolute magnetization    =     3.39 Bohr mag/cell
[tb_dev] Currently allocated     3.31E+00 Mbytes, locked:    0 /  10
[tb_pin] Currently allocated     0.00E+00 Mbytes, locked:    0 /   0

     iteration # 42     ecut=    60.00 Ry     beta= 0.10
     Davidson diagonalization with overlap

---- Real-time Memory Report at c_bands before calling an iterative solver
          2232 MiB given to the printing process from OS
          1309 MiB allocation reported by mallinfo(arena+hblkhd)
         57290 MiB available memory on the node where the printing process lives
     GPU memory used/free/total (MiB): 1520 / 14760 / 16280
------------------
     ethr =  2.52E-08,  avg # of iterations =  1.1

     total cpu time spent up to now is      227.6 secs

     total energy              =    -183.12885966 Ry
     estimated scf accuracy    <       0.00007029 Ry

     total magnetization       =     3.34 Bohr mag/cell
     absolute magnetization    =     3.38 Bohr mag/cell
[tb_dev] Currently allocated     3.31E+00 Mbytes, locked:    0 /  10
[tb_pin] Currently allocated     0.00E+00 Mbytes, locked:    0 /   0

     iteration # 43     ecut=    60.00 Ry     beta= 0.10
     Davidson diagonalization with overlap

---- Real-time Memory Report at c_bands before calling an iterative solver
          2238 MiB given to the printing process from OS
          1315 MiB allocation reported by mallinfo(arena+hblkhd)
         57285 MiB available memory on the node where the printing process lives
     GPU memory used/free/total (MiB): 1520 / 14760 / 16280
------------------
     ethr =  2.52E-08,  avg # of iterations =  6.5

     total cpu time spent up to now is      235.2 secs

     total energy              =    -183.12908351 Ry
     estimated scf accuracy    <       0.00006243 Ry

     total magnetization       =     3.47 Bohr mag/cell
     absolute magnetization    =     3.51 Bohr mag/cell
[tb_dev] Currently allocated     3.31E+00 Mbytes, locked:    0 /  10
[tb_pin] Currently allocated     0.00E+00 Mbytes, locked:    0 /   0

     iteration # 44     ecut=    60.00 Ry     beta= 0.10
     Davidson diagonalization with overlap

---- Real-time Memory Report at c_bands before calling an iterative solver
          2244 MiB given to the printing process from OS
          1320 MiB allocation reported by mallinfo(arena+hblkhd)
         57276 MiB available memory on the node where the printing process lives
     GPU memory used/free/total (MiB): 1520 / 14760 / 16280
------------------
     ethr =  2.52E-08,  avg # of iterations =  3.7

     total cpu time spent up to now is      240.5 secs

     total energy              =    -183.12815389 Ry
     estimated scf accuracy    <       0.00006220 Ry

     total magnetization       =     3.41 Bohr mag/cell
     absolute magnetization    =     3.44 Bohr mag/cell
[tb_dev] Currently allocated     3.31E+00 Mbytes, locked:    0 /  10
[tb_pin] Currently allocated     0.00E+00 Mbytes, locked:    0 /   0

     iteration # 45     ecut=    60.00 Ry     beta= 0.10
     Davidson diagonalization with overlap

---- Real-time Memory Report at c_bands before calling an iterative solver
          2249 MiB given to the printing process from OS
          1326 MiB allocation reported by mallinfo(arena+hblkhd)
         57272 MiB available memory on the node where the printing process lives
     GPU memory used/free/total (MiB): 1520 / 14760 / 16280
------------------
     ethr =  2.52E-08,  avg # of iterations =  8.5

     total cpu time spent up to now is      249.8 secs

     total energy              =    -183.12882495 Ry
     estimated scf accuracy    <       0.00014624 Ry

     total magnetization       =     3.60 Bohr mag/cell
     absolute magnetization    =     3.65 Bohr mag/cell
[tb_dev] Currently allocated     3.31E+00 Mbytes, locked:    0 /  10
[tb_pin] Currently allocated     0.00E+00 Mbytes, locked:    0 /   0

     iteration # 46     ecut=    60.00 Ry     beta= 0.10
     Davidson diagonalization with overlap

---- Real-time Memory Report at c_bands before calling an iterative solver
          2255 MiB given to the printing process from OS
          1333 MiB allocation reported by mallinfo(arena+hblkhd)
         57267 MiB available memory on the node where the printing process lives
     GPU memory used/free/total (MiB): 1520 / 14760 / 16280
------------------
     ethr =  2.52E-08,  avg # of iterations =  3.3

     total cpu time spent up to now is      254.7 secs

     total energy              =    -183.12886193 Ry
     estimated scf accuracy    <       0.00022376 Ry

     total magnetization       =     3.63 Bohr mag/cell
     absolute magnetization    =     3.68 Bohr mag/cell
[tb_dev] Currently allocated     3.31E+00 Mbytes, locked:    0 /  10
[tb_pin] Currently allocated     0.00E+00 Mbytes, locked:    0 /   0

     iteration # 47     ecut=    60.00 Ry     beta= 0.10
     Davidson diagonalization with overlap

---- Real-time Memory Report at c_bands before calling an iterative solver
          2263 MiB given to the printing process from OS
          1338 MiB allocation reported by mallinfo(arena+hblkhd)
         57262 MiB available memory on the node where the printing process lives
     GPU memory used/free/total (MiB): 1520 / 14760 / 16280
------------------
     ethr =  2.52E-08,  avg # of iterations =  1.0

     total cpu time spent up to now is      257.8 secs

     total energy              =    -183.12890128 Ry
     estimated scf accuracy    <       0.00017371 Ry

     total magnetization       =     3.62 Bohr mag/cell
     absolute magnetization    =     3.67 Bohr mag/cell
[tb_dev] Currently allocated     3.31E+00 Mbytes, locked:    0 /  10
[tb_pin] Currently allocated     0.00E+00 Mbytes, locked:    0 /   0

     iteration # 48     ecut=    60.00 Ry     beta= 0.10
     Davidson diagonalization with overlap

---- Real-time Memory Report at c_bands before calling an iterative solver
          2268 MiB given to the printing process from OS
          1344 MiB allocation reported by mallinfo(arena+hblkhd)
         57252 MiB available memory on the node where the printing process lives
     GPU memory used/free/total (MiB): 1520 / 14760 / 16280
------------------
     ethr =  2.52E-08,  avg # of iterations =  2.0

     total cpu time spent up to now is      261.8 secs

     total energy              =    -183.12887589 Ry
     estimated scf accuracy    <       0.00013463 Ry

     total magnetization       =     3.60 Bohr mag/cell
     absolute magnetization    =     3.65 Bohr mag/cell
[tb_dev] Currently allocated     3.31E+00 Mbytes, locked:    0 /  10
[tb_pin] Currently allocated     0.00E+00 Mbytes, locked:    0 /   0

     iteration # 49     ecut=    60.00 Ry     beta= 0.10
     Davidson diagonalization with overlap

---- Real-time Memory Report at c_bands before calling an iterative solver
          2274 MiB given to the printing process from OS
          1349 MiB allocation reported by mallinfo(arena+hblkhd)
         57248 MiB available memory on the node where the printing process lives
     GPU memory used/free/total (MiB): 1520 / 14760 / 16280
------------------
     ethr =  2.52E-08,  avg # of iterations =  6.8

     total cpu time spent up to now is      269.6 secs

     total energy              =    -183.12609710 Ry
     estimated scf accuracy    <       0.00003439 Ry

     total magnetization       =     3.50 Bohr mag/cell
     absolute magnetization    =     3.54 Bohr mag/cell
[tb_dev] Currently allocated     3.31E+00 Mbytes, locked:    0 /  10
[tb_pin] Currently allocated     0.00E+00 Mbytes, locked:    0 /   0

     iteration # 50     ecut=    60.00 Ry     beta= 0.10
     Davidson diagonalization with overlap

---- Real-time Memory Report at c_bands before calling an iterative solver
          2279 MiB given to the printing process from OS
          1355 MiB allocation reported by mallinfo(arena+hblkhd)
         57245 MiB available memory on the node where the printing process lives
     GPU memory used/free/total (MiB): 1520 / 14760 / 16280
------------------
     ethr =  2.52E-08,  avg # of iterations = 10.0

     total cpu time spent up to now is      280.7 secs

     total energy              =    -183.12793399 Ry
     estimated scf accuracy    <       0.00062413 Ry

     total magnetization       =     2.99 Bohr mag/cell
     absolute magnetization    =     3.17 Bohr mag/cell
[tb_dev] Currently allocated     3.31E+00 Mbytes, locked:    0 /  10
[tb_pin] Currently allocated     0.00E+00 Mbytes, locked:    0 /   0

     iteration # 51     ecut=    60.00 Ry     beta= 0.10
     Davidson diagonalization with overlap

---- Real-time Memory Report at c_bands before calling an iterative solver
          2284 MiB given to the printing process from OS
          1361 MiB allocation reported by mallinfo(arena+hblkhd)
         57240 MiB available memory on the node where the printing process lives
     GPU memory used/free/total (MiB): 1520 / 14760 / 16280
------------------
     ethr =  2.52E-08,  avg # of iterations =  8.2

     total cpu time spent up to now is      289.9 secs

     total energy              =    -183.12906197 Ry
     estimated scf accuracy    <       0.00007588 Ry

     total magnetization       =     3.30 Bohr mag/cell
     absolute magnetization    =     3.33 Bohr mag/cell
[tb_dev] Currently allocated     3.31E+00 Mbytes, locked:    0 /  10
[tb_pin] Currently allocated     0.00E+00 Mbytes, locked:    0 /   0

     iteration # 52     ecut=    60.00 Ry     beta= 0.10
     Davidson diagonalization with overlap

---- Real-time Memory Report at c_bands before calling an iterative solver
          2291 MiB given to the printing process from OS
          1368 MiB allocation reported by mallinfo(arena+hblkhd)
         57228 MiB available memory on the node where the printing process lives
     GPU memory used/free/total (MiB): 1520 / 14760 / 16280
------------------
     ethr =  2.52E-08,  avg # of iterations =  5.0

     total cpu time spent up to now is      296.2 secs

     total energy              =    -183.12896474 Ry
     estimated scf accuracy    <       0.00004909 Ry

     total magnetization       =     3.38 Bohr mag/cell
     absolute magnetization    =     3.42 Bohr mag/cell
[tb_dev] Currently allocated     3.31E+00 Mbytes, locked:    0 /  10
[tb_pin] Currently allocated     0.00E+00 Mbytes, locked:    0 /   0

     iteration # 53     ecut=    60.00 Ry     beta= 0.10
     Davidson diagonalization with overlap

---- Real-time Memory Report at c_bands before calling an iterative solver
          2298 MiB given to the printing process from OS
          1375 MiB allocation reported by mallinfo(arena+hblkhd)
         57224 MiB available memory on the node where the printing process lives
     GPU memory used/free/total (MiB): 1520 / 14760 / 16280
------------------
     ethr =  2.52E-08,  avg # of iterations =  6.1

     total cpu time spent up to now is      303.3 secs

     total energy              =    -183.12910403 Ry
     estimated scf accuracy    <       0.00005015 Ry

     total magnetization       =     3.47 Bohr mag/cell
     absolute magnetization    =     3.51 Bohr mag/cell
[tb_dev] Currently allocated     3.31E+00 Mbytes, locked:    0 /  10
[tb_pin] Currently allocated     0.00E+00 Mbytes, locked:    0 /   0

     iteration # 54     ecut=    60.00 Ry     beta= 0.10
     Davidson diagonalization with overlap

---- Real-time Memory Report at c_bands before calling an iterative solver
          2303 MiB given to the printing process from OS
          1380 MiB allocation reported by mallinfo(arena+hblkhd)
         57220 MiB available memory on the node where the printing process lives
     GPU memory used/free/total (MiB): 1520 / 14760 / 16280
------------------
     ethr =  2.52E-08,  avg # of iterations =  2.0

     total cpu time spent up to now is      307.3 secs

     total energy              =    -183.12909693 Ry
     estimated scf accuracy    <       0.00004393 Ry

     total magnetization       =     3.44 Bohr mag/cell
     absolute magnetization    =     3.48 Bohr mag/cell
[tb_dev] Currently allocated     3.31E+00 Mbytes, locked:    0 /  10
[tb_pin] Currently allocated     0.00E+00 Mbytes, locked:    0 /   0

     iteration # 55     ecut=    60.00 Ry     beta= 0.10
     Davidson diagonalization with overlap

---- Real-time Memory Report at c_bands before calling an iterative solver
          2309 MiB given to the printing process from OS
          1386 MiB allocation reported by mallinfo(arena+hblkhd)
         57214 MiB available memory on the node where the printing process lives
     GPU memory used/free/total (MiB): 1520 / 14760 / 16280
------------------
     ethr =  2.52E-08,  avg # of iterations =  4.8

     total cpu time spent up to now is      313.3 secs

     total energy              =    -183.12917052 Ry
     estimated scf accuracy    <       0.00004544 Ry

     total magnetization       =     3.38 Bohr mag/cell
     absolute magnetization    =     3.42 Bohr mag/cell
[...]

     total cpu time spent up to now is      364.1 secs

     total energy              =    -183.12921206 Ry
     estimated scf accuracy    <       0.00006882 Ry

     total magnetization       =     3.32 Bohr mag/cell
     absolute magnetization    =     3.35 Bohr mag/cell
[tb_dev] Currently allocated     3.31E+00 Mbytes, locked:    0 /  10
[tb_pin] Currently allocated     0.00E+00 Mbytes, locked:    0 /   0

     iteration # 65     ecut=    60.00 Ry     beta= 0.10
     Davidson diagonalization with overlap

---- Real-time Memory Report at c_bands before calling an iterative solver
          2370 MiB given to the printing process from OS
          1446 MiB allocation reported by mallinfo(arena+hblkhd)
         57153 MiB available memory on the node where the printing process lives
     GPU memory used/free/total (MiB): 1520 / 14760 / 16280
------------------
     ethr =  2.52E-08,  avg # of iterations =  1.0

     total cpu time spent up to now is      367.3 secs

     total energy              =    -183.12921393 Ry
     estimated scf accuracy    <       0.00006555 Ry

     total magnetization       =     3.32 Bohr mag/cell
     absolute magnetization    =     3.35 Bohr mag/cell
[tb_dev] Currently allocated     3.31E+00 Mbytes, locked:    0 /  10
[tb_pin] Currently allocated     0.00E+00 Mbytes, locked:    0 /   0

     iteration # 66     ecut=    60.00 Ry     beta= 0.10
     Davidson diagonalization with overlap

---- Real-time Memory Report at c_bands before calling an iterative solver
          2375 MiB given to the printing process from OS
          1454 MiB allocation reported by mallinfo(arena+hblkhd)
         57146 MiB available memory on the node where the printing process lives
     GPU memory used/free/total (MiB): 1520 / 14760 / 16280
------------------
     ethr =  2.52E-08,  avg # of iterations =  1.0

     total cpu time spent up to now is      370.5 secs

     total energy              =    -183.12876412 Ry
     estimated scf accuracy    <       0.00006860 Ry

     total magnetization       =     3.32 Bohr mag/cell
     absolute magnetization    =     3.35 Bohr mag/cell
[tb_dev] Currently allocated     3.31E+00 Mbytes, locked:    0 /  10
[tb_pin] Currently allocated     0.00E+00 Mbytes, locked:    0 /   0

     iteration # 67     ecut=    60.00 Ry     beta= 0.10
     Davidson diagonalization with overlap

---- Real-time Memory Report at c_bands before calling an iterative solver
          2383 MiB given to the printing process from OS
          1459 MiB allocation reported by mallinfo(arena+hblkhd)
         57141 MiB available memory on the node where the printing process lives
     GPU memory used/free/total (MiB): 1520 / 14760 / 16280
------------------
     ethr =  2.52E-08,  avg # of iterations =  6.7

     total cpu time spent up to now is      378.2 secs

     total energy              =    -183.12904645 Ry
     estimated scf accuracy    <       0.00005302 Ry

     total magnetization       =     3.46 Bohr mag/cell
     absolute magnetization    =     3.50 Bohr mag/cell
[tb_dev] Currently allocated     3.31E+00 Mbytes, locked:    0 /  10
[tb_pin] Currently allocated     0.00E+00 Mbytes, locked:    0 /   0

     iteration # 68     ecut=    60.00 Ry     beta= 0.10
     Davidson diagonalization with overlap

---- Real-time Memory Report at c_bands before calling an iterative solver
          2388 MiB given to the printing process from OS
          1465 MiB allocation reported by mallinfo(arena+hblkhd)
         57131 MiB available memory on the node where the printing process lives
     GPU memory used/free/total (MiB): 1520 / 14760 / 16280
------------------
     ethr =  2.52E-08,  avg # of iterations =  4.7

     total cpu time spent up to now is      384.3 secs

     total energy              =    -183.12917681 Ry
     estimated scf accuracy    <       0.00005540 Ry

     total magnetization       =     3.37 Bohr mag/cell
     absolute magnetization    =     3.41 Bohr mag/cell
[tb_dev] Currently allocated     3.31E+00 Mbytes, locked:    0 /  10
[tb_pin] Currently allocated     0.00E+00 Mbytes, locked:    0 /   0

     iteration # 69     ecut=    60.00 Ry     beta= 0.10
     Davidson diagonalization with overlap

---- Real-time Memory Report at c_bands before calling an iterative solver
          2394 MiB given to the printing process from OS
          1470 MiB allocation reported by mallinfo(arena+hblkhd)
         57129 MiB available memory on the node where the printing process lives
     GPU memory used/free/total (MiB): 1520 / 14760 / 16280
------------------
     ethr =  2.52E-08,  avg # of iterations =  2.3

     total cpu time spent up to now is      388.3 secs

     total energy              =    -183.12917723 Ry
     estimated scf accuracy    <       0.00005511 Ry

     total magnetization       =     3.35 Bohr mag/cell
     absolute magnetization    =     3.39 Bohr mag/cell
[tb_dev] Currently allocated     3.31E+00 Mbytes, locked:    0 /  10
[tb_pin] Currently allocated     0.00E+00 Mbytes, locked:    0 /   0

     iteration # 70     ecut=    60.00 Ry     beta= 0.10
     Davidson diagonalization with overlap

---- Real-time Memory Report at c_bands before calling an iterative solver
          2399 MiB given to the printing process from OS
          1476 MiB allocation reported by mallinfo(arena+hblkhd)
         57124 MiB available memory on the node where the printing process lives
     GPU memory used/free/total (MiB): 1520 / 14760 / 16280
------------------
     ethr =  2.52E-08,  avg # of iterations =  1.0

     total cpu time spent up to now is      391.5 secs

     total energy              =    -183.12914998 Ry
     estimated scf accuracy    <       0.00005416 Ry

     total magnetization       =     3.36 Bohr mag/cell
     absolute magnetization    =     3.39 Bohr mag/cell
[tb_dev] Currently allocated     3.31E+00 Mbytes, locked:    0 /  10
[tb_pin] Currently allocated     0.00E+00 Mbytes, locked:    0 /   0

     iteration # 71     ecut=    60.00 Ry     beta= 0.10
     Davidson diagonalization with overlap

---- Real-time Memory Report at c_bands before calling an iterative solver
          2405 MiB given to the printing process from OS
          1481 MiB allocation reported by mallinfo(arena+hblkhd)
         57119 MiB available memory on the node where the printing process lives
     GPU memory used/free/total (MiB): 1520 / 14760 / 16280
------------------
     ethr =  2.52E-08,  avg # of iterations =  5.5

     total cpu time spent up to now is      398.2 secs

     total energy              =    -183.12769703 Ry
     estimated scf accuracy    <       0.00006156 Ry

     total magnetization       =     3.27 Bohr mag/cell
     absolute magnetization    =     3.30 Bohr mag/cell
[tb_dev] Currently allocated     3.31E+00 Mbytes, locked:    0 /  10
[tb_pin] Currently allocated     0.00E+00 Mbytes, locked:    0 /   0

     iteration # 72     ecut=    60.00 Ry     beta= 0.10
     Davidson diagonalization with overlap

---- Real-time Memory Report at c_bands before calling an iterative solver
          2412 MiB given to the printing process from OS
          1488 MiB allocation reported by mallinfo(arena+hblkhd)
         57108 MiB available memory on the node where the printing process lives
     GPU memory used/free/total (MiB): 1520 / 14760 / 16280
------------------
     ethr =  2.52E-08,  avg # of iterations =  8.7

     total cpu time spent up to now is      407.9 secs

     total energy              =    -183.12879106 Ry
     estimated scf accuracy    <       0.00005811 Ry

     total magnetization       =     3.55 Bohr mag/cell
     absolute magnetization    =     3.59 Bohr mag/cell
[tb_dev] Currently allocated     3.31E+00 Mbytes, locked:    0 /  10
[tb_pin] Currently allocated     0.00E+00 Mbytes, locked:    0 /   0

     iteration # 73     ecut=    60.00 Ry     beta= 0.10
     Davidson diagonalization with overlap

---- Real-time Memory Report at c_bands before calling an iterative solver
          2417 MiB given to the printing process from OS
          1494 MiB allocation reported by mallinfo(arena+hblkhd)
         57106 MiB available memory on the node where the printing process lives
     GPU memory used/free/total (MiB): 1520 / 14760 / 16280
------------------
     ethr =  2.52E-08,  avg # of iterations =  5.4

     total cpu time spent up to now is      414.5 secs

     total energy              =    -183.12687757 Ry
     estimated scf accuracy    <       0.00013943 Ry

     total magnetization       =     3.61 Bohr mag/cell
     absolute magnetization    =     3.66 Bohr mag/cell
[tb_dev] Currently allocated     3.31E+00 Mbytes, locked:    0 /  10
[tb_pin] Currently allocated     0.00E+00 Mbytes, locked:    0 /   0

     iteration # 74     ecut=    60.00 Ry     beta= 0.10
     Davidson diagonalization with overlap

---- Real-time Memory Report at c_bands before calling an iterative solver
          2423 MiB given to the printing process from OS
          1500 MiB allocation reported by mallinfo(arena+hblkhd)
         57101 MiB available memory on the node where the printing process lives
     GPU memory used/free/total (MiB): 1520 / 14760 / 16280
------------------
     ethr =  2.52E-08,  avg # of iterations =  9.8

     total cpu time spent up to now is      425.2 secs

     total energy              =    -183.12732141 Ry
     estimated scf accuracy    <       0.00007288 Ry

     total magnetization       =     3.20 Bohr mag/cell
     absolute magnetization    =     3.24 Bohr mag/cell
[tb_dev] Currently allocated     3.31E+00 Mbytes, locked:    0 /  10
[tb_pin] Currently allocated     0.00E+00 Mbytes, locked:    0 /   0

     iteration # 75     ecut=    60.00 Ry     beta= 0.10
     Davidson diagonalization with overlap

---- Real-time Memory Report at c_bands before calling an iterative solver
          2431 MiB given to the printing process from OS
          1507 MiB allocation reported by mallinfo(arena+hblkhd)
         57073 MiB available memory on the node where the printing process lives
     GPU memory used/free/total (MiB): 1520 / 14760 / 16280
------------------
     ethr =  2.52E-08,  avg # of iterations =  9.8

     total cpu time spent up to now is      435.8 secs

     total energy              =    -183.12582213 Ry
     estimated scf accuracy    <       0.00291297 Ry

     total magnetization       =     2.71 Bohr mag/cell
     absolute magnetization    =     3.28 Bohr mag/cell
[tb_dev] Currently allocated     3.31E+00 Mbytes, locked:    0 /  10
[tb_pin] Currently allocated     0.00E+00 Mbytes, locked:    0 /   0

     iteration # 76     ecut=    60.00 Ry     beta= 0.10
     Davidson diagonalization with overlap

---- Real-time Memory Report at c_bands before calling an iterative solver
          2437 MiB given to the printing process from OS
          1514 MiB allocation reported by mallinfo(arena+hblkhd)
         57073 MiB available memory on the node where the printing process lives
     GPU memory used/free/total (MiB): 1520 / 14760 / 16280
------------------
     ethr =  2.52E-08,  avg # of iterations =  9.8

     total cpu time spent up to now is      446.6 secs

     total energy              =    -183.12932559 Ry
     estimated scf accuracy    <       0.00012074 Ry

     total magnetization       =     3.22 Bohr mag/cell
     absolute magnetization    =     3.25 Bohr mag/cell
[tb_dev] Currently allocated     3.31E+00 Mbytes, locked:    0 /  10
[tb_pin] Currently allocated     0.00E+00 Mbytes, locked:    0 /   0

     iteration # 77     ecut=    60.00 Ry     beta= 0.10
     Davidson diagonalization with overlap

---- Real-time Memory Report at c_bands before calling an iterative solver
          2443 MiB given to the printing process from OS
          1519 MiB allocation reported by mallinfo(arena+hblkhd)
         57069 MiB available memory on the node where the printing process lives
     GPU memory used/free/total (MiB): 1520 / 14760 / 16280
------------------
     ethr =  2.52E-08,  avg # of iterations =  1.1

     total cpu time spent up to now is      450.0 secs

     total energy              =    -183.12911940 Ry
     estimated scf accuracy    <       0.00013340 Ry

     total magnetization       =     3.21 Bohr mag/cell
     absolute magnetization    =     3.24 Bohr mag/cell
[tb_dev] Currently allocated     3.31E+00 Mbytes, locked:    0 /  10
[tb_pin] Currently allocated     0.00E+00 Mbytes, locked:    0 /   0

     iteration # 78     ecut=    60.00 Ry     beta= 0.10
     Davidson diagonalization with overlap

---- Real-time Memory Report at c_bands before calling an iterative solver
          2449 MiB given to the printing process from OS
          1525 MiB allocation reported by mallinfo(arena+hblkhd)
         57064 MiB available memory on the node where the printing process lives
     GPU memory used/free/total (MiB): 1520 / 14760 / 16280
------------------
     ethr =  2.52E-08,  avg # of iterations =  4.9

     total cpu time spent up to now is      456.2 secs

     total energy              =    -183.12915780 Ry
     estimated scf accuracy    <       0.00006908 Ry

     total magnetization       =     3.30 Bohr mag/cell
     absolute magnetization    =     3.33 Bohr mag/cell
[tb_dev] Currently allocated     3.31E+00 Mbytes, locked:    0 /  10
[tb_pin] Currently allocated     0.00E+00 Mbytes, locked:    0 /   0

     iteration # 79     ecut=    60.00 Ry     beta= 0.10
     Davidson diagonalization with overlap

---- Real-time Memory Report at c_bands before calling an iterative solver
          2454 MiB given to the printing process from OS
          1531 MiB allocation reported by mallinfo(arena+hblkhd)
         57056 MiB available memory on the node where the printing process lives
     GPU memory used/free/total (MiB): 1520 / 14760 / 16280
------------------
     ethr =  2.52E-08,  avg # of iterations =  4.1

     total cpu time spent up to now is      461.6 secs

     total energy              =    -183.12910072 Ry
     estimated scf accuracy    <       0.00005379 Ry

     total magnetization       =     3.34 Bohr mag/cell
     absolute magnetization    =     3.38 Bohr mag/cell
[tb_dev] Currently allocated     3.31E+00 Mbytes, locked:    0 /  10
[tb_pin] Currently allocated     0.00E+00 Mbytes, locked:    0 /   0

     iteration # 80     ecut=    60.00 Ry     beta= 0.10
     Davidson diagonalization with overlap

---- Real-time Memory Report at c_bands before calling an iterative solver
          2460 MiB given to the printing process from OS
          1537 MiB allocation reported by mallinfo(arena+hblkhd)
         57052 MiB available memory on the node where the printing process lives
     GPU memory used/free/total (MiB): 1520 / 14760 / 16280
------------------
     ethr =  2.52E-08,  avg # of iterations =  4.7

     total cpu time spent up to now is      467.6 secs

     total energy              =    -183.12903702 Ry
     estimated scf accuracy    <       0.00004428 Ry

     total magnetization       =     3.40 Bohr mag/cell
     absolute magnetization    =     3.43 Bohr mag/cell

     End of self-consistent calculation

     convergence NOT achieved after  80 iterations: stopping

     Writing config to output data dir ./out/aiida.save/
 
     init_run     :     18.47s CPU      2.65s WALL (       1 calls)
     electrons    :    782.16s CPU    464.22s WALL (       1 calls)

     Called by init_run:
     wfcinit      :      0.17s CPU      0.17s WALL (       1 calls)
                                        0.17s GPU  (       1 calls)
     potinit      :      5.97s CPU      0.69s WALL (       1 calls)
     hinit0       :      8.01s CPU      1.14s WALL (       1 calls)

     Called by electrons:
     c_bands      :    474.91s CPU    392.20s WALL (      81 calls)
     sum_band     :     40.34s CPU     46.86s WALL (      81 calls)
     v_of_rho     :     15.04s CPU      1.38s WALL (      81 calls)
     v_h          :      2.85s CPU      0.26s WALL (      81 calls)
     v_xc         :     12.19s CPU      1.12s WALL (      81 calls)
     newd         :     26.38s CPU      2.74s WALL (      81 calls)
                                        2.74s GPU  (      81 calls)
     PAW_pot      :    205.24s CPU     19.05s WALL (      81 calls)
     mix_rho      :     20.07s CPU      2.21s WALL (      81 calls)

     Called by c_bands:
     init_us_2    :     30.39s CPU     28.37s WALL (   37584 calls)
     init_us_2:gp :     29.63s CPU     27.73s WALL (   37584 calls)
     cegterg      :    420.85s CPU    346.11s WALL (   18792 calls)

     Called by sum_band:
     sum_band:wei :      0.39s CPU      0.41s WALL (      81 calls)
                                        0.41s GPU  (      81 calls)
     sum_band:loo :     36.85s CPU     43.20s WALL (      81 calls)
                                       43.20s GPU  (      81 calls)
     sum_band:buf :      7.32s CPU      8.47s WALL (   18792 calls)
                                        8.36s GPU  (   18792 calls)
     sum_band:ini :     11.30s CPU     13.65s WALL (   18792 calls)
                                       13.55s GPU  (   18792 calls)
     sum_band:cal :      0.56s CPU      1.58s WALL (   18792 calls)
                                        1.39s GPU  (   18792 calls)
     sum_band:bec :      3.24s CPU      3.94s WALL (   18792 calls)
                                        3.82s GPU  (   18792 calls)
     addusdens    :      2.06s CPU      2.19s WALL (      81 calls)
                                        2.19s GPU  (      81 calls)
     addusd:skk   :      0.02s CPU      0.02s WALL (     243 calls)
                                        0.02s GPU  (     243 calls)

     Called by *egterg:
     cdiaghg      :    155.41s CPU    130.34s WALL (   96528 calls)
                                      129.70s GPU  (   96528 calls)
     cegterg:over :     12.79s CPU     10.69s WALL (   78200 calls)
     cegterg:upda :     21.78s CPU     17.98s WALL (   78200 calls)
     cegterg:last :      8.21s CPU      7.01s WALL (   62959 calls)
     h_psi        :    172.93s CPU    141.64s WALL (   96992 calls)
                                      141.12s GPU  (   96992 calls)
     s_psi        :     10.20s CPU     12.44s WALL (   96992 calls)
                                       11.63s GPU  (   96992 calls)
     g_psi        :      0.70s CPU      1.80s WALL (   78200 calls)
                                        1.31s GPU  (   78200 calls)

     Called by h_psi:
     h_psi:calbec :      4.12s CPU      8.85s WALL (   96992 calls)
                                        8.27s GPU  (   96992 calls)
     vloc_psi     :    135.81s CPU    111.79s WALL (   96992 calls)
                                      111.22s GPU  (   96992 calls)
     add_vuspsi   :     14.78s CPU     14.91s WALL (   96992 calls)
                                       14.35s GPU  (   96992 calls)

     General routines
     calbec       :      3.54s CPU      3.03s WALL (  115784 calls)
     fft          :      2.38s CPU      0.33s WALL (    2025 calls)
                                        0.26s GPU  (    1863 calls)
     ffts         :      0.05s CPU      0.03s WALL (     324 calls)
                                        0.01s GPU  (     162 calls)
     fftw         :      8.03s CPU     70.60s WALL (  320240 calls)
                                       68.86s GPU  (  320240 calls)
     interpolate  :      2.11s CPU      0.19s WALL (     162 calls)
     davcio       :      0.22s CPU      0.56s WALL (     482 calls)
 
     Parallel routines

     PAW routines
     PAW_pot      :    205.24s CPU     19.05s WALL (      81 calls)
     PAW_symme    :      0.04s CPU      0.01s WALL (     161 calls)
 
     PWSCF        :  13m24.24s CPU   7m48.18s WALL

 
   This run was terminated on:  20:43:46  23Oct2023            

=------------------------------------------------------------------------------=
   JOB DONE.
=------------------------------------------------------------------------------=
