
     Program PWSCF v.7.2 starts on 23Oct2023 at 18:13: 9 

     This program is part of the open-source Quantum ESPRESSO suite
     for quantum simulation of materials; please cite
         "P. Giannozzi et al., J. Phys.:Condens. Matter 21 395502 (2009);
         "P. Giannozzi et al., J. Phys.:Condens. Matter 29 465901 (2017);
         "P. Giannozzi et al., J. Chem. Phys. 152 154105 (2020);
          URL http://www.quantum-espresso.org", 
     in publications or presentations arising from this work. More details at
     http://www.quantum-espresso.org/quote

     Parallel version (MPI & OpenMP), running on      12 processor cores
     Number of MPI processes:                 1
     Threads/MPI process:                    12

     MPI processes distributed on     1 nodes
     60503 MiB available memory on the printing compute node when the environment starts
 
     Reading input from aiida.in

     Current dimensions of program PWSCF are:
     Max number of different atomic species (ntypx) = 10
     Max number of k-points (npk) =  40000
     Max angular momentum in pseudopotentials (lmaxx) =  4
     file Fe.pbesol-spn-kjpaw_psl.0.2.1.UPF: wavefunction(s)  3D renormalized
     Message from routine setup:
     using ibrav=0 with symmetry is DISCOURAGED, use correct ibrav instead
 
     Subspace diagonalization in iterative solution of the eigenvalue problem:
     a serial algorithm will be used

 
     G-vector sticks info
     --------------------
     sticks:   dense  smooth     PW     G-vecs:    dense   smooth      PW
     Sum        4741    1573    451               215583    41391    6423
 
     Using Slab Decomposition
 


     bravais-lattice index     =            0
     lattice parameter (alat)  =       7.9827  a.u.
     unit-cell volume          =     359.6932 (a.u.)^3
     number of atoms/cell      =            4
     number of atomic types    =            3
     number of electrons       =        60.00
     number of Kohn-Sham states=           36
     kinetic-energy cutoff     =      90.0000  Ry
     charge density cutoff     =    1080.0000  Ry
     scf convergence threshold =      8.0E-10
     mixing beta               =       0.1000
     number of iterations used =            8  plain     mixing
     Exchange-correlation= SLA  PW   PSX  PSC
                           (   1   4  10   8   0   0   0)

     GPU acceleration is ACTIVE.


     GPU used by master process:

        Device Number: 0
        Device name: Tesla P100-PCIE-16GB
        Compute capability : 60
        Ratio of single to double precision performance  : 2
        Memory Clock Rate (KHz): 715000
        Memory Bus Width (bits): 4096
        Peak Memory Bandwidth (GB/s): 732.16

     celldm(1)=   7.982687  celldm(2)=   0.000000  celldm(3)=   0.000000
     celldm(4)=   0.000000  celldm(5)=   0.000000  celldm(6)=   0.000000

     crystal axes: (cart. coord. in units of alat)
               a(1) = (   0.000000   0.707107   0.707107 )  
               a(2) = (   0.707107   0.000000   0.707107 )  
               a(3) = (   0.707107   0.707107   0.000000 )  

     reciprocal axes: (cart. coord. in units 2 pi/alat)
               b(1) = ( -0.707107  0.707107  0.707107 )  
               b(2) = (  0.707107 -0.707107  0.707107 )  
               b(3) = (  0.707107  0.707107 -0.707107 )  


     PseudoPot. # 1 for Cr read from file:
     ./pseudo/cr_pbesol_v1.5.uspp.F.UPF
     MD5 check sum: a621641e0be27168676a837af8893d0f
     Pseudo is Ultrasoft + core correction, Zval = 14.0
     Generated by new atomic code, or converted to UPF format
     Using radial grid of  857 points,  6 beta functions with: 
                l(1) =   0
                l(2) =   0
                l(3) =   1
                l(4) =   1
                l(5) =   2
                l(6) =   2
     Q(r) pseudized with  8 coefficients,  rinner =    0.950   0.950   0.950
                                                       0.950   0.950

     PseudoPot. # 2 for Fe read from file:
     ./pseudo/Fe.pbesol-spn-kjpaw_psl.0.2.1.UPF
     MD5 check sum: 4d7ec5aa2156491519a4322664fbbf52
     Pseudo is Projector augmented-wave + core cor, Zval = 16.0
     Generated using "atomic" code by A. Dal Corso  v.6.0 svn rev. 13079
     Shape of augmentation charge: PSQ
     Using radial grid of 1191 points,  6 beta functions with: 
                l(1) =   0
                l(2) =   0
                l(3) =   1
                l(4) =   1
                l(5) =   2
                l(6) =   2
     Q(r) pseudized with 0 coefficients 


     PseudoPot. # 3 for Sn read from file:
     ./pseudo/sn_pbesol_v1.4.uspp.F.UPF
     MD5 check sum: 463fec1d5456f1e96ec1bfcad4b7b038
     Pseudo is Ultrasoft + core correction, Zval = 14.0
     Generated by new atomic code, or converted to UPF format
     Using radial grid of  891 points,  6 beta functions with: 
                l(1) =   0
                l(2) =   0
                l(3) =   1
                l(4) =   1
                l(5) =   2
                l(6) =   2
     Q(r) pseudized with  8 coefficients,  rinner =    1.350   1.350   1.350
                                                       1.350   1.350

     atomic species   valence    mass     pseudopotential
        Cr            14.00    51.99610     Cr( 1.00)
        Fe            16.00    55.84500     Fe( 1.00)
        Sn            14.00   118.71000     Sn( 1.00)

     Starting magnetic structure 
     atomic species   magnetization
        Cr           0.357
        Fe           0.313
        Sn           0.100

     48 Sym. Ops., with inversion, found


                                    s                        frac. trans.

      isym =  1     identity                                     

 cryst.   s( 1) = (     1          0          0      )
                  (     0          1          0      )
                  (     0          0          1      )

 cart.    s( 1) = (  1.0000000 -0.0000000  0.0000000 )
                  ( -0.0000000  1.0000000  0.0000000 )
                  ( -0.0000000  0.0000000  1.0000000 )


      isym =  2     180 deg rotation - cart. axis [0,0,1]        

 cryst.   s( 2) = (     0          1         -1      )
                  (     1          0         -1      )
                  (     0          0         -1      )

 cart.    s( 2) = ( -1.0000000  0.0000000  0.0000000 )
                  (  0.0000000 -1.0000000  0.0000000 )
                  (  0.0000000 -0.0000000  1.0000000 )


      isym =  3     180 deg rotation - cart. axis [0,1,0]        

 cryst.   s( 3) = (     0         -1          1      )
                  (     0         -1          0      )
                  (     1         -1          0      )

 cart.    s( 3) = ( -1.0000000 -0.0000000 -0.0000000 )
                  (  0.0000000  1.0000000 -0.0000000 )
                  (  0.0000000  0.0000000 -1.0000000 )


      isym =  4     180 deg rotation - cart. axis [1,0,0]        

 cryst.   s( 4) = (    -1          0          0      )
                  (    -1          0          1      )
                  (    -1          1          0      )

 cart.    s( 4) = (  1.0000000  0.0000000 -0.0000000 )
                  ( -0.0000000 -1.0000000 -0.0000000 )
                  ( -0.0000000 -0.0000000 -1.0000000 )


      isym =  5     180 deg rotation - cart. axis [1,1,0]        

 cryst.   s( 5) = (    -1          0          1      )
                  (     0         -1          1      )
                  (     0          0          1      )

 cart.    s( 5) = ( -0.0000000  1.0000000 -0.0000000 )
                  (  1.0000000 -0.0000000 -0.0000000 )
                  (  0.0000000 -0.0000000 -1.0000000 )


      isym =  6     180 deg rotation - cart. axis [1,-1,0]       

 cryst.   s( 6) = (     0         -1          0      )
                  (    -1          0          0      )
                  (     0          0         -1      )

 cart.    s( 6) = (  0.0000000 -1.0000000 -0.0000000 )
                  ( -1.0000000  0.0000000 -0.0000000 )
                  ( -0.0000000  0.0000000 -1.0000000 )


      isym =  7      90 deg rotation - cart. axis [0,0,-1]       

 cryst.   s( 7) = (     0          1          0      )
                  (     0          1         -1      )
                  (    -1          1          0      )

 cart.    s( 7) = (  0.0000000  1.0000000  0.0000000 )
                  ( -1.0000000 -0.0000000  0.0000000 )
                  ( -0.0000000 -0.0000000  1.0000000 )


      isym =  8      90 deg rotation - cart. axis [0,0,1]        

 cryst.   s( 8) = (     1          0         -1      )
                  (     1          0          0      )
                  (     1         -1          0      )

 cart.    s( 8) = ( -0.0000000 -1.0000000  0.0000000 )
                  (  1.0000000  0.0000000  0.0000000 )
                  (  0.0000000  0.0000000  1.0000000 )


      isym =  9     180 deg rotation - cart. axis [1,0,1]        

 cryst.   s( 9) = (    -1          1          0      )
                  (     0          1          0      )
                  (     0          1         -1      )

 cart.    s( 9) = (  0.0000000  0.0000000  1.0000000 )
                  (  0.0000000 -1.0000000 -0.0000000 )
                  (  1.0000000 -0.0000000 -0.0000000 )


      isym = 10     180 deg rotation - cart. axis [-1,0,1]       

 cryst.   s(10) = (     0          0         -1      )
                  (     0         -1          0      )
                  (    -1          0          0      )

 cart.    s(10) = ( -0.0000000  0.0000000 -1.0000000 )
                  ( -0.0000000 -1.0000000  0.0000000 )
                  ( -1.0000000 -0.0000000  0.0000000 )


      isym = 11      90 deg rotation - cart. axis [0,1,0]        

 cryst.   s(11) = (     0          0          1      )
                  (    -1          0          1      )
                  (     0         -1          1      )

 cart.    s(11) = ( -0.0000000 -0.0000000  1.0000000 )
                  ( -0.0000000  1.0000000 -0.0000000 )
                  ( -1.0000000  0.0000000 -0.0000000 )


      isym = 12      90 deg rotation - cart. axis [0,-1,0]       

 cryst.   s(12) = (     1         -1          0      )
                  (     1          0         -1      )
                  (     1          0          0      )

 cart.    s(12) = (  0.0000000 -0.0000000 -1.0000000 )
                  (  0.0000000  1.0000000  0.0000000 )
                  (  1.0000000  0.0000000  0.0000000 )


      isym = 13     180 deg rotation - cart. axis [0,1,1]        

 cryst.   s(13) = (     1          0          0      )
                  (     1         -1          0      )
                  (     1          0         -1      )

 cart.    s(13) = ( -1.0000000  0.0000000 -0.0000000 )
                  (  0.0000000  0.0000000  1.0000000 )
                  (  0.0000000  1.0000000  0.0000000 )


      isym = 14     180 deg rotation - cart. axis [0,1,-1]       

 cryst.   s(14) = (    -1          0          0      )
                  (     0          0         -1      )
                  (     0         -1          0      )

 cart.    s(14) = ( -1.0000000 -0.0000000  0.0000000 )
                  (  0.0000000 -0.0000000 -1.0000000 )
                  (  0.0000000 -1.0000000 -0.0000000 )


      isym = 15      90 deg rotation - cart. axis [-1,0,0]       

 cryst.   s(15) = (     0         -1          1      )
                  (     0          0          1      )
                  (    -1          0          1      )

 cart.    s(15) = (  1.0000000 -0.0000000 -0.0000000 )
                  ( -0.0000000 -0.0000000  1.0000000 )
                  ( -0.0000000 -1.0000000  0.0000000 )


      isym = 16      90 deg rotation - cart. axis [1,0,0]        

 cryst.   s(16) = (     0          1         -1      )
                  (    -1          1          0      )
                  (     0          1          0      )

 cart.    s(16) = (  1.0000000  0.0000000  0.0000000 )
                  ( -0.0000000  0.0000000 -1.0000000 )
                  ( -0.0000000  1.0000000 -0.0000000 )


      isym = 17     120 deg rotation - cart. axis [-1,-1,-1]     

 cryst.   s(17) = (     0          0          1      )
                  (     1          0          0      )
                  (     0          1          0      )

 cart.    s(17) = (  0.0000000  1.0000000 -0.0000000 )
                  (  0.0000000 -0.0000000  1.0000000 )
                  (  1.0000000 -0.0000000  0.0000000 )


      isym = 18     120 deg rotation - cart. axis [-1,1,1]       

 cryst.   s(18) = (     1         -1          0      )
                  (     0         -1          1      )
                  (     0         -1          0      )

 cart.    s(18) = ( -0.0000000 -1.0000000 -0.0000000 )
                  ( -0.0000000  0.0000000  1.0000000 )
                  ( -1.0000000  0.0000000  0.0000000 )


      isym = 19     120 deg rotation - cart. axis [1,1,-1]       

 cryst.   s(19) = (    -1          1          0      )
                  (    -1          0          0      )
                  (    -1          0          1      )

 cart.    s(19) = ( -0.0000000  1.0000000  0.0000000 )
                  ( -0.0000000 -0.0000000 -1.0000000 )
                  ( -1.0000000 -0.0000000 -0.0000000 )


      isym = 20     120 deg rotation - cart. axis [1,-1,1]       

 cryst.   s(20) = (     0          0         -1      )
                  (     0          1         -1      )
                  (     1          0         -1      )

 cart.    s(20) = (  0.0000000 -1.0000000  0.0000000 )
                  (  0.0000000  0.0000000 -1.0000000 )
                  (  1.0000000  0.0000000 -0.0000000 )


      isym = 21     120 deg rotation - cart. axis [1,1,1]        

 cryst.   s(21) = (     0          1          0      )
                  (     0          0          1      )
                  (     1          0          0      )

 cart.    s(21) = ( -0.0000000  0.0000000  1.0000000 )
                  (  1.0000000  0.0000000 -0.0000000 )
                  (  0.0000000  1.0000000 -0.0000000 )


      isym = 22     120 deg rotation - cart. axis [-1,1,-1]      

 cryst.   s(22) = (    -1          0          1      )
                  (    -1          1          0      )
                  (    -1          0          0      )

 cart.    s(22) = (  0.0000000 -0.0000000  1.0000000 )
                  ( -1.0000000 -0.0000000 -0.0000000 )
                  ( -0.0000000 -1.0000000 -0.0000000 )


      isym = 23     120 deg rotation - cart. axis [1,-1,-1]      

 cryst.   s(23) = (     1          0         -1      )
                  (     0          0         -1      )
                  (     0          1         -1      )

 cart.    s(23) = (  0.0000000  0.0000000 -1.0000000 )
                  ( -1.0000000  0.0000000  0.0000000 )
                  ( -0.0000000  1.0000000  0.0000000 )


      isym = 24     120 deg rotation - cart. axis [-1,-1,1]      

 cryst.   s(24) = (     0         -1          0      )
                  (     1         -1          0      )
                  (     0         -1          1      )

 cart.    s(24) = ( -0.0000000 -0.0000000 -1.0000000 )
                  (  1.0000000 -0.0000000  0.0000000 )
                  (  0.0000000 -1.0000000  0.0000000 )


      isym = 25     inversion                                    

 cryst.   s(25) = (    -1          0          0      )
                  (     0         -1          0      )
                  (     0          0         -1      )

 cart.    s(25) = ( -1.0000000  0.0000000 -0.0000000 )
                  (  0.0000000 -1.0000000 -0.0000000 )
                  (  0.0000000 -0.0000000 -1.0000000 )


      isym = 26     inv. 180 deg rotation - cart. axis [0,0,1]   

 cryst.   s(26) = (     0         -1          1      )
                  (    -1          0          1      )
                  (     0          0          1      )

 cart.    s(26) = (  1.0000000 -0.0000000 -0.0000000 )
                  ( -0.0000000  1.0000000 -0.0000000 )
                  ( -0.0000000  0.0000000 -1.0000000 )


      isym = 27     inv. 180 deg rotation - cart. axis [0,1,0]   

 cryst.   s(27) = (     0          1         -1      )
                  (     0          1          0      )
                  (    -1          1          0      )

 cart.    s(27) = (  1.0000000  0.0000000  0.0000000 )
                  ( -0.0000000 -1.0000000  0.0000000 )
                  ( -0.0000000 -0.0000000  1.0000000 )


      isym = 28     inv. 180 deg rotation - cart. axis [1,0,0]   

 cryst.   s(28) = (     1          0          0      )
                  (     1          0         -1      )
                  (     1         -1          0      )

 cart.    s(28) = ( -1.0000000 -0.0000000  0.0000000 )
                  (  0.0000000  1.0000000  0.0000000 )
                  (  0.0000000  0.0000000  1.0000000 )


      isym = 29     inv. 180 deg rotation - cart. axis [1,1,0]   

 cryst.   s(29) = (     1          0         -1      )
                  (     0          1         -1      )
                  (     0          0         -1      )

 cart.    s(29) = (  0.0000000 -1.0000000  0.0000000 )
                  ( -1.0000000  0.0000000  0.0000000 )
                  ( -0.0000000  0.0000000  1.0000000 )


      isym = 30     inv. 180 deg rotation - cart. axis [1,-1,0]  

 cryst.   s(30) = (     0          1          0      )
                  (     1          0          0      )
                  (     0          0          1      )

 cart.    s(30) = ( -0.0000000  1.0000000  0.0000000 )
                  (  1.0000000 -0.0000000  0.0000000 )
                  (  0.0000000 -0.0000000  1.0000000 )


      isym = 31     inv.  90 deg rotation - cart. axis [0,0,-1]  

 cryst.   s(31) = (     0         -1          0      )
                  (     0         -1          1      )
                  (     1         -1          0      )

 cart.    s(31) = ( -0.0000000 -1.0000000 -0.0000000 )
                  (  1.0000000  0.0000000 -0.0000000 )
                  (  0.0000000  0.0000000 -1.0000000 )


      isym = 32     inv.  90 deg rotation - cart. axis [0,0,1]   

 cryst.   s(32) = (    -1          0          1      )
                  (    -1          0          0      )
                  (    -1          1          0      )

 cart.    s(32) = (  0.0000000  1.0000000 -0.0000000 )
                  ( -1.0000000 -0.0000000 -0.0000000 )
                  ( -0.0000000 -0.0000000 -1.0000000 )


      isym = 33     inv. 180 deg rotation - cart. axis [1,0,1]   

 cryst.   s(33) = (     1         -1          0      )
                  (     0         -1          0      )
                  (     0         -1          1      )

 cart.    s(33) = ( -0.0000000 -0.0000000 -1.0000000 )
                  ( -0.0000000  1.0000000  0.0000000 )
                  ( -1.0000000  0.0000000  0.0000000 )


      isym = 34     inv. 180 deg rotation - cart. axis [-1,0,1]  

 cryst.   s(34) = (     0          0          1      )
                  (     0          1          0      )
                  (     1          0          0      )

 cart.    s(34) = (  0.0000000 -0.0000000  1.0000000 )
                  (  0.0000000  1.0000000 -0.0000000 )
                  (  1.0000000  0.0000000 -0.0000000 )


      isym = 35     inv.  90 deg rotation - cart. axis [0,1,0]   

 cryst.   s(35) = (     0          0         -1      )
                  (     1          0         -1      )
                  (     0          1         -1      )

 cart.    s(35) = (  0.0000000  0.0000000 -1.0000000 )
                  (  0.0000000 -1.0000000  0.0000000 )
                  (  1.0000000 -0.0000000  0.0000000 )


      isym = 36     inv.  90 deg rotation - cart. axis [0,-1,0]  

 cryst.   s(36) = (    -1          1          0      )
                  (    -1          0          1      )
                  (    -1          0          0      )

 cart.    s(36) = ( -0.0000000  0.0000000  1.0000000 )
                  ( -0.0000000 -1.0000000 -0.0000000 )
                  ( -1.0000000 -0.0000000 -0.0000000 )


      isym = 37     inv. 180 deg rotation - cart. axis [0,1,1]   

 cryst.   s(37) = (    -1          0          0      )
                  (    -1          1          0      )
                  (    -1          0          1      )

 cart.    s(37) = (  1.0000000 -0.0000000  0.0000000 )
                  ( -0.0000000 -0.0000000 -1.0000000 )
                  ( -0.0000000 -1.0000000 -0.0000000 )


      isym = 38     inv. 180 deg rotation - cart. axis [0,1,-1]  

 cryst.   s(38) = (     1          0          0      )
                  (     0          0          1      )
                  (     0          1          0      )

 cart.    s(38) = (  1.0000000  0.0000000 -0.0000000 )
                  ( -0.0000000  0.0000000  1.0000000 )
                  ( -0.0000000  1.0000000  0.0000000 )


      isym = 39     inv.  90 deg rotation - cart. axis [-1,0,0]  

 cryst.   s(39) = (     0          1         -1      )
                  (     0          0         -1      )
                  (     1          0         -1      )

 cart.    s(39) = ( -1.0000000  0.0000000  0.0000000 )
                  (  0.0000000  0.0000000 -1.0000000 )
                  (  0.0000000  1.0000000 -0.0000000 )


      isym = 40     inv.  90 deg rotation - cart. axis [1,0,0]   

 cryst.   s(40) = (     0         -1          1      )
                  (     1         -1          0      )
                  (     0         -1          0      )

 cart.    s(40) = ( -1.0000000 -0.0000000 -0.0000000 )
                  (  0.0000000 -0.0000000  1.0000000 )
                  (  0.0000000 -1.0000000  0.0000000 )


      isym = 41     inv. 120 deg rotation - cart. axis [-1,-1,-1]

 cryst.   s(41) = (     0          0         -1      )
                  (    -1          0          0      )
                  (     0         -1          0      )

 cart.    s(41) = ( -0.0000000 -1.0000000  0.0000000 )
                  ( -0.0000000  0.0000000 -1.0000000 )
                  ( -1.0000000  0.0000000 -0.0000000 )


      isym = 42     inv. 120 deg rotation - cart. axis [-1,1,1]  

 cryst.   s(42) = (    -1          1          0      )
                  (     0          1         -1      )
                  (     0          1          0      )

 cart.    s(42) = (  0.0000000  1.0000000  0.0000000 )
                  (  0.0000000 -0.0000000 -1.0000000 )
                  (  1.0000000 -0.0000000 -0.0000000 )


      isym = 43     inv. 120 deg rotation - cart. axis [1,1,-1]  

 cryst.   s(43) = (     1         -1          0      )
                  (     1          0          0      )
                  (     1          0         -1      )

 cart.    s(43) = (  0.0000000 -1.0000000 -0.0000000 )
                  (  0.0000000  0.0000000  1.0000000 )
                  (  1.0000000  0.0000000  0.0000000 )


      isym = 44     inv. 120 deg rotation - cart. axis [1,-1,1]  

 cryst.   s(44) = (     0          0          1      )
                  (     0         -1          1      )
                  (    -1          0          1      )

 cart.    s(44) = ( -0.0000000  1.0000000 -0.0000000 )
                  ( -0.0000000 -0.0000000  1.0000000 )
                  ( -1.0000000 -0.0000000  0.0000000 )


      isym = 45     inv. 120 deg rotation - cart. axis [1,1,1]   

 cryst.   s(45) = (     0         -1          0      )
                  (     0          0         -1      )
                  (    -1          0          0      )

 cart.    s(45) = (  0.0000000 -0.0000000 -1.0000000 )
                  ( -1.0000000 -0.0000000  0.0000000 )
                  ( -0.0000000 -1.0000000  0.0000000 )


      isym = 46     inv. 120 deg rotation - cart. axis [-1,1,-1] 

 cryst.   s(46) = (     1          0         -1      )
                  (     1         -1          0      )
                  (     1          0          0      )

 cart.    s(46) = ( -0.0000000  0.0000000 -1.0000000 )
                  (  1.0000000  0.0000000  0.0000000 )
                  (  0.0000000  1.0000000  0.0000000 )


      isym = 47     inv. 120 deg rotation - cart. axis [1,-1,-1] 

 cryst.   s(47) = (    -1          0          1      )
                  (     0          0          1      )
                  (     0         -1          1      )

 cart.    s(47) = ( -0.0000000 -0.0000000  1.0000000 )
                  (  1.0000000 -0.0000000 -0.0000000 )
                  (  0.0000000 -1.0000000 -0.0000000 )


      isym = 48     inv. 120 deg rotation - cart. axis [-1,-1,1] 

 cryst.   s(48) = (     0          1          0      )
                  (    -1          1          0      )
                  (     0          1         -1      )

 cart.    s(48) = (  0.0000000  0.0000000  1.0000000 )
                  ( -1.0000000  0.0000000 -0.0000000 )
                  ( -0.0000000  1.0000000 -0.0000000 )


   Cartesian axes

     site n.     atom                  positions (alat units)
         1           Cr  tau(   1) = (   0.7071068   0.0000000   0.0000000  )
         2           Fe  tau(   2) = (   0.3535534   0.3535534   1.0606602  )
         3           Fe  tau(   3) = (   0.3535534   1.0606602   1.0606602  )
         4           Sn  tau(   4) = (   0.0000000   0.0000000   0.0000000  )

   Crystallographic axes

     site n.     atom                  positions (cryst. coord.)
         1           Cr  tau(   1) = ( -0.5000000  0.5000000  0.5000000  )
         2           Fe  tau(   2) = (  0.7500000  0.7500000 -0.2500000  )
         3           Fe  tau(   3) = (  1.2500000  0.2500000  0.2500000  )
         4           Sn  tau(   4) = (  0.0000000  0.0000000  0.0000000  )

     number of k points=    84  Marzari-Vanderbilt smearing, width (Ry)=  0.0100
                       cart. coord. in units 2pi/alat
        k(    1) = (   0.0000000   0.0000000   0.0000000), wk =   0.0004552
        k(    2) = (   0.0543928   0.0543928  -0.0543928), wk =   0.0036413
        k(    3) = (   0.1087857   0.1087857  -0.1087857), wk =   0.0036413
        k(    4) = (   0.1631785   0.1631785  -0.1631785), wk =   0.0036413
        k(    5) = (   0.2175713   0.2175713  -0.2175713), wk =   0.0036413
        k(    6) = (   0.2719641   0.2719641  -0.2719641), wk =   0.0036413
        k(    7) = (   0.3263570   0.3263570  -0.3263570), wk =   0.0036413
        k(    8) = (   0.1087857  -0.0000000   0.0000000), wk =   0.0027310
        k(    9) = (   0.1631785   0.0543928  -0.0543928), wk =   0.0109240
        k(   10) = (   0.2175713   0.1087857  -0.1087857), wk =   0.0109240
        k(   11) = (   0.2719641   0.1631785  -0.1631785), wk =   0.0109240
        k(   12) = (   0.3263570   0.2175713  -0.2175713), wk =   0.0109240
        k(   13) = (   0.3807498   0.2719641  -0.2719641), wk =   0.0109240
        k(   14) = (  -0.2719641  -0.3807498   0.3807498), wk =   0.0109240
        k(   15) = (  -0.2175713  -0.3263570   0.3263570), wk =   0.0109240
        k(   16) = (  -0.1631785  -0.2719641   0.2719641), wk =   0.0109240
        k(   17) = (  -0.1087857  -0.2175713   0.2175713), wk =   0.0109240
        k(   18) = (  -0.0543928  -0.1631785   0.1631785), wk =   0.0109240
        k(   19) = (   0.0000000  -0.1087857   0.1087857), wk =   0.0054620
        k(   20) = (   0.2175713  -0.0000000   0.0000000), wk =   0.0027310
        k(   21) = (   0.2719641   0.0543928  -0.0543928), wk =   0.0109240
        k(   22) = (   0.3263570   0.1087857  -0.1087857), wk =   0.0109240
        k(   23) = (   0.3807498   0.1631785  -0.1631785), wk =   0.0109240
        k(   24) = (   0.4351426   0.2175713  -0.2175713), wk =   0.0109240
        k(   25) = (  -0.2175713  -0.4351426   0.4351426), wk =   0.0109240
        k(   26) = (  -0.1631785  -0.3807498   0.3807498), wk =   0.0109240
        k(   27) = (  -0.1087857  -0.3263570   0.3263570), wk =   0.0109240
        k(   28) = (  -0.0543928  -0.2719641   0.2719641), wk =   0.0109240
        k(   29) = (   0.0000000  -0.2175713   0.2175713), wk =   0.0054620
        k(   30) = (   0.3263570  -0.0000000   0.0000000), wk =   0.0027310
        k(   31) = (   0.3807498   0.0543928  -0.0543928), wk =   0.0109240
        k(   32) = (   0.4351426   0.1087857  -0.1087857), wk =   0.0109240
        k(   33) = (   0.4895355   0.1631785  -0.1631785), wk =   0.0109240
        k(   34) = (  -0.1631785  -0.4895355   0.4895355), wk =   0.0109240
        k(   35) = (  -0.1087857  -0.4351426   0.4351426), wk =   0.0109240
        k(   36) = (  -0.0543928  -0.3807498   0.3807498), wk =   0.0109240
        k(   37) = (   0.0000000  -0.3263570   0.3263570), wk =   0.0054620
        k(   38) = (   0.4351426  -0.0000000   0.0000000), wk =   0.0027310
        k(   39) = (   0.4895355   0.0543928  -0.0543928), wk =   0.0109240
        k(   40) = (   0.5439283   0.1087857  -0.1087857), wk =   0.0109240
        k(   41) = (  -0.1087857  -0.5439283   0.5439283), wk =   0.0109240
        k(   42) = (  -0.0543928  -0.4895355   0.4895355), wk =   0.0109240
        k(   43) = (   0.0000000  -0.4351426   0.4351426), wk =   0.0054620
        k(   44) = (   0.5439283  -0.0000000   0.0000000), wk =   0.0027310
        k(   45) = (   0.5983211   0.0543928  -0.0543928), wk =   0.0109240
        k(   46) = (  -0.0543928  -0.5983211   0.5983211), wk =   0.0109240
        k(   47) = (   0.0000000  -0.5439283   0.5439283), wk =   0.0054620
        k(   48) = (   0.6527140  -0.0000000   0.0000000), wk =   0.0027310
        k(   49) = (   0.0000000  -0.6527140   0.6527140), wk =   0.0054620
        k(   50) = (   0.2175713   0.1087857   0.0000000), wk =   0.0109240
        k(   51) = (   0.2719641   0.1631785  -0.0543928), wk =   0.0218480
        k(   52) = (   0.3263570   0.2175713  -0.1087857), wk =   0.0218480
        k(   53) = (   0.3807498   0.2719641  -0.1631785), wk =   0.0218480
        k(   54) = (  -0.2719641  -0.3807498   0.4895355), wk =   0.0218480
        k(   55) = (   0.3263570   0.1087857   0.0000000), wk =   0.0109240
        k(   56) = (   0.3807498   0.1631785  -0.0543928), wk =   0.0218480
        k(   57) = (   0.4351426   0.2175713  -0.1087857), wk =   0.0218480
        k(   58) = (  -0.2175713  -0.4351426   0.5439283), wk =   0.0218480
        k(   59) = (  -0.1631785  -0.3807498   0.4895355), wk =   0.0218480
        k(   60) = (  -0.1087857  -0.3263570   0.4351426), wk =   0.0218480
        k(   61) = (  -0.0543928  -0.2719641   0.3807498), wk =   0.0218480
        k(   62) = (   0.0000000  -0.2175713   0.3263570), wk =   0.0109240
        k(   63) = (   0.4351426   0.1087857   0.0000000), wk =   0.0109240
        k(   64) = (   0.4895355   0.1631785  -0.0543928), wk =   0.0218480
        k(   65) = (  -0.1631785  -0.4895355   0.5983211), wk =   0.0218480
        k(   66) = (  -0.1087857  -0.4351426   0.5439283), wk =   0.0218480
        k(   67) = (  -0.0543928  -0.3807498   0.4895355), wk =   0.0218480
        k(   68) = (   0.0000000  -0.3263570   0.4351426), wk =   0.0109240
        k(   69) = (   0.5439283   0.1087857   0.0000000), wk =   0.0109240
        k(   70) = (  -0.1087857  -0.5439283   0.6527140), wk =   0.0218480
        k(   71) = (  -0.0543928  -0.4895355   0.5983211), wk =   0.0218480
        k(   72) = (   0.0000000  -0.4351426   0.5439283), wk =   0.0109240
        k(   73) = (  -0.0543928  -0.5983211   0.7071068), wk =   0.0109240
        k(   74) = (   0.0000000  -0.5439283   0.6527140), wk =   0.0109240
        k(   75) = (   0.4351426   0.2175713   0.0000000), wk =   0.0109240
        k(   76) = (  -0.2175713  -0.4351426   0.6527140), wk =   0.0218480
        k(   77) = (  -0.1631785  -0.3807498   0.5983211), wk =   0.0218480
        k(   78) = (  -0.1631785  -0.4895355   0.7071068), wk =   0.0109240
        k(   79) = (  -0.1087857  -0.4351426   0.6527140), wk =   0.0218480
        k(   80) = (  -0.0543928  -0.3807498   0.5983211), wk =   0.0218480
        k(   81) = (   0.0000000  -0.3263570   0.5439283), wk =   0.0109240
        k(   82) = (  -0.0543928  -0.4895355   0.7071068), wk =   0.0109240
        k(   83) = (   0.0000000  -0.4351426   0.6527140), wk =   0.0109240
        k(   84) = (  -0.0543928  -0.3807498   0.7071068), wk =   0.0109240

                       cryst. coord.
        k(    1) = (   0.0000000   0.0000000   0.0000000), wk =   0.0004552
        k(    2) = (   0.0000000   0.0000000   0.0769231), wk =   0.0036413
        k(    3) = (   0.0000000   0.0000000   0.1538462), wk =   0.0036413
        k(    4) = (   0.0000000   0.0000000   0.2307692), wk =   0.0036413
        k(    5) = (   0.0000000   0.0000000   0.3076923), wk =   0.0036413
        k(    6) = (   0.0000000   0.0000000   0.3846154), wk =   0.0036413
        k(    7) = (   0.0000000   0.0000000   0.4615385), wk =   0.0036413
        k(    8) = (  -0.0000000   0.0769231   0.0769231), wk =   0.0027310
        k(    9) = (  -0.0000000   0.0769231   0.1538462), wk =   0.0109240
        k(   10) = (   0.0000000   0.0769231   0.2307692), wk =   0.0109240
        k(   11) = (  -0.0000000   0.0769231   0.3076923), wk =   0.0109240
        k(   12) = (   0.0000000   0.0769231   0.3846154), wk =   0.0109240
        k(   13) = (   0.0000000   0.0769231   0.4615385), wk =   0.0109240
        k(   14) = (   0.0000000   0.0769231  -0.4615385), wk =   0.0109240
        k(   15) = (   0.0000000   0.0769231  -0.3846154), wk =   0.0109240
        k(   16) = (  -0.0000000   0.0769231  -0.3076923), wk =   0.0109240
        k(   17) = (  -0.0000000   0.0769231  -0.2307692), wk =   0.0109240
        k(   18) = (  -0.0000000   0.0769231  -0.1538462), wk =   0.0109240
        k(   19) = (  -0.0000000   0.0769231  -0.0769231), wk =   0.0054620
        k(   20) = (  -0.0000000   0.1538462   0.1538462), wk =   0.0027310
        k(   21) = (  -0.0000000   0.1538462   0.2307692), wk =   0.0109240
        k(   22) = (  -0.0000000   0.1538462   0.3076923), wk =   0.0109240
        k(   23) = (  -0.0000000   0.1538462   0.3846154), wk =   0.0109240
        k(   24) = (   0.0000000   0.1538462   0.4615385), wk =   0.0109240
        k(   25) = (  -0.0000000   0.1538462  -0.4615385), wk =   0.0109240
        k(   26) = (   0.0000000   0.1538462  -0.3846154), wk =   0.0109240
        k(   27) = (  -0.0000000   0.1538462  -0.3076923), wk =   0.0109240
        k(   28) = (  -0.0000000   0.1538462  -0.2307692), wk =   0.0109240
        k(   29) = (  -0.0000000   0.1538462  -0.1538462), wk =   0.0054620
        k(   30) = (   0.0000000   0.2307692   0.2307692), wk =   0.0027310
        k(   31) = (   0.0000000   0.2307692   0.3076923), wk =   0.0109240
        k(   32) = (  -0.0000000   0.2307692   0.3846154), wk =   0.0109240
        k(   33) = (  -0.0000000   0.2307692   0.4615385), wk =   0.0109240
        k(   34) = (  -0.0000000   0.2307692  -0.4615385), wk =   0.0109240
        k(   35) = (   0.0000000   0.2307692  -0.3846154), wk =   0.0109240
        k(   36) = (   0.0000000   0.2307692  -0.3076923), wk =   0.0109240
        k(   37) = (   0.0000000   0.2307692  -0.2307692), wk =   0.0054620
        k(   38) = (  -0.0000000   0.3076923   0.3076923), wk =   0.0027310
        k(   39) = (  -0.0000000   0.3076923   0.3846154), wk =   0.0109240
        k(   40) = (  -0.0000000   0.3076923   0.4615385), wk =   0.0109240
        k(   41) = (  -0.0000000   0.3076923  -0.4615385), wk =   0.0109240
        k(   42) = (   0.0000000   0.3076923  -0.3846154), wk =   0.0109240
        k(   43) = (  -0.0000000   0.3076923  -0.3076923), wk =   0.0054620
        k(   44) = (  -0.0000000   0.3846154   0.3846154), wk =   0.0027310
        k(   45) = (  -0.0000000   0.3846154   0.4615385), wk =   0.0109240
        k(   46) = (  -0.0000000   0.3846154  -0.4615385), wk =   0.0109240
        k(   47) = (  -0.0000000   0.3846154  -0.3846154), wk =   0.0054620
        k(   48) = (   0.0000000   0.4615385   0.4615385), wk =   0.0027310
        k(   49) = (  -0.0000000   0.4615385  -0.4615385), wk =   0.0054620
        k(   50) = (   0.0769231   0.1538462   0.2307692), wk =   0.0109240
        k(   51) = (   0.0769231   0.1538462   0.3076923), wk =   0.0218480
        k(   52) = (   0.0769231   0.1538462   0.3846154), wk =   0.0218480
        k(   53) = (   0.0769231   0.1538462   0.4615385), wk =   0.0218480
        k(   54) = (   0.0769231   0.1538462  -0.4615385), wk =   0.0218480
        k(   55) = (   0.0769231   0.2307692   0.3076923), wk =   0.0109240
        k(   56) = (   0.0769231   0.2307692   0.3846154), wk =   0.0218480
        k(   57) = (   0.0769231   0.2307692   0.4615385), wk =   0.0218480
        k(   58) = (   0.0769231   0.2307692  -0.4615385), wk =   0.0218480
        k(   59) = (   0.0769231   0.2307692  -0.3846154), wk =   0.0218480
        k(   60) = (   0.0769231   0.2307692  -0.3076923), wk =   0.0218480
        k(   61) = (   0.0769231   0.2307692  -0.2307692), wk =   0.0218480
        k(   62) = (   0.0769231   0.2307692  -0.1538462), wk =   0.0109240
        k(   63) = (   0.0769231   0.3076923   0.3846154), wk =   0.0109240
        k(   64) = (   0.0769231   0.3076923   0.4615385), wk =   0.0218480
        k(   65) = (   0.0769231   0.3076923  -0.4615385), wk =   0.0218480
        k(   66) = (   0.0769231   0.3076923  -0.3846154), wk =   0.0218480
        k(   67) = (   0.0769231   0.3076923  -0.3076923), wk =   0.0218480
        k(   68) = (   0.0769231   0.3076923  -0.2307692), wk =   0.0109240
        k(   69) = (   0.0769231   0.3846154   0.4615385), wk =   0.0109240
        k(   70) = (   0.0769231   0.3846154  -0.4615385), wk =   0.0218480
        k(   71) = (   0.0769231   0.3846154  -0.3846154), wk =   0.0218480
        k(   72) = (   0.0769231   0.3846154  -0.3076923), wk =   0.0109240
        k(   73) = (   0.0769231   0.4615385  -0.4615385), wk =   0.0109240
        k(   74) = (   0.0769231   0.4615385  -0.3846154), wk =   0.0109240
        k(   75) = (   0.1538462   0.3076923   0.4615385), wk =   0.0109240
        k(   76) = (   0.1538462   0.3076923  -0.4615385), wk =   0.0218480
        k(   77) = (   0.1538462   0.3076923  -0.3846154), wk =   0.0218480
        k(   78) = (   0.1538462   0.3846154  -0.4615385), wk =   0.0109240
        k(   79) = (   0.1538462   0.3846154  -0.3846154), wk =   0.0218480
        k(   80) = (   0.1538462   0.3846154  -0.3076923), wk =   0.0218480
        k(   81) = (   0.1538462   0.3846154  -0.2307692), wk =   0.0109240
        k(   82) = (   0.1538462   0.4615385  -0.3846154), wk =   0.0109240
        k(   83) = (   0.1538462   0.4615385  -0.3076923), wk =   0.0109240
        k(   84) = (   0.2307692   0.4615385  -0.3076923), wk =   0.0109240

     Dense  grid:   215583 G-vectors     FFT dimensions: (  90,  90,  90)

     Smooth grid:    41391 G-vectors     FFT dimensions: (  50,  50,  50)

     Dynamical RAM for                 wfc:       2.85 MB

     Dynamical RAM for     wfc (w. buffer):     481.44 MB

     Dynamical RAM for           str. fact:       9.87 MB

     Dynamical RAM for           local pot:       0.00 MB

     Dynamical RAM for          nlocal pot:       5.70 MB

     Dynamical RAM for                qrad:       7.91 MB

     Dynamical RAM for          rho,v,vnew:      53.11 MB

     Dynamical RAM for               rhoin:      17.70 MB

     Dynamical RAM for            rho*nmix:     105.27 MB

     Dynamical RAM for           G-vectors:      12.65 MB

     Dynamical RAM for          h,s,v(r/c):       0.24 MB

     Dynamical RAM for          <psi|beta>:       0.04 MB

     Dynamical RAM for                 psi:       5.70 MB

     Dynamical RAM for                hpsi:       5.70 MB

     Dynamical RAM for                spsi:       5.70 MB

     Dynamical RAM for      wfcinit/wfcrot:       5.73 MB

     Dynamical RAM for           addusdens:     621.72 MB

     Dynamical RAM for          addusforce:     628.32 MB

     Dynamical RAM for         addusstress:     666.13 MB

     Estimated static dynamical RAM per process >     634.90 MB

     Estimated max dynamical RAM per process >       1.37 GB

     Atomic positions and unit cell read from directory:
     ./out/aiida.save/
 

     Check: negative core charge=   -0.000005
     Generating pointlists ...
     new r_m :   0.2526 (alat units)  2.0165 (a.u.) for type    1
     new r_m :   0.2526 (alat units)  2.0165 (a.u.) for type    2
     new r_m :   0.2526 (alat units)  2.0165 (a.u.) for type    3

     The initial density is read from file :
     ./out/aiida.save/charge-density


     negative rho (up, down):  3.152E-05 1.020E-03
     Starting wfcs from file
     Checking if some PAW data can be deallocated... 

     total cpu time spent up to now is        5.4 secs

     per-process dynamical memory:   534.5 Mb

     Self-consistent Calculation
[tb_dev] Currently allocated     3.05E-05 Mbytes, locked:    0 /   2
[tb_pin] Currently allocated     0.00E+00 Mbytes, locked:    0 /   0

     iteration #  1     ecut=    90.00 Ry     beta= 0.10
     Davidson diagonalization with overlap

---- Real-time Memory Report at c_bands before calling an iterative solver
           801 MiB given to the printing process from OS
           537 MiB allocation reported by mallinfo(arena+hblkhd)
         59000 MiB available memory on the node where the printing process lives
     GPU memory used/free/total (MiB): 854 / 15426 / 16280
------------------
     ethr =  1.00E-05,  avg # of iterations =  2.0

     Threshold (ethr) on eigenvalues was too large:
     Diagonalizing with lowered threshold

     Davidson diagonalization with overlap

---- Real-time Memory Report at c_bands before calling an iterative solver
          1630 MiB given to the printing process from OS
          1328 MiB allocation reported by mallinfo(arena+hblkhd)
         57267 MiB available memory on the node where the printing process lives
     GPU memory used/free/total (MiB): 1884 / 14396 / 16280
------------------
     ethr =  1.18E-07,  avg # of iterations =  4.2

     negative rho (up, down):  3.146E-05 1.020E-03

     total cpu time spent up to now is       18.1 secs

     total energy              =    -988.07632220 Ry
     estimated scf accuracy    <       0.00005523 Ry

     total magnetization       =     3.76 Bohr mag/cell
     absolute magnetization    =     4.10 Bohr mag/cell
[tb_dev] Currently allocated     7.83E+00 Mbytes, locked:    0 /  16
[tb_pin] Currently allocated     0.00E+00 Mbytes, locked:    0 /   0

     iteration #  2     ecut=    90.00 Ry     beta= 0.10
     Davidson diagonalization with overlap

---- Real-time Memory Report at c_bands before calling an iterative solver
          1781 MiB given to the printing process from OS
          1336 MiB allocation reported by mallinfo(arena+hblkhd)
         57246 MiB available memory on the node where the printing process lives
     GPU memory used/free/total (MiB): 1906 / 14374 / 16280
------------------
     ethr =  9.21E-08,  avg # of iterations =  1.7

     negative rho (up, down):  3.149E-05 1.021E-03

     total cpu time spent up to now is       23.4 secs

     total energy              =    -988.07632464 Ry
     estimated scf accuracy    <       0.00024166 Ry

     total magnetization       =     3.73 Bohr mag/cell
     absolute magnetization    =     4.08 Bohr mag/cell
[tb_dev] Currently allocated     7.83E+00 Mbytes, locked:    0 /  16
[tb_pin] Currently allocated     0.00E+00 Mbytes, locked:    0 /   0

     iteration #  3     ecut=    90.00 Ry     beta= 0.10
     Davidson diagonalization with overlap

---- Real-time Memory Report at c_bands before calling an iterative solver
          1916 MiB given to the printing process from OS
          1343 MiB allocation reported by mallinfo(arena+hblkhd)
         57241 MiB available memory on the node where the printing process lives
     GPU memory used/free/total (MiB): 1906 / 14374 / 16280
------------------
     ethr =  9.21E-08,  avg # of iterations =  1.0

     negative rho (up, down):  3.132E-05 1.024E-03

     total cpu time spent up to now is       28.3 secs

     total energy              =    -988.07633557 Ry
     estimated scf accuracy    <       0.00001469 Ry

     total magnetization       =     3.75 Bohr mag/cell
     absolute magnetization    =     4.09 Bohr mag/cell
[tb_dev] Currently allocated     7.83E+00 Mbytes, locked:    0 /  16
[tb_pin] Currently allocated     0.00E+00 Mbytes, locked:    0 /   0

     iteration #  4     ecut=    90.00 Ry     beta= 0.10
     Davidson diagonalization with overlap

---- Real-time Memory Report at c_bands before calling an iterative solver
          2050 MiB given to the printing process from OS
          1350 MiB allocation reported by mallinfo(arena+hblkhd)
         57235 MiB available memory on the node where the printing process lives
     GPU memory used/free/total (MiB): 1906 / 14374 / 16280
------------------
     ethr =  2.45E-08,  avg # of iterations =  2.6

     negative rho (up, down):  3.132E-05 1.024E-03

     total cpu time spent up to now is       34.6 secs

     total energy              =    -988.07634731 Ry
     estimated scf accuracy    <       0.00002385 Ry

     total magnetization       =     3.73 Bohr mag/cell
     absolute magnetization    =     4.07 Bohr mag/cell
[tb_dev] Currently allocated     7.83E+00 Mbytes, locked:    0 /  16
[tb_pin] Currently allocated     0.00E+00 Mbytes, locked:    0 /   0

     iteration #  5     ecut=    90.00 Ry     beta= 0.10
     Davidson diagonalization with overlap

---- Real-time Memory Report at c_bands before calling an iterative solver
          2099 MiB given to the printing process from OS
          1358 MiB allocation reported by mallinfo(arena+hblkhd)
         57225 MiB available memory on the node where the printing process lives
     GPU memory used/free/total (MiB): 1906 / 14374 / 16280
------------------
     ethr =  2.45E-08,  avg # of iterations =  1.0

     negative rho (up, down):  3.131E-05 1.024E-03

     total cpu time spent up to now is       39.4 secs

     total energy              =    -988.07634828 Ry
     estimated scf accuracy    <       0.00002478 Ry

     total magnetization       =     3.73 Bohr mag/cell
     absolute magnetization    =     4.07 Bohr mag/cell
[tb_dev] Currently allocated     7.83E+00 Mbytes, locked:    0 /  16
[tb_pin] Currently allocated     0.00E+00 Mbytes, locked:    0 /   0

     iteration #  6     ecut=    90.00 Ry     beta= 0.10
     Davidson diagonalization with overlap

---- Real-time Memory Report at c_bands before calling an iterative solver
          2146 MiB given to the printing process from OS
          1365 MiB allocation reported by mallinfo(arena+hblkhd)
         57219 MiB available memory on the node where the printing process lives
     GPU memory used/free/total (MiB): 1906 / 14374 / 16280
------------------
     ethr =  2.45E-08,  avg # of iterations =  1.0

     negative rho (up, down):  3.132E-05 1.025E-03

     total cpu time spent up to now is       44.2 secs

     total energy              =    -988.07634957 Ry
     estimated scf accuracy    <       0.00002554 Ry

     total magnetization       =     3.73 Bohr mag/cell
     absolute magnetization    =     4.07 Bohr mag/cell
[tb_dev] Currently allocated     7.83E+00 Mbytes, locked:    0 /  16
[tb_pin] Currently allocated     0.00E+00 Mbytes, locked:    0 /   0

     iteration #  7     ecut=    90.00 Ry     beta= 0.10
     Davidson diagonalization with overlap

---- Real-time Memory Report at c_bands before calling an iterative solver
          2191 MiB given to the printing process from OS
          1371 MiB allocation reported by mallinfo(arena+hblkhd)
         57213 MiB available memory on the node where the printing process lives
     GPU memory used/free/total (MiB): 1906 / 14374 / 16280
------------------
     ethr =  2.45E-08,  avg # of iterations =  1.0

     negative rho (up, down):  3.130E-05 1.030E-03

     total cpu time spent up to now is       49.0 secs

     total energy              =    -988.07635384 Ry
     estimated scf accuracy    <       0.00003029 Ry

     total magnetization       =     3.73 Bohr mag/cell
     absolute magnetization    =     4.07 Bohr mag/cell
[tb_dev] Currently allocated     7.83E+00 Mbytes, locked:    0 /  16
[tb_pin] Currently allocated     0.00E+00 Mbytes, locked:    0 /   0

     iteration #  8     ecut=    90.00 Ry     beta= 0.10
     Davidson diagonalization with overlap

---- Real-time Memory Report at c_bands before calling an iterative solver
          2242 MiB given to the printing process from OS
          1384 MiB allocation reported by mallinfo(arena+hblkhd)
         57204 MiB available memory on the node where the printing process lives
     GPU memory used/free/total (MiB): 1906 / 14374 / 16280
------------------
     ethr =  2.45E-08,  avg # of iterations =  2.0

     negative rho (up, down):  3.119E-05 1.037E-03

     total cpu time spent up to now is       54.4 secs

     total energy              =    -988.07635923 Ry
     estimated scf accuracy    <       0.00003700 Ry

     total magnetization       =     3.72 Bohr mag/cell
     absolute magnetization    =     4.07 Bohr mag/cell
[tb_dev] Currently allocated     7.83E+00 Mbytes, locked:    0 /  16
[tb_pin] Currently allocated     0.00E+00 Mbytes, locked:    0 /   0

     iteration #  9     ecut=    90.00 Ry     beta= 0.10
     Davidson diagonalization with overlap

---- Real-time Memory Report at c_bands before calling an iterative solver
          2281 MiB given to the printing process from OS
          1393 MiB allocation reported by mallinfo(arena+hblkhd)
         57196 MiB available memory on the node where the printing process lives
     GPU memory used/free/total (MiB): 1906 / 14374 / 16280
------------------
     ethr =  2.45E-08,  avg # of iterations =  2.2

     negative rho (up, down):  3.119E-05 1.037E-03

     total cpu time spent up to now is       60.0 secs

     total energy              =    -988.07636281 Ry
     estimated scf accuracy    <       0.00004738 Ry

     total magnetization       =     3.71 Bohr mag/cell
     absolute magnetization    =     4.05 Bohr mag/cell
[tb_dev] Currently allocated     7.83E+00 Mbytes, locked:    0 /  16
[tb_pin] Currently allocated     0.00E+00 Mbytes, locked:    0 /   0

     iteration # 10     ecut=    90.00 Ry     beta= 0.10
     Davidson diagonalization with overlap

---- Real-time Memory Report at c_bands before calling an iterative solver
          2309 MiB given to the printing process from OS
          1401 MiB allocation reported by mallinfo(arena+hblkhd)
         57187 MiB available memory on the node where the printing process lives
     GPU memory used/free/total (MiB): 1906 / 14374 / 16280
------------------
     ethr =  2.45E-08,  avg # of iterations =  1.0

     negative rho (up, down):  3.107E-05 1.041E-03

     total cpu time spent up to now is       64.8 secs

     total energy              =    -988.07636617 Ry
     estimated scf accuracy    <       0.00004819 Ry

     total magnetization       =     3.71 Bohr mag/cell
     absolute magnetization    =     4.06 Bohr mag/cell
[tb_dev] Currently allocated     7.83E+00 Mbytes, locked:    0 /  16
[tb_pin] Currently allocated     0.00E+00 Mbytes, locked:    0 /   0

     iteration # 11     ecut=    90.00 Ry     beta= 0.10
     Davidson diagonalization with overlap

---- Real-time Memory Report at c_bands before calling an iterative solver
          2315 MiB given to the printing process from OS
          1405 MiB allocation reported by mallinfo(arena+hblkhd)
         57184 MiB available memory on the node where the printing process lives
     GPU memory used/free/total (MiB): 1906 / 14374 / 16280
------------------
     ethr =  2.45E-08,  avg # of iterations =  2.0

     negative rho (up, down):  3.043E-05 1.052E-03

     total cpu time spent up to now is       70.1 secs

     total energy              =    -988.07635413 Ry
     estimated scf accuracy    <       0.00004824 Ry

     total magnetization       =     3.70 Bohr mag/cell
     absolute magnetization    =     4.04 Bohr mag/cell
[tb_dev] Currently allocated     7.83E+00 Mbytes, locked:    0 /  16
[tb_pin] Currently allocated     0.00E+00 Mbytes, locked:    0 /   0

     iteration # 12     ecut=    90.00 Ry     beta= 0.10
     Davidson diagonalization with overlap

---- Real-time Memory Report at c_bands before calling an iterative solver
          2317 MiB given to the printing process from OS
          1409 MiB allocation reported by mallinfo(arena+hblkhd)
         57182 MiB available memory on the node where the printing process lives
     GPU memory used/free/total (MiB): 1906 / 14374 / 16280
------------------
     ethr =  2.45E-08,  avg # of iterations =  3.7

     negative rho (up, down):  3.038E-05 1.052E-03

     total cpu time spent up to now is       77.0 secs

     total energy              =    -988.07638229 Ry
     estimated scf accuracy    <       0.00002739 Ry

     total magnetization       =     3.67 Bohr mag/cell
     absolute magnetization    =     4.01 Bohr mag/cell
[tb_dev] Currently allocated     7.83E+00 Mbytes, locked:    0 /  16
[tb_pin] Currently allocated     0.00E+00 Mbytes, locked:    0 /   0

     iteration # 13     ecut=    90.00 Ry     beta= 0.10
     Davidson diagonalization with overlap

---- Real-time Memory Report at c_bands before calling an iterative solver
          2322 MiB given to the printing process from OS
          1412 MiB allocation reported by mallinfo(arena+hblkhd)
         57178 MiB available memory on the node where the printing process lives
     GPU memory used/free/total (MiB): 1906 / 14374 / 16280
------------------
     ethr =  2.45E-08,  avg # of iterations =  1.0

     negative rho (up, down):  3.100E-05 1.033E-03

     total cpu time spent up to now is       82.0 secs

     total energy              =    -988.07629993 Ry
     estimated scf accuracy    <       0.00002386 Ry

     total magnetization       =     3.66 Bohr mag/cell
     absolute magnetization    =     4.00 Bohr mag/cell
[tb_dev] Currently allocated     7.83E+00 Mbytes, locked:    0 /  16
[tb_pin] Currently allocated     0.00E+00 Mbytes, locked:    0 /   0

     iteration # 14     ecut=    90.00 Ry     beta= 0.10
     Davidson diagonalization with overlap

---- Real-time Memory Report at c_bands before calling an iterative solver
          2325 MiB given to the printing process from OS
          1416 MiB allocation reported by mallinfo(arena+hblkhd)
         57173 MiB available memory on the node where the printing process lives
     GPU memory used/free/total (MiB): 1906 / 14374 / 16280
------------------
     ethr =  2.45E-08,  avg # of iterations =  4.1

     negative rho (up, down):  3.018E-05 1.047E-03

     total cpu time spent up to now is       89.6 secs

     total energy              =    -988.07633216 Ry
     estimated scf accuracy    <       0.00000842 Ry

     total magnetization       =     3.71 Bohr mag/cell
     absolute magnetization    =     4.05 Bohr mag/cell
[tb_dev] Currently allocated     7.83E+00 Mbytes, locked:    0 /  16
[tb_pin] Currently allocated     0.00E+00 Mbytes, locked:    0 /   0

     iteration # 15     ecut=    90.00 Ry     beta= 0.10
     Davidson diagonalization with overlap

---- Real-time Memory Report at c_bands before calling an iterative solver
          2329 MiB given to the printing process from OS
          1420 MiB allocation reported by mallinfo(arena+hblkhd)
         57170 MiB available memory on the node where the printing process lives
     GPU memory used/free/total (MiB): 1906 / 14374 / 16280
------------------
     ethr =  1.40E-08,  avg # of iterations =  4.8

     negative rho (up, down):  2.963E-05 1.057E-03

     total cpu time spent up to now is       97.5 secs

     total energy              =    -988.07636900 Ry
     estimated scf accuracy    <       0.00000975 Ry

     total magnetization       =     3.66 Bohr mag/cell
     absolute magnetization    =     4.00 Bohr mag/cell
[tb_dev] Currently allocated     7.83E+00 Mbytes, locked:    0 /  16
[tb_pin] Currently allocated     0.00E+00 Mbytes, locked:    0 /   0

     iteration # 16     ecut=    90.00 Ry     beta= 0.10
     Davidson diagonalization with overlap

---- Real-time Memory Report at c_bands before calling an iterative solver
          2333 MiB given to the printing process from OS
          1423 MiB allocation reported by mallinfo(arena+hblkhd)
         57162 MiB available memory on the node where the printing process lives
     GPU memory used/free/total (MiB): 1906 / 14374 / 16280
------------------
     ethr =  1.40E-08,  avg # of iterations =  4.0

     negative rho (up, down):  3.118E-05 1.028E-03

     total cpu time spent up to now is      104.8 secs

     total energy              =    -988.07611644 Ry
     estimated scf accuracy    <       0.00000774 Ry

     total magnetization       =     3.63 Bohr mag/cell
     absolute magnetization    =     3.97 Bohr mag/cell
[tb_dev] Currently allocated     7.83E+00 Mbytes, locked:    0 /  16
[tb_pin] Currently allocated     0.00E+00 Mbytes, locked:    0 /   0

     iteration # 17     ecut=    90.00 Ry     beta= 0.10
     Davidson diagonalization with overlap

---- Real-time Memory Report at c_bands before calling an iterative solver
          2336 MiB given to the printing process from OS
          1427 MiB allocation reported by mallinfo(arena+hblkhd)
         57162 MiB available memory on the node where the printing process lives
     GPU memory used/free/total (MiB): 1906 / 14374 / 16280
------------------
     ethr =  1.29E-08,  avg # of iterations =  6.4

     negative rho (up, down):  3.103E-05 1.030E-03

     total cpu time spent up to now is      114.3 secs

     total energy              =    -988.07635116 Ry
     estimated scf accuracy    <       0.00002614 Ry

     total magnetization       =     3.74 Bohr mag/cell
     absolute magnetization    =     4.08 Bohr mag/cell
[tb_dev] Currently allocated     7.83E+00 Mbytes, locked:    0 /  16
[tb_pin] Currently allocated     0.00E+00 Mbytes, locked:    0 /   0

     iteration # 18     ecut=    90.00 Ry     beta= 0.10
     Davidson diagonalization with overlap

---- Real-time Memory Report at c_bands before calling an iterative solver
          2342 MiB given to the printing process from OS
          1431 MiB allocation reported by mallinfo(arena+hblkhd)
         57159 MiB available memory on the node where the printing process lives
     GPU memory used/free/total (MiB): 1906 / 14374 / 16280
------------------
     ethr =  1.29E-08,  avg # of iterations =  2.1

     negative rho (up, down):  3.107E-05 1.027E-03

     total cpu time spent up to now is      119.8 secs

     total energy              =    -988.07633394 Ry
     estimated scf accuracy    <       0.00001102 Ry

     total magnetization       =     3.72 Bohr mag/cell
     absolute magnetization    =     4.06 Bohr mag/cell
[tb_dev] Currently allocated     7.83E+00 Mbytes, locked:    0 /  16
[tb_pin] Currently allocated     0.00E+00 Mbytes, locked:    0 /   0

     iteration # 19     ecut=    90.00 Ry     beta= 0.10
     Davidson diagonalization with overlap

---- Real-time Memory Report at c_bands before calling an iterative solver
          2346 MiB given to the printing process from OS
          1434 MiB allocation reported by mallinfo(arena+hblkhd)
         57154 MiB available memory on the node where the printing process lives
     GPU memory used/free/total (MiB): 1906 / 14374 / 16280
------------------
     ethr =  1.29E-08,  avg # of iterations =  2.2

     negative rho (up, down):  3.070E-05 1.035E-03

     total cpu time spent up to now is      125.7 secs

     total energy              =    -988.07634145 Ry
     estimated scf accuracy    <       0.00004600 Ry

     total magnetization       =     3.75 Bohr mag/cell
     absolute magnetization    =     4.09 Bohr mag/cell
[tb_dev] Currently allocated     7.83E+00 Mbytes, locked:    0 /  16
[tb_pin] Currently allocated     0.00E+00 Mbytes, locked:    0 /   0

     iteration # 20     ecut=    90.00 Ry     beta= 0.10
     Davidson diagonalization with overlap

---- Real-time Memory Report at c_bands before calling an iterative solver
          2350 MiB given to the printing process from OS
          1438 MiB allocation reported by mallinfo(arena+hblkhd)
         57150 MiB available memory on the node where the printing process lives
     GPU memory used/free/total (MiB): 1906 / 14374 / 16280
------------------
     ethr =  1.29E-08,  avg # of iterations =  3.2

     negative rho (up, down):  2.996E-05 1.049E-03

     total cpu time spent up to now is      133.1 secs

     total energy              =    -988.07628871 Ry
     estimated scf accuracy    <       0.00002834 Ry

     total magnetization       =     3.71 Bohr mag/cell
     absolute magnetization    =     4.05 Bohr mag/cell
[tb_dev] Currently allocated     7.83E+00 Mbytes, locked:    0 /  16
[tb_pin] Currently allocated     0.00E+00 Mbytes, locked:    0 /   0

     iteration # 21     ecut=    90.00 Ry     beta= 0.10
     Davidson diagonalization with overlap

---- Real-time Memory Report at c_bands before calling an iterative solver
          2356 MiB given to the printing process from OS
          1441 MiB allocation reported by mallinfo(arena+hblkhd)
         57147 MiB available memory on the node where the printing process lives
     GPU memory used/free/total (MiB): 1906 / 14374 / 16280
------------------
     ethr =  1.29E-08,  avg # of iterations =  5.5

     negative rho (up, down):  3.045E-05 1.040E-03

     total cpu time spent up to now is      141.8 secs

     total energy              =    -988.07634477 Ry
     estimated scf accuracy    <       0.00000817 Ry

     total magnetization       =     3.63 Bohr mag/cell
     absolute magnetization    =     3.97 Bohr mag/cell
[tb_dev] Currently allocated     7.83E+00 Mbytes, locked:    0 /  16
[tb_pin] Currently allocated     0.00E+00 Mbytes, locked:    0 /   0

     iteration # 22     ecut=    90.00 Ry     beta= 0.10
     Davidson diagonalization with overlap

---- Real-time Memory Report at c_bands before calling an iterative solver
          2359 MiB given to the printing process from OS
          1445 MiB allocation reported by mallinfo(arena+hblkhd)
         57144 MiB available memory on the node where the printing process lives
     GPU memory used/free/total (MiB): 1906 / 14374 / 16280
------------------
     ethr =  1.29E-08,  avg # of iterations =  4.4

     negative rho (up, down):  3.228E-05 1.005E-03

     total cpu time spent up to now is      149.5 secs

     total energy              =    -988.07580535 Ry
     estimated scf accuracy    <       0.00001016 Ry

     total magnetization       =     3.68 Bohr mag/cell
     absolute magnetization    =     4.01 Bohr mag/cell
[tb_dev] Currently allocated     7.83E+00 Mbytes, locked:    0 /  16
[tb_pin] Currently allocated     0.00E+00 Mbytes, locked:    0 /   0

     iteration # 23     ecut=    90.00 Ry     beta= 0.10
     Davidson diagonalization with overlap

---- Real-time Memory Report at c_bands before calling an iterative solver
          2363 MiB given to the printing process from OS
          1449 MiB allocation reported by mallinfo(arena+hblkhd)
         57142 MiB available memory on the node where the printing process lives
     GPU memory used/free/total (MiB): 1906 / 14374 / 16280
------------------
     ethr =  1.29E-08,  avg # of iterations =  7.5

     negative rho (up, down):  3.172E-05 1.016E-03

     total cpu time spent up to now is      160.6 secs

     total energy              =    -988.07627600 Ry
     estimated scf accuracy    <       0.00013812 Ry

     total magnetization       =     3.83 Bohr mag/cell
     absolute magnetization    =     4.18 Bohr mag/cell
[tb_dev] Currently allocated     7.83E+00 Mbytes, locked:    0 /  16
[tb_pin] Currently allocated     0.00E+00 Mbytes, locked:    0 /   0

     iteration # 24     ecut=    90.00 Ry     beta= 0.10
     Davidson diagonalization with overlap

---- Real-time Memory Report at c_bands before calling an iterative solver
          2366 MiB given to the printing process from OS
          1452 MiB allocation reported by mallinfo(arena+hblkhd)
         57139 MiB available memory on the node where the printing process lives
     GPU memory used/free/total (MiB): 1906 / 14374 / 16280
------------------
     ethr =  1.29E-08,  avg # of iterations =  4.5

     negative rho (up, down):  3.049E-05 1.039E-03

     total cpu time spent up to now is      168.4 secs

     total energy              =    -988.07618620 Ry
     estimated scf accuracy    <       0.00006839 Ry

     total magnetization       =     3.79 Bohr mag/cell
     absolute magnetization    =     4.13 Bohr mag/cell
[tb_dev] Currently allocated     7.83E+00 Mbytes, locked:    0 /  16
[tb_pin] Currently allocated     0.00E+00 Mbytes, locked:    0 /   0

     iteration # 25     ecut=    90.00 Ry     beta= 0.10
     Davidson diagonalization with overlap

---- Real-time Memory Report at c_bands before calling an iterative solver
          2371 MiB given to the printing process from OS
          1456 MiB allocation reported by mallinfo(arena+hblkhd)
         57135 MiB available memory on the node where the printing process lives
     GPU memory used/free/total (MiB): 1906 / 14374 / 16280
------------------
     ethr =  1.29E-08,  avg # of iterations =  6.8

     negative rho (up, down):  3.104E-05 1.029E-03

     total cpu time spent up to now is      178.3 secs

     total energy              =    -988.07632785 Ry
     estimated scf accuracy    <       0.00001074 Ry

     total magnetization       =     3.69 Bohr mag/cell
     absolute magnetization    =     4.03 Bohr mag/cell
[tb_dev] Currently allocated     7.83E+00 Mbytes, locked:    0 /  16
[tb_pin] Currently allocated     0.00E+00 Mbytes, locked:    0 /   0

     iteration # 26     ecut=    90.00 Ry     beta= 0.10
     Davidson diagonalization with overlap

---- Real-time Memory Report at c_bands before calling an iterative solver
          2374 MiB given to the printing process from OS
          1460 MiB allocation reported by mallinfo(arena+hblkhd)
         57132 MiB available memory on the node where the printing process lives
     GPU memory used/free/total (MiB): 1906 / 14374 / 16280
------------------
     ethr =  1.29E-08,  avg # of iterations =  3.8

     negative rho (up, down):  3.104E-05 1.032E-03

     total cpu time spent up to now is      185.4 secs

     total energy              =    -988.07635303 Ry
     estimated scf accuracy    <       0.00002154 Ry

     total magnetization       =     3.72 Bohr mag/cell
     absolute magnetization    =     4.06 Bohr mag/cell
[tb_dev] Currently allocated     7.83E+00 Mbytes, locked:    0 /  16
[tb_pin] Currently allocated     0.00E+00 Mbytes, locked:    0 /   0

     iteration # 27     ecut=    90.00 Ry     beta= 0.10
     Davidson diagonalization with overlap

---- Real-time Memory Report at c_bands before calling an iterative solver
          2378 MiB given to the printing process from OS
          1463 MiB allocation reported by mallinfo(arena+hblkhd)
         57124 MiB available memory on the node where the printing process lives
     GPU memory used/free/total (MiB): 1906 / 14374 / 16280
------------------
     ethr =  1.29E-08,  avg # of iterations =  1.0

     negative rho (up, down):  3.126E-05 1.026E-03

     total cpu time spent up to now is      190.2 secs

     total energy              =    -988.07633846 Ry
     estimated scf accuracy    <       0.00001984 Ry

     total magnetization       =     3.72 Bohr mag/cell
     absolute magnetization    =     4.07 Bohr mag/cell
[tb_dev] Currently allocated     7.83E+00 Mbytes, locked:    0 /  16
[tb_pin] Currently allocated     0.00E+00 Mbytes, locked:    0 /   0

     iteration # 28     ecut=    90.00 Ry     beta= 0.10
     Davidson diagonalization with overlap

---- Real-time Memory Report at c_bands before calling an iterative solver
          2382 MiB given to the printing process from OS
          1467 MiB allocation reported by mallinfo(arena+hblkhd)
         57123 MiB available memory on the node where the printing process lives
     GPU memory used/free/total (MiB): 1906 / 14374 / 16280
------------------
     ethr =  1.29E-08,  avg # of iterations =  2.2

     negative rho (up, down):  3.017E-05 1.045E-03

     total cpu time spent up to now is      196.4 secs

     total energy              =    -988.07625723 Ry
     estimated scf accuracy    <       0.00002637 Ry

     total magnetization       =     3.74 Bohr mag/cell
     absolute magnetization    =     4.08 Bohr mag/cell
[tb_dev] Currently allocated     7.83E+00 Mbytes, locked:    0 /  16
[tb_pin] Currently allocated     0.00E+00 Mbytes, locked:    0 /   0

     iteration # 29     ecut=    90.00 Ry     beta= 0.10
     Davidson diagonalization with overlap

---- Real-time Memory Report at c_bands before calling an iterative solver
          2385 MiB given to the printing process from OS
          1471 MiB allocation reported by mallinfo(arena+hblkhd)
         57120 MiB available memory on the node where the printing process lives
     GPU memory used/free/total (MiB): 1906 / 14374 / 16280
------------------
     ethr =  1.29E-08,  avg # of iterations =  5.4

     negative rho (up, down):  3.057E-05 1.038E-03

     total cpu time spent up to now is      205.0 secs

     total energy              =    -988.07635197 Ry
     estimated scf accuracy    <       0.00000703 Ry

     total magnetization       =     3.66 Bohr mag/cell
     absolute magnetization    =     4.00 Bohr mag/cell
[tb_dev] Currently allocated     7.83E+00 Mbytes, locked:    0 /  16
[tb_pin] Currently allocated     0.00E+00 Mbytes, locked:    0 /   0

     iteration # 30     ecut=    90.00 Ry     beta= 0.10
     Davidson diagonalization with overlap

---- Real-time Memory Report at c_bands before calling an iterative solver
          2390 MiB given to the printing process from OS
          1475 MiB allocation reported by mallinfo(arena+hblkhd)
         57115 MiB available memory on the node where the printing process lives
     GPU memory used/free/total (MiB): 1906 / 14374 / 16280
------------------
     ethr =  1.17E-08,  avg # of iterations =  3.4

     negative rho (up, down):  3.029E-05 1.043E-03

     total cpu time spent up to now is      211.8 secs

     total energy              =    -988.07637060 Ry
     estimated scf accuracy    <       0.00001025 Ry

     total magnetization       =     3.69 Bohr mag/cell
     absolute magnetization    =     4.03 Bohr mag/cell
[tb_dev] Currently allocated     7.83E+00 Mbytes, locked:    0 /  16
[tb_pin] Currently allocated     0.00E+00 Mbytes, locked:    0 /   0

     iteration # 31     ecut=    90.00 Ry     beta= 0.10
     Davidson diagonalization with overlap

---- Real-time Memory Report at c_bands before calling an iterative solver
          2393 MiB given to the printing process from OS
          1479 MiB allocation reported by mallinfo(arena+hblkhd)
         57111 MiB available memory on the node where the printing process lives
     GPU memory used/free/total (MiB): 1906 / 14374 / 16280
------------------
     ethr =  1.17E-08,  avg # of iterations =  2.3

     negative rho (up, down):  3.039E-05 1.041E-03

     total cpu time spent up to now is      217.5 secs

     total energy              =    -988.07637297 Ry
     estimated scf accuracy    <       0.00000801 Ry

     total magnetization       =     3.67 Bohr mag/cell
     absolute magnetization    =     4.01 Bohr mag/cell
[tb_dev] Currently allocated     7.83E+00 Mbytes, locked:    0 /  16
[tb_pin] Currently allocated     0.00E+00 Mbytes, locked:    0 /   0

     iteration # 32     ecut=    90.00 Ry     beta= 0.10
     Davidson diagonalization with overlap

---- Real-time Memory Report at c_bands before calling an iterative solver
          2398 MiB given to the printing process from OS
          1483 MiB allocation reported by mallinfo(arena+hblkhd)
         57110 MiB available memory on the node where the printing process lives
     GPU memory used/free/total (MiB): 1906 / 14374 / 16280
------------------
     ethr =  1.17E-08,  avg # of iterations =  1.1

     negative rho (up, down):  3.012E-05 1.046E-03

     total cpu time spent up to now is      222.4 secs

     total energy              =    -988.07637404 Ry
     estimated scf accuracy    <       0.00000997 Ry

     total magnetization       =     3.68 Bohr mag/cell
     absolute magnetization    =     4.02 Bohr mag/cell
[tb_dev] Currently allocated     7.83E+00 Mbytes, locked:    0 /  16
[tb_pin] Currently allocated     0.00E+00 Mbytes, locked:    0 /   0

     iteration # 33     ecut=    90.00 Ry     beta= 0.10
     Davidson diagonalization with overlap

---- Real-time Memory Report at c_bands before calling an iterative solver
          2402 MiB given to the printing process from OS
          1487 MiB allocation reported by mallinfo(arena+hblkhd)
         57103 MiB available memory on the node where the printing process lives
     GPU memory used/free/total (MiB): 1906 / 14374 / 16280
------------------
     ethr =  1.17E-08,  avg # of iterations =  3.1

     negative rho (up, down):  2.995E-05 1.048E-03

     total cpu time spent up to now is      228.7 secs

     total energy              =    -988.07638530 Ry
     estimated scf accuracy    <       0.00001243 Ry

     total magnetization       =     3.66 Bohr mag/cell
     absolute magnetization    =     3.99 Bohr mag/cell
[tb_dev] Currently allocated     7.83E+00 Mbytes, locked:    0 /  16
[tb_pin] Currently allocated     0.00E+00 Mbytes, locked:    0 /   0

     iteration # 34     ecut=    90.00 Ry     beta= 0.10
     Davidson diagonalization with overlap

---- Real-time Memory Report at c_bands before calling an iterative solver
          2406 MiB given to the printing process from OS
          1491 MiB allocation reported by mallinfo(arena+hblkhd)
         57098 MiB available memory on the node where the printing process lives
     GPU memory used/free/total (MiB): 1906 / 14374 / 16280
------------------
     ethr =  1.17E-08,  avg # of iterations =  2.0

     negative rho (up, down):  2.874E-05 1.071E-03

     total cpu time spent up to now is      234.2 secs

     total energy              =    -988.07620520 Ry
     estimated scf accuracy    <       0.00001294 Ry

     total magnetization       =     3.65 Bohr mag/cell
     absolute magnetization    =     3.99 Bohr mag/cell
[tb_dev] Currently allocated     7.83E+00 Mbytes, locked:    0 /  16
[tb_pin] Currently allocated     0.00E+00 Mbytes, locked:    0 /   0

     iteration # 35     ecut=    90.00 Ry     beta= 0.10
     Davidson diagonalization with overlap

---- Real-time Memory Report at c_bands before calling an iterative solver
          2414 MiB given to the printing process from OS
          1500 MiB allocation reported by mallinfo(arena+hblkhd)
         57094 MiB available memory on the node where the printing process lives
     GPU memory used/free/total (MiB): 1906 / 14374 / 16280
------------------
     ethr =  1.17E-08,  avg # of iterations =  6.8

     negative rho (up, down):  3.138E-05 1.022E-03

     total cpu time spent up to now is      244.4 secs

     total energy              =    -988.07529093 Ry
     estimated scf accuracy    <       0.00002600 Ry

     total magnetization       =     3.53 Bohr mag/cell
     absolute magnetization    =     3.86 Bohr mag/cell
[tb_dev] Currently allocated     7.83E+00 Mbytes, locked:    0 /  16
[tb_pin] Currently allocated     0.00E+00 Mbytes, locked:    0 /   0

     iteration # 36     ecut=    90.00 Ry     beta= 0.10
     Davidson diagonalization with overlap

---- Real-time Memory Report at c_bands before calling an iterative solver
          2417 MiB given to the printing process from OS
          1504 MiB allocation reported by mallinfo(arena+hblkhd)
         57092 MiB available memory on the node where the printing process lives
     GPU memory used/free/total (MiB): 1906 / 14374 / 16280
------------------
     ethr =  1.17E-08,  avg # of iterations =  8.2

     negative rho (up, down):  3.126E-05 1.025E-03

     total cpu time spent up to now is      255.9 secs

     total energy              =    -988.07633249 Ry
     estimated scf accuracy    <       0.00004142 Ry

     total magnetization       =     3.77 Bohr mag/cell
     absolute magnetization    =     4.11 Bohr mag/cell
[tb_dev] Currently allocated     7.83E+00 Mbytes, locked:    0 /  16
[tb_pin] Currently allocated     0.00E+00 Mbytes, locked:    0 /   0

     iteration # 37     ecut=    90.00 Ry     beta= 0.10
     Davidson diagonalization with overlap

---- Real-time Memory Report at c_bands before calling an iterative solver
          2423 MiB given to the printing process from OS
          1508 MiB allocation reported by mallinfo(arena+hblkhd)
         57083 MiB available memory on the node where the printing process lives
     GPU memory used/free/total (MiB): 1906 / 14374 / 16280
------------------
     ethr =  1.17E-08,  avg # of iterations =  3.1

     negative rho (up, down):  3.102E-05 1.029E-03

     total cpu time spent up to now is      262.2 secs

     total energy              =    -988.07634690 Ry
     estimated scf accuracy    <       0.00003016 Ry

     total magnetization       =     3.74 Bohr mag/cell
     absolute magnetization    =     4.08 Bohr mag/cell
[tb_dev] Currently allocated     7.83E+00 Mbytes, locked:    0 /  16
[tb_pin] Currently allocated     0.00E+00 Mbytes, locked:    0 /   0

     iteration # 38     ecut=    90.00 Ry     beta= 0.10
     Davidson diagonalization with overlap

---- Real-time Memory Report at c_bands before calling an iterative solver
          2426 MiB given to the printing process from OS
          1512 MiB allocation reported by mallinfo(arena+hblkhd)
         57079 MiB available memory on the node where the printing process lives
     GPU memory used/free/total (MiB): 1906 / 14374 / 16280
------------------
     ethr =  1.17E-08,  avg # of iterations =  3.5

     negative rho (up, down):  3.102E-05 1.029E-03

     total cpu time spent up to now is      268.8 secs

     total energy              =    -988.07635361 Ry
     estimated scf accuracy    <       0.00002298 Ry

     total magnetization       =     3.72 Bohr mag/cell
     absolute magnetization    =     4.07 Bohr mag/cell
[tb_dev] Currently allocated     7.83E+00 Mbytes, locked:    0 /  16
[tb_pin] Currently allocated     0.00E+00 Mbytes, locked:    0 /   0

     iteration # 39     ecut=    90.00 Ry     beta= 0.10
     Davidson diagonalization with overlap

---- Real-time Memory Report at c_bands before calling an iterative solver
          2429 MiB given to the printing process from OS
          1516 MiB allocation reported by mallinfo(arena+hblkhd)
         57077 MiB available memory on the node where the printing process lives
     GPU memory used/free/total (MiB): 1906 / 14374 / 16280
------------------
     ethr =  1.17E-08,  avg # of iterations =  1.0

     negative rho (up, down):  3.110E-05 1.028E-03

     total cpu time spent up to now is      273.6 secs

     total energy              =    -988.07634974 Ry
     estimated scf accuracy    <       0.00002325 Ry

     total magnetization       =     3.72 Bohr mag/cell
     absolute magnetization    =     4.07 Bohr mag/cell
[tb_dev] Currently allocated     7.83E+00 Mbytes, locked:    0 /  16
[tb_pin] Currently allocated     0.00E+00 Mbytes, locked:    0 /   0

     iteration # 40     ecut=    90.00 Ry     beta= 0.10
     Davidson diagonalization with overlap

---- Real-time Memory Report at c_bands before calling an iterative solver
          2434 MiB given to the printing process from OS
          1520 MiB allocation reported by mallinfo(arena+hblkhd)
         57071 MiB available memory on the node where the printing process lives
     GPU memory used/free/total (MiB): 1906 / 14374 / 16280
------------------
     ethr =  1.17E-08,  avg # of iterations =  1.0

[...]
     GPU memory used/free/total (MiB): 1906 / 14374 / 16280
------------------
     ethr =  1.14E-08,  avg # of iterations =  1.0

     negative rho (up, down):  3.178E-05 1.014E-03

     total cpu time spent up to now is      468.2 secs

     total energy              =    -988.07629780 Ry
     estimated scf accuracy    <       0.00009233 Ry

     total magnetization       =     3.81 Bohr mag/cell
     absolute magnetization    =     4.16 Bohr mag/cell
[tb_dev] Currently allocated     7.83E+00 Mbytes, locked:    0 /  16
[tb_pin] Currently allocated     0.00E+00 Mbytes, locked:    0 /   0

     iteration # 66     ecut=    90.00 Ry     beta= 0.10
     Davidson diagonalization with overlap

---- Real-time Memory Report at c_bands before calling an iterative solver
          2544 MiB given to the printing process from OS
          1630 MiB allocation reported by mallinfo(arena+hblkhd)
         56964 MiB available memory on the node where the printing process lives
     GPU memory used/free/total (MiB): 1906 / 14374 / 16280
------------------
     ethr =  1.14E-08,  avg # of iterations =  3.7

     negative rho (up, down):  3.217E-05 1.007E-03

     total cpu time spent up to now is      475.1 secs

     total energy              =    -988.07626400 Ry
     estimated scf accuracy    <       0.00005966 Ry

     total magnetization       =     3.78 Bohr mag/cell
     absolute magnetization    =     4.13 Bohr mag/cell
[tb_dev] Currently allocated     7.83E+00 Mbytes, locked:    0 /  16
[tb_pin] Currently allocated     0.00E+00 Mbytes, locked:    0 /   0

     iteration # 67     ecut=    90.00 Ry     beta= 0.10
     Davidson diagonalization with overlap

---- Real-time Memory Report at c_bands before calling an iterative solver
          2547 MiB given to the printing process from OS
          1634 MiB allocation reported by mallinfo(arena+hblkhd)
         56960 MiB available memory on the node where the printing process lives
     GPU memory used/free/total (MiB): 1906 / 14374 / 16280
------------------
     ethr =  1.14E-08,  avg # of iterations =  3.7

     negative rho (up, down):  3.215E-05 1.007E-03

     total cpu time spent up to now is      482.4 secs

     total energy              =    -988.07628562 Ry
     estimated scf accuracy    <       0.00009700 Ry

     total magnetization       =     3.81 Bohr mag/cell
     absolute magnetization    =     4.16 Bohr mag/cell
[tb_dev] Currently allocated     7.83E+00 Mbytes, locked:    0 /  16
[tb_pin] Currently allocated     0.00E+00 Mbytes, locked:    0 /   0

     iteration # 68     ecut=    90.00 Ry     beta= 0.10
     Davidson diagonalization with overlap

---- Real-time Memory Report at c_bands before calling an iterative solver
          2552 MiB given to the printing process from OS
          1638 MiB allocation reported by mallinfo(arena+hblkhd)
         56955 MiB available memory on the node where the printing process lives
     GPU memory used/free/total (MiB): 1906 / 14374 / 16280
------------------
     ethr =  1.14E-08,  avg # of iterations =  1.0

     negative rho (up, down):  3.166E-05 1.017E-03

     total cpu time spent up to now is      487.2 secs

     total energy              =    -988.07629330 Ry
     estimated scf accuracy    <       0.00008742 Ry

     total magnetization       =     3.81 Bohr mag/cell
     absolute magnetization    =     4.16 Bohr mag/cell
[tb_dev] Currently allocated     7.83E+00 Mbytes, locked:    0 /  16
[tb_pin] Currently allocated     0.00E+00 Mbytes, locked:    0 /   0

     iteration # 69     ecut=    90.00 Ry     beta= 0.10
     Davidson diagonalization with overlap

---- Real-time Memory Report at c_bands before calling an iterative solver
          2558 MiB given to the printing process from OS
          1642 MiB allocation reported by mallinfo(arena+hblkhd)
         56949 MiB available memory on the node where the printing process lives
     GPU memory used/free/total (MiB): 1906 / 14374 / 16280
------------------
     ethr =  1.14E-08,  avg # of iterations =  3.8

     negative rho (up, down):  3.015E-05 1.046E-03

     total cpu time spent up to now is      494.3 secs

     total energy              =    -988.07608358 Ry
     estimated scf accuracy    <       0.00005286 Ry

     total magnetization       =     3.78 Bohr mag/cell
     absolute magnetization    =     4.13 Bohr mag/cell
[tb_dev] Currently allocated     7.83E+00 Mbytes, locked:    0 /  16
[tb_pin] Currently allocated     0.00E+00 Mbytes, locked:    0 /   0

     iteration # 70     ecut=    90.00 Ry     beta= 0.10
     Davidson diagonalization with overlap

---- Real-time Memory Report at c_bands before calling an iterative solver
          2562 MiB given to the printing process from OS
          1646 MiB allocation reported by mallinfo(arena+hblkhd)
         56945 MiB available memory on the node where the printing process lives
     GPU memory used/free/total (MiB): 1906 / 14374 / 16280
------------------
     ethr =  1.14E-08,  avg # of iterations =  7.4

     negative rho (up, down):  2.973E-05 1.054E-03

     total cpu time spent up to now is      504.9 secs

     total energy              =    -988.07637311 Ry
     estimated scf accuracy    <       0.00001464 Ry

     total magnetization       =     3.66 Bohr mag/cell
     absolute magnetization    =     3.99 Bohr mag/cell
[tb_dev] Currently allocated     7.83E+00 Mbytes, locked:    0 /  16
[tb_pin] Currently allocated     0.00E+00 Mbytes, locked:    0 /   0

     iteration # 71     ecut=    90.00 Ry     beta= 0.10
     Davidson diagonalization with overlap

---- Real-time Memory Report at c_bands before calling an iterative solver
          2566 MiB given to the printing process from OS
          1650 MiB allocation reported by mallinfo(arena+hblkhd)
         56940 MiB available memory on the node where the printing process lives
     GPU memory used/free/total (MiB): 1906 / 14374 / 16280
------------------
     ethr =  1.14E-08,  avg # of iterations =  4.9

     negative rho (up, down):  2.864E-05 1.074E-03

     total cpu time spent up to now is      513.4 secs

     total energy              =    -988.07625491 Ry
     estimated scf accuracy    <       0.00001387 Ry

     total magnetization       =     3.62 Bohr mag/cell
     absolute magnetization    =     3.95 Bohr mag/cell
[tb_dev] Currently allocated     7.83E+00 Mbytes, locked:    0 /  16
[tb_pin] Currently allocated     0.00E+00 Mbytes, locked:    0 /   0

     iteration # 72     ecut=    90.00 Ry     beta= 0.10
     Davidson diagonalization with overlap

---- Real-time Memory Report at c_bands before calling an iterative solver
          2571 MiB given to the printing process from OS
          1657 MiB allocation reported by mallinfo(arena+hblkhd)
         56939 MiB available memory on the node where the printing process lives
     GPU memory used/free/total (MiB): 1906 / 14374 / 16280
------------------
     ethr =  1.14E-08,  avg # of iterations =  6.2

     negative rho (up, down):  3.000E-05 1.048E-03

     total cpu time spent up to now is      522.9 secs

     total energy              =    -988.07610605 Ry
     estimated scf accuracy    <       0.00003760 Ry

     total magnetization       =     3.52 Bohr mag/cell
     absolute magnetization    =     3.84 Bohr mag/cell
[tb_dev] Currently allocated     7.83E+00 Mbytes, locked:    0 /  16
[tb_pin] Currently allocated     0.00E+00 Mbytes, locked:    0 /   0

     iteration # 73     ecut=    90.00 Ry     beta= 0.10
     Davidson diagonalization with overlap

---- Real-time Memory Report at c_bands before calling an iterative solver
          2575 MiB given to the printing process from OS
          1661 MiB allocation reported by mallinfo(arena+hblkhd)
         56929 MiB available memory on the node where the printing process lives
     GPU memory used/free/total (MiB): 1906 / 14374 / 16280
------------------
     ethr =  1.14E-08,  avg # of iterations =  6.3

     negative rho (up, down):  3.185E-05 1.014E-03

     total cpu time spent up to now is      532.4 secs

     total energy              =    -988.07587260 Ry
     estimated scf accuracy    <       0.00001357 Ry

     total magnetization       =     3.64 Bohr mag/cell
     absolute magnetization    =     3.98 Bohr mag/cell
[tb_dev] Currently allocated     7.83E+00 Mbytes, locked:    0 /  16
[tb_pin] Currently allocated     0.00E+00 Mbytes, locked:    0 /   0

     iteration # 74     ecut=    90.00 Ry     beta= 0.10
     Davidson diagonalization with overlap

---- Real-time Memory Report at c_bands before calling an iterative solver
          2579 MiB given to the printing process from OS
          1665 MiB allocation reported by mallinfo(arena+hblkhd)
         56928 MiB available memory on the node where the printing process lives
     GPU memory used/free/total (MiB): 1906 / 14374 / 16280
------------------
     ethr =  1.14E-08,  avg # of iterations =  7.7

     negative rho (up, down):  3.187E-05 1.014E-03

     total cpu time spent up to now is      543.5 secs

     total energy              =    -988.07630725 Ry
     estimated scf accuracy    <       0.00007251 Ry

     total magnetization       =     3.79 Bohr mag/cell
     absolute magnetization    =     4.13 Bohr mag/cell
[tb_dev] Currently allocated     7.83E+00 Mbytes, locked:    0 /  16
[tb_pin] Currently allocated     0.00E+00 Mbytes, locked:    0 /   0

     iteration # 75     ecut=    90.00 Ry     beta= 0.10
     Davidson diagonalization with overlap

---- Real-time Memory Report at c_bands before calling an iterative solver
          2585 MiB given to the printing process from OS
          1669 MiB allocation reported by mallinfo(arena+hblkhd)
         56922 MiB available memory on the node where the printing process lives
     GPU memory used/free/total (MiB): 1906 / 14374 / 16280
------------------
     ethr =  1.14E-08,  avg # of iterations =  1.1

     negative rho (up, down):  3.126E-05 1.026E-03

     total cpu time spent up to now is      548.4 secs

     total energy              =    -988.07629531 Ry
     estimated scf accuracy    <       0.00007647 Ry

     total magnetization       =     3.79 Bohr mag/cell
     absolute magnetization    =     4.14 Bohr mag/cell
[tb_dev] Currently allocated     7.83E+00 Mbytes, locked:    0 /  16
[tb_pin] Currently allocated     0.00E+00 Mbytes, locked:    0 /   0

     iteration # 76     ecut=    90.00 Ry     beta= 0.10
     Davidson diagonalization with overlap

---- Real-time Memory Report at c_bands before calling an iterative solver
          2589 MiB given to the printing process from OS
          1673 MiB allocation reported by mallinfo(arena+hblkhd)
         56915 MiB available memory on the node where the printing process lives
     GPU memory used/free/total (MiB): 1906 / 14374 / 16280
------------------
     ethr =  1.14E-08,  avg # of iterations =  4.9

     negative rho (up, down):  3.124E-05 1.026E-03

     total cpu time spent up to now is      556.6 secs

     total energy              =    -988.07634480 Ry
     estimated scf accuracy    <       0.00003817 Ry

     total magnetization       =     3.74 Bohr mag/cell
     absolute magnetization    =     4.08 Bohr mag/cell
[tb_dev] Currently allocated     7.83E+00 Mbytes, locked:    0 /  16
[tb_pin] Currently allocated     0.00E+00 Mbytes, locked:    0 /   0

     iteration # 77     ecut=    90.00 Ry     beta= 0.10
     Davidson diagonalization with overlap

---- Real-time Memory Report at c_bands before calling an iterative solver
          2593 MiB given to the printing process from OS
          1677 MiB allocation reported by mallinfo(arena+hblkhd)
         56915 MiB available memory on the node where the printing process lives
     GPU memory used/free/total (MiB): 1906 / 14374 / 16280
------------------
     ethr =  1.14E-08,  avg # of iterations =  1.0

     negative rho (up, down):  3.141E-05 1.023E-03

     total cpu time spent up to now is      561.7 secs

     total energy              =    -988.07633394 Ry
     estimated scf accuracy    <       0.00003821 Ry

     total magnetization       =     3.74 Bohr mag/cell
     absolute magnetization    =     4.08 Bohr mag/cell
[tb_dev] Currently allocated     7.83E+00 Mbytes, locked:    0 /  16
[tb_pin] Currently allocated     0.00E+00 Mbytes, locked:    0 /   0

     iteration # 78     ecut=    90.00 Ry     beta= 0.10
     Davidson diagonalization with overlap

---- Real-time Memory Report at c_bands before calling an iterative solver
          2597 MiB given to the printing process from OS
          1681 MiB allocation reported by mallinfo(arena+hblkhd)
         56909 MiB available memory on the node where the printing process lives
     GPU memory used/free/total (MiB): 1906 / 14374 / 16280
------------------
     ethr =  1.14E-08,  avg # of iterations =  2.1

     negative rho (up, down):  3.111E-05 1.028E-03

     total cpu time spent up to now is      567.2 secs

     total energy              =    -988.07634051 Ry
     estimated scf accuracy    <       0.00004450 Ry

     total magnetization       =     3.75 Bohr mag/cell
     absolute magnetization    =     4.10 Bohr mag/cell
[tb_dev] Currently allocated     7.83E+00 Mbytes, locked:    0 /  16
[tb_pin] Currently allocated     0.00E+00 Mbytes, locked:    0 /   0

     iteration # 79     ecut=    90.00 Ry     beta= 0.10
     Davidson diagonalization with overlap

---- Real-time Memory Report at c_bands before calling an iterative solver
          2601 MiB given to the printing process from OS
          1685 MiB allocation reported by mallinfo(arena+hblkhd)
         56904 MiB available memory on the node where the printing process lives
     GPU memory used/free/total (MiB): 1906 / 14374 / 16280
------------------
     ethr =  1.14E-08,  avg # of iterations =  2.6

     negative rho (up, down):  3.116E-05 1.027E-03

     total cpu time spent up to now is      573.2 secs

     total energy              =    -988.07634852 Ry
     estimated scf accuracy    <       0.00002969 Ry

     total magnetization       =     3.73 Bohr mag/cell
     absolute magnetization    =     4.07 Bohr mag/cell
[tb_dev] Currently allocated     7.83E+00 Mbytes, locked:    0 /  16
[tb_pin] Currently allocated     0.00E+00 Mbytes, locked:    0 /   0

     iteration # 80     ecut=    90.00 Ry     beta= 0.10
     Davidson diagonalization with overlap

---- Real-time Memory Report at c_bands before calling an iterative solver
          2605 MiB given to the printing process from OS
          1689 MiB allocation reported by mallinfo(arena+hblkhd)
         56902 MiB available memory on the node where the printing process lives
     GPU memory used/free/total (MiB): 1906 / 14374 / 16280
------------------
     ethr =  1.14E-08,  avg # of iterations =  1.0

     negative rho (up, down):  3.197E-05 1.012E-03

     total cpu time spent up to now is      578.0 secs

     total energy              =    -988.07620717 Ry
     estimated scf accuracy    <       0.00003340 Ry

     total magnetization       =     3.73 Bohr mag/cell
     absolute magnetization    =     4.07 Bohr mag/cell

     End of self-consistent calculation

     convergence NOT achieved after  80 iterations: stopping

     Writing config to output data dir ./out/aiida.save/
 
     init_run     :     25.52s CPU      4.44s WALL (       1 calls)
     electrons    :   1285.74s CPU    572.61s WALL (       1 calls)

     Called by init_run:
     wfcinit      :      0.35s CPU      0.36s WALL (       1 calls)
                                        0.36s GPU  (       1 calls)
     potinit      :     11.48s CPU      1.21s WALL (       1 calls)
     hinit0       :      8.04s CPU      2.01s WALL (       1 calls)

     Called by electrons:
     c_bands      :    473.72s CPU    437.69s WALL (      81 calls)
     sum_band     :     60.43s CPU     66.40s WALL (      81 calls)
     v_of_rho     :     47.71s CPU      4.37s WALL (      81 calls)
     v_h          :      8.75s CPU      0.80s WALL (      81 calls)
     v_xc         :     38.95s CPU      3.57s WALL (      81 calls)
     newd         :     65.47s CPU      6.33s WALL (      81 calls)
                                        6.33s GPU  (      81 calls)
     PAW_pot      :    603.09s CPU     54.60s WALL (      81 calls)
     mix_rho      :     26.44s CPU      2.59s WALL (      81 calls)

     Called by c_bands:
     init_us_2    :     29.44s CPU     28.76s WALL (   27216 calls)
     init_us_2:gp :     28.92s CPU     28.30s WALL (   27216 calls)
     cegterg      :    418.40s CPU    383.96s WALL (   13608 calls)

     Called by sum_band:
     sum_band:wei :      0.50s CPU      0.51s WALL (      81 calls)
                                        0.51s GPU  (      81 calls)
     sum_band:loo :     49.62s CPU     55.33s WALL (      81 calls)
                                       55.33s GPU  (      81 calls)
     sum_band:buf :     10.80s CPU     12.13s WALL (   13608 calls)
                                       12.05s GPU  (   13608 calls)
     sum_band:ini :     12.26s CPU     13.89s WALL (   13608 calls)
                                       13.82s GPU  (   13608 calls)
     sum_band:cal :      0.36s CPU      2.33s WALL (   13608 calls)
                                        2.08s GPU  (   13608 calls)
     sum_band:bec :      2.37s CPU      2.80s WALL (   13608 calls)
                                        2.71s GPU  (   13608 calls)
     addusdens    :      7.76s CPU      7.97s WALL (      81 calls)
                                        7.97s GPU  (      81 calls)
     addusd:skk   :      0.02s CPU      0.02s WALL (     243 calls)
                                        0.02s GPU  (     243 calls)

     Called by *egterg:
     cdiaghg      :    179.94s CPU    173.16s WALL (   61711 calls)
                                      172.76s GPU  (   61711 calls)
     cegterg:over :     10.75s CPU      9.71s WALL (   48439 calls)
     cegterg:upda :     17.51s CPU     15.99s WALL (   48439 calls)
     cegterg:last :      5.41s CPU      5.01s WALL (   28957 calls)
     h_psi        :    173.40s CPU    153.22s WALL (   62047 calls)
                                      152.83s GPU  (   62047 calls)
     s_psi        :      6.15s CPU      9.32s WALL (   62047 calls)
                                        8.64s GPU  (   62047 calls)
     g_psi        :      0.39s CPU      1.30s WALL (   48439 calls)
                                        0.99s GPU  (   48439 calls)

     Called by h_psi:
     h_psi:calbec :      2.33s CPU      8.55s WALL (   62047 calls)
                                        8.16s GPU  (   62047 calls)
     vloc_psi     :    147.08s CPU    130.71s WALL (   62047 calls)
                                      130.32s GPU  (   62047 calls)
     add_vuspsi   :      7.67s CPU      9.77s WALL (   62047 calls)
                                        9.39s GPU  (   62047 calls)

     General routines
     calbec       :      1.94s CPU      1.78s WALL (   75655 calls)
     fft          :      2.76s CPU      0.64s WALL (    2025 calls)
                                        0.50s GPU  (    1863 calls)
     ffts         :      0.10s CPU      0.04s WALL (     324 calls)
                                        0.01s GPU  (     162 calls)
     fftw         :      6.40s CPU     94.69s WALL (  283704 calls)
                                       93.17s GPU  (  283704 calls)
     interpolate  :      6.11s CPU      0.55s WALL (     162 calls)
     davcio       :      0.51s CPU      0.69s WALL (     354 calls)
 
     Parallel routines

     PAW routines
     PAW_pot      :    603.09s CPU     54.60s WALL (      81 calls)
     PAW_symme    :      1.45s CPU      0.24s WALL (     161 calls)
 
     PWSCF        :  21m54.66s CPU   9m38.54s WALL

 
   This run was terminated on:  18:22:48  23Oct2023            

=------------------------------------------------------------------------------=
   JOB DONE.
=------------------------------------------------------------------------------=
