
     Program PWSCF v.7.2 starts on 23Oct2023 at 18:13:16 

     This program is part of the open-source Quantum ESPRESSO suite
     for quantum simulation of materials; please cite
         "P. Giannozzi et al., J. Phys.:Condens. Matter 21 395502 (2009);
         "P. Giannozzi et al., J. Phys.:Condens. Matter 29 465901 (2017);
         "P. Giannozzi et al., J. Chem. Phys. 152 154105 (2020);
          URL http://www.quantum-espresso.org", 
     in publications or presentations arising from this work. More details at
     http://www.quantum-espresso.org/quote

     Parallel version (MPI & OpenMP), running on      12 processor cores
     Number of MPI processes:                 1
     Threads/MPI process:                    12

     MPI processes distributed on     1 nodes
     60412 MiB available memory on the printing compute node when the environment starts
 
     Reading input from aiida.in

     Current dimensions of program PWSCF are:
     Max number of different atomic species (ntypx) = 10
     Max number of k-points (npk) =  40000
     Max angular momentum in pseudopotentials (lmaxx) =  4
     file O.pbesol-n-kjpaw_psl.0.1.UPF: wavefunction(s)  2P renormalized
     Message from routine setup:
     using ibrav=0 with symmetry is DISCOURAGED, use correct ibrav instead
 
     Subspace diagonalization in iterative solution of the eigenvalue problem:
     a serial algorithm will be used

 
     G-vector sticks info
     --------------------
     sticks:   dense  smooth     PW     G-vecs:    dense   smooth      PW
     Sum        7939    3979   1125               405079   143291   21515
 
     Using Slab Decomposition
 


     bravais-lattice index     =            0
     lattice parameter (alat)  =      17.2276  a.u.
     unit-cell volume          =    2281.5987 (a.u.)^3
     number of atoms/cell      =           15
     number of atomic types    =            4
     number of electrons       =       100.00
     number of Kohn-Sham states=           60
     kinetic-energy cutoff     =      60.0000  Ry
     charge density cutoff     =     480.0000  Ry
     scf convergence threshold =      3.0E-09
     mixing beta               =       0.2000
     number of iterations used =            8  plain     mixing
     Exchange-correlation= SLA  PW   PSX  PSC
                           (   1   4  10   8   0   0   0)

     GPU acceleration is ACTIVE.


     GPU used by master process:

        Device Number: 0
        Device name: Tesla P100-PCIE-16GB
        Compute capability : 60
        Ratio of single to double precision performance  : 2
        Memory Clock Rate (KHz): 715000
        Memory Bus Width (bits): 4096
        Peak Memory Bandwidth (GB/s): 732.16

     celldm(1)=  17.227629  celldm(2)=   0.000000  celldm(3)=   0.000000
     celldm(4)=   0.000000  celldm(5)=   0.000000  celldm(6)=   0.000000

     crystal axes: (cart. coord. in units of alat)
               a(1) = (   0.378436   0.218490   0.899471 )  
               a(2) = (  -0.378436   0.218490   0.899471 )  
               a(3) = (   0.000000  -0.436980   0.899471 )  

     reciprocal axes: (cart. coord. in units 2 pi/alat)
               b(1) = (  1.321227  0.762811  0.370588 )  
               b(2) = ( -1.321227  0.762811  0.370588 )  
               b(3) = ( -0.000000 -1.525622  0.370588 )  


     PseudoPot. # 1 for Cl read from file:
     ./pseudo/cl_pbesol_v1.4.uspp.F.UPF
     MD5 check sum: ed6bbcf06f19043c0df9f6394706ff8f
     Pseudo is Ultrasoft + core correction, Zval =  7.0
     Generated by new atomic code, or converted to UPF format
     Using radial grid of  909 points,  6 beta functions with: 
                l(1) =   0
                l(2) =   0
                l(3) =   1
                l(4) =   1
                l(5) =   2
                l(6) =   2
     Q(r) pseudized with  8 coefficients,  rinner =    1.300   1.300   1.300
                                                       1.300   1.300

     PseudoPot. # 2 for Ir read from file:
     ./pseudo/ir_pbesol_v1.2.uspp.F.UPF
     MD5 check sum: 965d8bb5733ec2587acb56a50491f36d
     Pseudo is Ultrasoft + core correction, Zval = 15.0
     Generated by new atomic code, or converted to UPF format
     Using radial grid of  983 points,  7 beta functions with: 
                l(1) =   0
                l(2) =   0
                l(3) =   1
                l(4) =   1
                l(5) =   1
                l(6) =   2
                l(7) =   2
     Q(r) pseudized with  8 coefficients,  rinner =    1.400   1.400   1.400
                                                       1.400   1.400

     PseudoPot. # 3 for N  read from file:
     ./pseudo/N.pbesol-theos.UPF
     MD5 check sum: 1b64827339d390a5a22afef3ff345c9d
     Pseudo is Ultrasoft + core correction, Zval =  5.0
     Generated using "atomic" code by A. Dal Corso  v.5.1
     Using radial grid of 1085 points,  4 beta functions with: 
                l(1) =   0
                l(2) =   0
                l(3) =   1
                l(4) =   1
     Q(r) pseudized with 0 coefficients 


     PseudoPot. # 4 for O  read from file:
     ./pseudo/O.pbesol-n-kjpaw_psl.0.1.UPF
     MD5 check sum: 81d73d1479e654e5638b0319f0d6c2c7
     Pseudo is Projector augmented-wave + core cor, Zval =  6.0
     Generated using "atomic" code by A. Dal Corso  v.6.0 svn rev. 13079
     Shape of augmentation charge: BESSEL
     Using radial grid of 1095 points,  4 beta functions with: 
                l(1) =   0
                l(2) =   0
                l(3) =   1
                l(4) =   1
     Q(r) pseudized with 0 coefficients 


     atomic species   valence    mass     pseudopotential
        Cl             7.00    35.45300     Cl( 1.00)
        Ir            15.00   192.21700     Ir( 1.00)
        N              5.00    14.00670     N ( 1.00)
        O              6.00    15.99940     O ( 1.00)

     Starting magnetic structure 
     atomic species   magnetization
        Cl           0.100
        Ir           0.333
        N            0.100
        O            0.100

      6 Sym. Ops. (no inversion) found


                                    s                        frac. trans.

      isym =  1     identity                                     

 cryst.   s( 1) = (     1          0          0      )
                  (     0          1          0      )
                  (     0          0          1      )

 cart.    s( 1) = (  1.0000000 -0.0000000 -0.0000000 )
                  (  0.0000000  1.0000000 -0.0000000 )
                  (  0.0000000  0.0000000  1.0000000 )


      isym =  2     120 deg rotation - cryst. axis [0,0,1]       

 cryst.   s( 2) = (     0          1          0      )
                  (     0          0          1      )
                  (     1          0          0      )

 cart.    s( 2) = ( -0.5000000 -0.8660254 -0.0000000 )
                  (  0.8660254 -0.5000000 -0.0000000 )
                  (  0.0000000 -0.0000000  1.0000000 )


      isym =  3     120 deg rotation - cryst. axis [0,0,-1]      

 cryst.   s( 3) = (     0          0          1      )
                  (     1          0          0      )
                  (     0          1          0      )

 cart.    s( 3) = ( -0.5000000  0.8660254 -0.0000000 )
                  ( -0.8660254 -0.5000000 -0.0000000 )
                  ( -0.0000000  0.0000000  1.0000000 )


      isym =  4     inv. 180 deg rotation - cart. axis [1,0,0]   

 cryst.   s( 4) = (     0          1          0      )
                  (     1          0          0      )
                  (     0          0          1      )

 cart.    s( 4) = ( -1.0000000 -0.0000000 -0.0000000 )
                  (  0.0000000  1.0000000 -0.0000000 )
                  ( -0.0000000  0.0000000  1.0000000 )


      isym =  5     inv. 180 deg rotation - cryst. axis [0,1,0]  

 cryst.   s( 5) = (     1          0          0      )
                  (     0          0          1      )
                  (     0          1          0      )

 cart.    s( 5) = (  0.5000000  0.8660254 -0.0000000 )
                  (  0.8660254 -0.5000000 -0.0000000 )
                  (  0.0000000  0.0000000  1.0000000 )


      isym =  6     inv. 180 deg rotation - cryst. axis [1,1,0]  

 cryst.   s( 6) = (     0          0          1      )
                  (     0          1          0      )
                  (     1          0          0      )

 cart.    s( 6) = (  0.5000000 -0.8660254 -0.0000000 )
                  ( -0.8660254 -0.5000000 -0.0000000 )
                  ( -0.0000000 -0.0000000  1.0000000 )


   Cartesian axes

     site n.     atom                  positions (alat units)
         1           Ir  tau(   1) = (  -0.0000000   0.0000000  -0.0000000  )
         2           N   tau(   2) = (  -0.0000000   0.4369803   0.7495293  )
         3           N   tau(   3) = (  -0.0000000   0.4369803   0.1499418  )
         4           N   tau(   4) = (   0.3784360   0.2184901   0.4496456  )
         5           N   tau(   5) = (  -0.0000000  -0.0000000   0.4498255  )
         6           N   tau(   6) = (  -0.0000000   0.4369803   0.4497355  )
         7           Cl  tau(   7) = (   0.3784360   0.4370240   0.7375663  )
         8           Cl  tau(   8) = (   0.1891802   0.1092232   0.7375663  )
         9           Cl  tau(   9) = (   0.5676919   0.1092232   0.7375663  )
        10           Cl  tau(  10) = (   0.3784360   0.4369366   0.1619048  )
        11           Cl  tau(  11) = (   0.1892558   0.1092669   0.1619048  )
        12           Cl  tau(  12) = (   0.5676162   0.1092669   0.1619048  )
        13           O   tau(  13) = (  -0.0000000   0.2796674   0.4497355  )
        14           O   tau(  14) = (   0.1362370   0.5156367   0.4497355  )
        15           O   tau(  15) = (  -0.1362370   0.5156367   0.4497355  )

   Crystallographic axes

     site n.     atom                  positions (cryst. coord.)
         1           Ir  tau(   1) = (  0.0000000  0.0000000  0.0000000  )
         2           N   tau(   2) = (  0.6111000  0.6111000 -0.3889000  )
         3           N   tau(   3) = (  0.3889000  0.3889000 -0.6111000  )
         4           N   tau(   4) = (  0.8333000 -0.1667000 -0.1667000  )
         5           N   tau(   5) = (  0.1667000  0.1667000  0.1667000  )
         6           N   tau(   6) = (  0.5000000  0.5000000 -0.5000000  )
         7           Cl  tau(   7) = (  1.1067000  0.1067000 -0.3934000  )
         8           Cl  tau(   8) = (  0.6066000  0.1067000  0.1067000  )
         9           Cl  tau(   9) = (  1.1067000 -0.3934000  0.1067000  )
        10           Cl  tau(  10) = (  0.8933000 -0.1067000 -0.6066000  )
        11           Cl  tau(  11) = (  0.3934000 -0.1067000 -0.1067000  )
        12           Cl  tau(  12) = (  0.8933000 -0.6066000 -0.1067000  )
        13           O   tau(  13) = (  0.3800000  0.3800000 -0.2600000  )
        14           O   tau(  14) = (  0.7400000  0.3800000 -0.6200000  )
        15           O   tau(  15) = (  0.3800000  0.7400000 -0.6200000  )

     number of k points=    65  Marzari-Vanderbilt smearing, width (Ry)=  0.0100
                       cart. coord. in units 2pi/alat
        k(    1) = (   0.0000000   0.0000000   0.0000000), wk =   0.0019531
        k(    2) = (  -0.0000000  -0.1907027   0.0463235), wk =   0.0117188
        k(    3) = (  -0.0000000  -0.3814055   0.0926470), wk =   0.0117188
        k(    4) = (  -0.0000000  -0.5721082   0.1389706), wk =   0.0117188
        k(    5) = (   0.0000000   0.7628110  -0.1852941), wk =   0.0058594
        k(    6) = (  -0.1651534  -0.0953514   0.0926470), wk =   0.0117188
        k(    7) = (  -0.1651534  -0.2860541   0.1389706), wk =   0.0234375
        k(    8) = (  -0.1651534  -0.4767568   0.1852941), wk =   0.0234375
        k(    9) = (  -0.1651534   0.8581623  -0.1389706), wk =   0.0234375
        k(   10) = (  -0.1651534   0.6674596  -0.0926470), wk =   0.0234375
        k(   11) = (  -0.1651534   0.4767568  -0.0463235), wk =   0.0234375
        k(   12) = (  -0.1651534   0.2860541   0.0000000), wk =   0.0117188
        k(   13) = (  -0.3303068  -0.1907027   0.1852941), wk =   0.0117188
        k(   14) = (  -0.3303068  -0.3814055   0.2316176), wk =   0.0234375
        k(   15) = (  -0.3303068   0.9535137  -0.0926470), wk =   0.0234375
        k(   16) = (  -0.3303068   0.7628110  -0.0463235), wk =   0.0234375
        k(   17) = (  -0.3303068   0.5721082   0.0000000), wk =   0.0117188
        k(   18) = (  -0.4954603  -0.2860541   0.2779411), wk =   0.0117188
        k(   19) = (  -0.4954603   1.0488651  -0.0463235), wk =   0.0234375
        k(   20) = (  -0.4954603   0.8581623  -0.0000000), wk =   0.0117188
        k(   21) = (   0.6606137   0.3814055  -0.3705882), wk =   0.0058594
        k(   22) = (  -0.0000000   0.0000000   0.1389706), wk =   0.0039063
        k(   23) = (  -0.0000000  -0.1907027   0.1852941), wk =   0.0117188
        k(   24) = (  -0.0000000  -0.3814055   0.2316176), wk =   0.0117188
        k(   25) = (   0.0000000   0.9535137  -0.0926470), wk =   0.0117188
        k(   26) = (   0.0000000   0.7628110  -0.0463235), wk =   0.0117188
        k(   27) = (   0.0000000   0.5721082   0.0000000), wk =   0.0117188
        k(   28) = (   0.0000000   0.3814055   0.0463235), wk =   0.0117188
        k(   29) = (  -0.1651534  -0.0953514   0.2316176), wk =   0.0117188
        k(   30) = (  -0.1651534  -0.2860541   0.2779411), wk =   0.0234375
        k(   31) = (  -0.1651534   1.0488651  -0.0463235), wk =   0.0234375
        k(   32) = (  -0.1651534   0.8581623  -0.0000000), wk =   0.0234375
        k(   33) = (  -0.1651534   0.6674596   0.0463235), wk =   0.0234375
        k(   34) = (  -0.1651534   0.4767568   0.0926470), wk =   0.0234375
        k(   35) = (  -0.3303068  -0.1907027   0.3242646), wk =   0.0117188
        k(   36) = (  -0.3303068   1.1442164   0.0000000), wk =   0.0234375
        k(   37) = (  -0.3303068   0.9535137   0.0463235), wk =   0.0234375
        k(   38) = (  -0.3303068   0.7628110   0.0926470), wk =   0.0234375
        k(   39) = (  -0.3303068   0.5721082   0.1389706), wk =   0.0234375
        k(   40) = (   0.8257671   0.4767568  -0.3242646), wk =   0.0117188
        k(   41) = (   0.8257671   0.2860541  -0.2779411), wk =   0.0234375
        k(   42) = (   0.8257671   0.0953514  -0.2316176), wk =   0.0234375
        k(   43) = (   0.8257671  -0.0953514  -0.1852941), wk =   0.0117188
        k(   44) = (   0.6606137   0.3814055  -0.2316176), wk =   0.0117188
        k(   45) = (   0.6606137   0.1907027  -0.1852941), wk =   0.0234375
        k(   46) = (   0.4954603   0.2860541  -0.1389706), wk =   0.0117188
        k(   47) = (  -0.0000000   0.0000000   0.2779411), wk =   0.0039063
        k(   48) = (  -0.0000000  -0.1907027   0.3242646), wk =   0.0117188
        k(   49) = (   0.0000000   1.1442164   0.0000000), wk =   0.0117188
        k(   50) = (   0.0000000   0.9535137   0.0463235), wk =   0.0117188
        k(   51) = (   0.0000000   0.7628110   0.0926470), wk =   0.0117188
        k(   52) = (  -0.1651534  -0.0953514   0.3705882), wk =   0.0117188
        k(   53) = (  -0.1651534   1.2395678   0.0463235), wk =   0.0234375
        k(   54) = (  -0.1651534   1.0488651   0.0926470), wk =   0.0234375
        k(   55) = (  -0.1651534   0.8581623   0.1389706), wk =   0.0234375
        k(   56) = (   0.9909205   0.5721082  -0.2779411), wk =   0.0117188
        k(   57) = (   0.9909205   0.3814055  -0.2316176), wk =   0.0234375
        k(   58) = (   0.9909205   0.1907027  -0.1852941), wk =   0.0117188
        k(   59) = (   0.8257671   0.4767568  -0.1852941), wk =   0.0117188
        k(   60) = (  -0.0000000   0.0000000   0.4169117), wk =   0.0039063
        k(   61) = (  -0.0000000   1.3349192   0.0926470), wk =   0.0117188
        k(   62) = (  -0.0000000   1.1442164   0.1389706), wk =   0.0117188
        k(   63) = (   1.1560739   0.6674596  -0.2316176), wk =   0.0117188
        k(   64) = (   1.1560739   0.4767568  -0.1852941), wk =   0.0117188
        k(   65) = (   0.0000000   0.0000000  -0.5558822), wk =   0.0019531

                       cryst. coord.
        k(    1) = (   0.0000000   0.0000000   0.0000000), wk =   0.0019531
        k(    2) = (   0.0000000   0.0000000   0.1250000), wk =   0.0117188
        k(    3) = (   0.0000000   0.0000000   0.2500000), wk =   0.0117188
        k(    4) = (  -0.0000000   0.0000000   0.3750000), wk =   0.0117188
        k(    5) = (  -0.0000000  -0.0000000  -0.5000000), wk =   0.0058594
        k(    6) = (   0.0000000   0.1250000   0.1250000), wk =   0.0117188
        k(    7) = (  -0.0000000   0.1250000   0.2500000), wk =   0.0234375
        k(    8) = (   0.0000000   0.1250000   0.3750000), wk =   0.0234375
        k(    9) = (  -0.0000000   0.1250000  -0.5000000), wk =   0.0234375
        k(   10) = (   0.0000000   0.1250000  -0.3750000), wk =   0.0234375
        k(   11) = (  -0.0000000   0.1250000  -0.2500000), wk =   0.0234375
        k(   12) = (  -0.0000000   0.1250000  -0.1250000), wk =   0.0117188
        k(   13) = (   0.0000000   0.2500000   0.2500000), wk =   0.0117188
        k(   14) = (  -0.0000000   0.2500000   0.3750000), wk =   0.0234375
        k(   15) = (  -0.0000000   0.2500000  -0.5000000), wk =   0.0234375
        k(   16) = (  -0.0000000   0.2500000  -0.3750000), wk =   0.0234375
        k(   17) = (  -0.0000000   0.2500000  -0.2500000), wk =   0.0117188
        k(   18) = (  -0.0000000   0.3750000   0.3750000), wk =   0.0117188
        k(   19) = (  -0.0000000   0.3750000  -0.5000000), wk =   0.0234375
        k(   20) = (  -0.0000000   0.3750000  -0.3750000), wk =   0.0117188
        k(   21) = (  -0.0000000  -0.5000000  -0.5000000), wk =   0.0058594
        k(   22) = (   0.1250000   0.1250000   0.1250000), wk =   0.0039063
        k(   23) = (   0.1250000   0.1250000   0.2500000), wk =   0.0117188
        k(   24) = (   0.1250000   0.1250000   0.3750000), wk =   0.0117188
        k(   25) = (   0.1250000   0.1250000  -0.5000000), wk =   0.0117188
        k(   26) = (   0.1250000   0.1250000  -0.3750000), wk =   0.0117188
        k(   27) = (   0.1250000   0.1250000  -0.2500000), wk =   0.0117188
        k(   28) = (   0.1250000   0.1250000  -0.1250000), wk =   0.0117188
        k(   29) = (   0.1250000   0.2500000   0.2500000), wk =   0.0117188
        k(   30) = (   0.1250000   0.2500000   0.3750000), wk =   0.0234375
        k(   31) = (   0.1250000   0.2500000  -0.5000000), wk =   0.0234375
        k(   32) = (   0.1250000   0.2500000  -0.3750000), wk =   0.0234375
        k(   33) = (   0.1250000   0.2500000  -0.2500000), wk =   0.0234375
        k(   34) = (   0.1250000   0.2500000  -0.1250000), wk =   0.0234375
        k(   35) = (   0.1250000   0.3750000   0.3750000), wk =   0.0117188
        k(   36) = (   0.1250000   0.3750000  -0.5000000), wk =   0.0234375
        k(   37) = (   0.1250000   0.3750000  -0.3750000), wk =   0.0234375
        k(   38) = (   0.1250000   0.3750000  -0.2500000), wk =   0.0234375
        k(   39) = (   0.1250000   0.3750000  -0.1250000), wk =   0.0234375
        k(   40) = (   0.1250000  -0.5000000  -0.5000000), wk =   0.0117188
        k(   41) = (   0.1250000  -0.5000000  -0.3750000), wk =   0.0234375
        k(   42) = (   0.1250000  -0.5000000  -0.2500000), wk =   0.0234375
        k(   43) = (   0.1250000  -0.5000000  -0.1250000), wk =   0.0117188
        k(   44) = (   0.1250000  -0.3750000  -0.3750000), wk =   0.0117188
        k(   45) = (   0.1250000  -0.3750000  -0.2500000), wk =   0.0234375
        k(   46) = (   0.1250000  -0.2500000  -0.2500000), wk =   0.0117188
        k(   47) = (   0.2500000   0.2500000   0.2500000), wk =   0.0039063
        k(   48) = (   0.2500000   0.2500000   0.3750000), wk =   0.0117188
        k(   49) = (   0.2500000   0.2500000  -0.5000000), wk =   0.0117188
        k(   50) = (   0.2500000   0.2500000  -0.3750000), wk =   0.0117188
        k(   51) = (   0.2500000   0.2500000  -0.2500000), wk =   0.0117188
        k(   52) = (   0.2500000   0.3750000   0.3750000), wk =   0.0117188
        k(   53) = (   0.2500000   0.3750000  -0.5000000), wk =   0.0234375
        k(   54) = (   0.2500000   0.3750000  -0.3750000), wk =   0.0234375
        k(   55) = (   0.2500000   0.3750000  -0.2500000), wk =   0.0234375
        k(   56) = (   0.2500000  -0.5000000  -0.5000000), wk =   0.0117188
        k(   57) = (   0.2500000  -0.5000000  -0.3750000), wk =   0.0234375
        k(   58) = (   0.2500000  -0.5000000  -0.2500000), wk =   0.0117188
        k(   59) = (   0.2500000  -0.3750000  -0.3750000), wk =   0.0117188
        k(   60) = (   0.3750000   0.3750000   0.3750000), wk =   0.0039063
        k(   61) = (   0.3750000   0.3750000  -0.5000000), wk =   0.0117188
        k(   62) = (   0.3750000   0.3750000  -0.3750000), wk =   0.0117188
        k(   63) = (   0.3750000  -0.5000000  -0.5000000), wk =   0.0117188
        k(   64) = (   0.3750000  -0.5000000  -0.3750000), wk =   0.0117188
        k(   65) = (  -0.5000000  -0.5000000  -0.5000000), wk =   0.0019531

     Dense  grid:   405079 G-vectors     FFT dimensions: ( 125, 125, 125)

     Smooth grid:   143291 G-vectors     FFT dimensions: (  90,  90,  90)

     Dynamical RAM for                 wfc:      16.39 MB

     Dynamical RAM for     wfc (w. buffer):    2147.66 MB

     Dynamical RAM for           str. fact:      24.72 MB

     Dynamical RAM for           local pot:       0.00 MB

     Dynamical RAM for          nlocal pot:      52.74 MB

     Dynamical RAM for                qrad:       9.37 MB

     Dynamical RAM for          rho,v,vnew:     126.49 MB

     Dynamical RAM for               rhoin:      42.16 MB

     Dynamical RAM for            rho*nmix:     197.79 MB

     Dynamical RAM for           G-vectors:      24.27 MB

     Dynamical RAM for          h,s,v(r/c):       0.66 MB

     Dynamical RAM for          <psi|beta>:       0.18 MB

     Dynamical RAM for                 psi:      32.79 MB

     Dynamical RAM for                hpsi:      32.79 MB

     Dynamical RAM for                spsi:      32.79 MB

     Dynamical RAM for      wfcinit/wfcrot:      32.87 MB

     Dynamical RAM for           addusdens:    1563.80 MB

     Dynamical RAM for          addusforce:    1625.67 MB

     Dynamical RAM for         addusstress:    1622.52 MB

     Estimated static dynamical RAM per process >       2.49 GB

     Estimated max dynamical RAM per process >       4.27 GB

     Atomic positions and unit cell read from directory:
     ./out/aiida.save/
 
     Generating pointlists ...
     new r_m :   0.1122 (alat units)  1.9328 (a.u.) for type    1
     new r_m :   0.1122 (alat units)  1.9328 (a.u.) for type    2
     new r_m :   0.0649 (alat units)  1.1179 (a.u.) for type    3
     new r_m :   0.0649 (alat units)  1.1179 (a.u.) for type    4

     The initial density is read from file :
     ./out/aiida.save/charge-density


     negative rho (up, down):  2.277E-01 1.785E-01
     Starting wfcs from file
     Checking if some PAW data can be deallocated... 

     total cpu time spent up to now is        7.0 secs

     per-process dynamical memory:   723.9 Mb

     Self-consistent Calculation
[tb_dev] Currently allocated     1.14E-04 Mbytes, locked:    0 /   2
[tb_pin] Currently allocated     0.00E+00 Mbytes, locked:    0 /   0

     iteration #  1     ecut=    60.00 Ry     beta= 0.20
     Davidson diagonalization with overlap

---- Real-time Memory Report at c_bands before calling an iterative solver
           929 MiB given to the printing process from OS
           747 MiB allocation reported by mallinfo(arena+hblkhd)
         58649 MiB available memory on the node where the printing process lives
     GPU memory used/free/total (MiB): 2020 / 14260 / 16280
------------------
     ethr =  1.00E-05,  avg # of iterations =  2.2

     negative rho (up, down):  2.271E-01 1.788E-01

     total cpu time spent up to now is       29.2 secs

     total energy              =    -602.90329716 Ry
     estimated scf accuracy    <       0.00141630 Ry

     total magnetization       =    15.04 Bohr mag/cell
     absolute magnetization    =    15.25 Bohr mag/cell
[tb_dev] Currently allocated     5.07E+00 Mbytes, locked:    0 /   6
[tb_pin] Currently allocated     0.00E+00 Mbytes, locked:    0 /   0

     iteration #  2     ecut=    60.00 Ry     beta= 0.20
     Davidson diagonalization with overlap

---- Real-time Memory Report at c_bands before calling an iterative solver
          3574 MiB given to the printing process from OS
          -813 MiB allocation reported by mallinfo(arena+hblkhd)
         53308 MiB available memory on the node where the printing process lives
     GPU memory used/free/total (MiB): 6496 / 9784 / 16280
------------------
     ethr =  1.42E-06,  avg # of iterations =  1.6

     negative rho (up, down):  2.270E-01 1.791E-01

     total cpu time spent up to now is       45.3 secs

     total energy              =    -602.90356242 Ry
     estimated scf accuracy    <       0.00513266 Ry

     total magnetization       =    14.85 Bohr mag/cell
     absolute magnetization    =    15.06 Bohr mag/cell
[tb_dev] Currently allocated     5.07E+00 Mbytes, locked:    0 /   6
[tb_pin] Currently allocated     0.00E+00 Mbytes, locked:    0 /   0

     iteration #  3     ecut=    60.00 Ry     beta= 0.20
     Davidson diagonalization with overlap

---- Real-time Memory Report at c_bands before calling an iterative solver
          3652 MiB given to the printing process from OS
          -799 MiB allocation reported by mallinfo(arena+hblkhd)
         53295 MiB available memory on the node where the printing process lives
     GPU memory used/free/total (MiB): 6532 / 9748 / 16280
------------------
     ethr =  1.42E-06,  avg # of iterations =  1.3

     negative rho (up, down):  2.266E-01 1.795E-01

     total cpu time spent up to now is       60.7 secs

     total energy              =    -602.90389050 Ry
     estimated scf accuracy    <       0.00044516 Ry

     total magnetization       =    14.91 Bohr mag/cell
     absolute magnetization    =    15.12 Bohr mag/cell
[tb_dev] Currently allocated     5.07E+00 Mbytes, locked:    0 /   6
[tb_pin] Currently allocated     0.00E+00 Mbytes, locked:    0 /   0

     iteration #  4     ecut=    60.00 Ry     beta= 0.20
     Davidson diagonalization with overlap

---- Real-time Memory Report at c_bands before calling an iterative solver
          3743 MiB given to the printing process from OS
          -776 MiB allocation reported by mallinfo(arena+hblkhd)
         53275 MiB available memory on the node where the printing process lives
     GPU memory used/free/total (MiB): 6532 / 9748 / 16280
------------------
     ethr =  4.45E-07,  avg # of iterations =  1.1

     negative rho (up, down):  2.261E-01 1.800E-01

     total cpu time spent up to now is       76.2 secs

     total energy              =    -602.90404764 Ry
     estimated scf accuracy    <       0.00042100 Ry

     total magnetization       =    14.84 Bohr mag/cell
     absolute magnetization    =    15.05 Bohr mag/cell
[tb_dev] Currently allocated     5.07E+00 Mbytes, locked:    0 /   6
[tb_pin] Currently allocated     0.00E+00 Mbytes, locked:    0 /   0

     iteration #  5     ecut=    60.00 Ry     beta= 0.20
     Davidson diagonalization with overlap

---- Real-time Memory Report at c_bands before calling an iterative solver
          3823 MiB given to the printing process from OS
          -762 MiB allocation reported by mallinfo(arena+hblkhd)
         53260 MiB available memory on the node where the printing process lives
     GPU memory used/free/total (MiB): 6532 / 9748 / 16280
------------------
     ethr =  4.21E-07,  avg # of iterations =  1.1

     negative rho (up, down):  2.231E-01 1.831E-01

     total cpu time spent up to now is       91.4 secs

     total energy              =    -602.90434263 Ry
     estimated scf accuracy    <       0.00036139 Ry

     total magnetization       =    14.79 Bohr mag/cell
     absolute magnetization    =    14.99 Bohr mag/cell
[tb_dev] Currently allocated     5.07E+00 Mbytes, locked:    0 /   6
[tb_pin] Currently allocated     0.00E+00 Mbytes, locked:    0 /   0

     iteration #  6     ecut=    60.00 Ry     beta= 0.20
     Davidson diagonalization with overlap

---- Real-time Memory Report at c_bands before calling an iterative solver
          3902 MiB given to the printing process from OS
          -748 MiB allocation reported by mallinfo(arena+hblkhd)
         53247 MiB available memory on the node where the printing process lives
     GPU memory used/free/total (MiB): 6532 / 9748 / 16280
------------------
     ethr =  3.61E-07,  avg # of iterations =  3.3

     negative rho (up, down):  2.216E-01 1.845E-01

     total cpu time spent up to now is      111.3 secs

     total energy              =    -602.90499542 Ry
     estimated scf accuracy    <       0.00037493 Ry

     total magnetization       =    14.50 Bohr mag/cell
     absolute magnetization    =    14.68 Bohr mag/cell
[tb_dev] Currently allocated     5.07E+00 Mbytes, locked:    0 /   6
[tb_pin] Currently allocated     0.00E+00 Mbytes, locked:    0 /   0

     iteration #  7     ecut=    60.00 Ry     beta= 0.20
     Davidson diagonalization with overlap

---- Real-time Memory Report at c_bands before calling an iterative solver
          3981 MiB given to the printing process from OS
          -734 MiB allocation reported by mallinfo(arena+hblkhd)
         53233 MiB available memory on the node where the printing process lives
     GPU memory used/free/total (MiB): 6532 / 9748 / 16280
------------------
     ethr =  3.61E-07,  avg # of iterations =  1.8

     negative rho (up, down):  2.205E-01 1.857E-01

     total cpu time spent up to now is      128.2 secs

     total energy              =    -602.90527984 Ry
     estimated scf accuracy    <       0.00020091 Ry

     total magnetization       =    14.32 Bohr mag/cell
     absolute magnetization    =    14.49 Bohr mag/cell
[tb_dev] Currently allocated     5.07E+00 Mbytes, locked:    0 /   6
[tb_pin] Currently allocated     0.00E+00 Mbytes, locked:    0 /   0

     iteration #  8     ecut=    60.00 Ry     beta= 0.20
     Davidson diagonalization with overlap

---- Real-time Memory Report at c_bands before calling an iterative solver
          4061 MiB given to the printing process from OS
          -719 MiB allocation reported by mallinfo(arena+hblkhd)
         53221 MiB available memory on the node where the printing process lives
     GPU memory used/free/total (MiB): 6532 / 9748 / 16280
------------------
     ethr =  2.01E-07,  avg # of iterations =  2.4

     negative rho (up, down):  2.258E-01 1.803E-01

     total cpu time spent up to now is      145.4 secs

     total energy              =    -602.90240451 Ry
     estimated scf accuracy    <       0.00015204 Ry

     total magnetization       =    14.16 Bohr mag/cell
     absolute magnetization    =    14.33 Bohr mag/cell
[tb_dev] Currently allocated     5.07E+00 Mbytes, locked:    0 /   6
[tb_pin] Currently allocated     0.00E+00 Mbytes, locked:    0 /   0

     iteration #  9     ecut=    60.00 Ry     beta= 0.20
     Davidson diagonalization with overlap

---- Real-time Memory Report at c_bands before calling an iterative solver
          4118 MiB given to the printing process from OS
          -705 MiB allocation reported by mallinfo(arena+hblkhd)
         53206 MiB available memory on the node where the printing process lives
     GPU memory used/free/total (MiB): 6532 / 9748 / 16280
------------------
     ethr =  1.52E-07,  avg # of iterations =  4.1

     negative rho (up, down):  2.176E-01 1.886E-01

     total cpu time spent up to now is      167.4 secs

     total energy              =    -602.90204511 Ry
     estimated scf accuracy    <       0.00051107 Ry

     total magnetization       =    14.81 Bohr mag/cell
     absolute magnetization    =    15.01 Bohr mag/cell
[tb_dev] Currently allocated     5.07E+00 Mbytes, locked:    0 /   6
[tb_pin] Currently allocated     0.00E+00 Mbytes, locked:    0 /   0

     iteration # 10     ecut=    60.00 Ry     beta= 0.20
     Davidson diagonalization with overlap

---- Real-time Memory Report at c_bands before calling an iterative solver
          4161 MiB given to the printing process from OS
          -691 MiB allocation reported by mallinfo(arena+hblkhd)
         53192 MiB available memory on the node where the printing process lives
     GPU memory used/free/total (MiB): 6532 / 9748 / 16280
------------------
     ethr =  1.52E-07,  avg # of iterations =  4.9

     negative rho (up, down):  2.057E-01 2.009E-01

     total cpu time spent up to now is      192.7 secs

     total energy              =    -602.89984570 Ry
     estimated scf accuracy    <       0.00041267 Ry

     total magnetization       =    13.78 Bohr mag/cell
     absolute magnetization    =    13.92 Bohr mag/cell
[tb_dev] Currently allocated     5.07E+00 Mbytes, locked:    0 /   6
[tb_pin] Currently allocated     0.00E+00 Mbytes, locked:    0 /   0

     iteration # 11     ecut=    60.00 Ry     beta= 0.20
     Davidson diagonalization with overlap

---- Real-time Memory Report at c_bands before calling an iterative solver
          4194 MiB given to the printing process from OS
          -685 MiB allocation reported by mallinfo(arena+hblkhd)
         53187 MiB available memory on the node where the printing process lives
     GPU memory used/free/total (MiB): 6532 / 9748 / 16280
------------------
     ethr =  1.52E-07,  avg # of iterations =  7.2

     negative rho (up, down):  2.063E-01 2.002E-01

     total cpu time spent up to now is      223.3 secs

     total energy              =    -602.91137299 Ry
     estimated scf accuracy    <       0.01012468 Ry

     total magnetization       =    11.92 Bohr mag/cell
     absolute magnetization    =    12.62 Bohr mag/cell
[tb_dev] Currently allocated     5.07E+00 Mbytes, locked:    0 /   6
[tb_pin] Currently allocated     0.00E+00 Mbytes, locked:    0 /   0

     iteration # 12     ecut=    60.00 Ry     beta= 0.20
     Davidson diagonalization with overlap

---- Real-time Memory Report at c_bands before calling an iterative solver
          4221 MiB given to the printing process from OS
          -680 MiB allocation reported by mallinfo(arena+hblkhd)
         53180 MiB available memory on the node where the printing process lives
     GPU memory used/free/total (MiB): 6532 / 9748 / 16280
------------------
     ethr =  1.52E-07,  avg # of iterations =  1.0

     negative rho (up, down):  2.178E-01 1.884E-01

     total cpu time spent up to now is      238.6 secs

     total energy              =    -602.89407424 Ry
     estimated scf accuracy    <       0.00920565 Ry

     total magnetization       =    12.03 Bohr mag/cell
     absolute magnetization    =    12.57 Bohr mag/cell
[tb_dev] Currently allocated     5.07E+00 Mbytes, locked:    0 /   6
[tb_pin] Currently allocated     0.00E+00 Mbytes, locked:    0 /   0

     iteration # 13     ecut=    60.00 Ry     beta= 0.20
     Davidson diagonalization with overlap

---- Real-time Memory Report at c_bands before calling an iterative solver
          4252 MiB given to the printing process from OS
          -674 MiB allocation reported by mallinfo(arena+hblkhd)
         53175 MiB available memory on the node where the printing process lives
     GPU memory used/free/total (MiB): 6532 / 9748 / 16280
------------------
     ethr =  1.52E-07,  avg # of iterations =  6.5

     negative rho (up, down):  2.275E-01 1.787E-01

     total cpu time spent up to now is      267.1 secs

     total energy              =    -602.89756626 Ry
     estimated scf accuracy    <       0.00211247 Ry

     total magnetization       =    13.86 Bohr mag/cell
     absolute magnetization    =    14.00 Bohr mag/cell
[tb_dev] Currently allocated     5.07E+00 Mbytes, locked:    0 /   6
[tb_pin] Currently allocated     0.00E+00 Mbytes, locked:    0 /   0

     iteration # 14     ecut=    60.00 Ry     beta= 0.20
     Davidson diagonalization with overlap

---- Real-time Memory Report at c_bands before calling an iterative solver
          4277 MiB given to the printing process from OS
          -669 MiB allocation reported by mallinfo(arena+hblkhd)
         53167 MiB available memory on the node where the printing process lives
     GPU memory used/free/total (MiB): 6532 / 9748 / 16280
------------------
     ethr =  1.52E-07,  avg # of iterations =  6.6

     negative rho (up, down):  2.293E-01 1.769E-01

     total cpu time spent up to now is      295.4 secs

     total energy              =    -602.90296401 Ry
     estimated scf accuracy    <       0.00195295 Ry

     total magnetization       =    15.03 Bohr mag/cell
     absolute magnetization    =    15.23 Bohr mag/cell
[tb_dev] Currently allocated     5.07E+00 Mbytes, locked:    0 /   6
[tb_pin] Currently allocated     0.00E+00 Mbytes, locked:    0 /   0

     iteration # 15     ecut=    60.00 Ry     beta= 0.20
     Davidson diagonalization with overlap

---- Real-time Memory Report at c_bands before calling an iterative solver
          4303 MiB given to the printing process from OS
          -663 MiB allocation reported by mallinfo(arena+hblkhd)
         53162 MiB available memory on the node where the printing process lives
     GPU memory used/free/total (MiB): 6532 / 9748 / 16280
------------------
     ethr =  1.52E-07,  avg # of iterations =  2.1

     negative rho (up, down):  2.273E-01 1.789E-01

     total cpu time spent up to now is      313.5 secs

     total energy              =    -602.90361726 Ry
     estimated scf accuracy    <       0.00323970 Ry

     total magnetization       =    15.21 Bohr mag/cell
     absolute magnetization    =    15.43 Bohr mag/cell
[tb_dev] Currently allocated     5.07E+00 Mbytes, locked:    0 /   6
[tb_pin] Currently allocated     0.00E+00 Mbytes, locked:    0 /   0

     iteration # 16     ecut=    60.00 Ry     beta= 0.20
     Davidson diagonalization with overlap

---- Real-time Memory Report at c_bands before calling an iterative solver
          4330 MiB given to the printing process from OS
          -657 MiB allocation reported by mallinfo(arena+hblkhd)
         53157 MiB available memory on the node where the printing process lives
     GPU memory used/free/total (MiB): 6532 / 9748 / 16280
------------------
     ethr =  1.52E-07,  avg # of iterations =  2.0

     negative rho (up, down):  2.261E-01 1.801E-01

     total cpu time spent up to now is      330.6 secs

     total energy              =    -602.90407053 Ry
     estimated scf accuracy    <       0.00175347 Ry

     total magnetization       =    15.00 Bohr mag/cell
     absolute magnetization    =    15.21 Bohr mag/cell
[tb_dev] Currently allocated     5.07E+00 Mbytes, locked:    0 /   6
[tb_pin] Currently allocated     0.00E+00 Mbytes, locked:    0 /   0

     iteration # 17     ecut=    60.00 Ry     beta= 0.20
     Davidson diagonalization with overlap

---- Real-time Memory Report at c_bands before calling an iterative solver
          4354 MiB given to the printing process from OS
          -652 MiB allocation reported by mallinfo(arena+hblkhd)
         53154 MiB available memory on the node where the printing process lives
     GPU memory used/free/total (MiB): 6532 / 9748 / 16280
------------------
     ethr =  1.52E-07,  avg # of iterations =  2.0

     negative rho (up, down):  2.220E-01 1.842E-01

     total cpu time spent up to now is      346.9 secs

     total energy              =    -602.90418529 Ry
     estimated scf accuracy    <       0.00120058 Ry

     total magnetization       =    14.87 Bohr mag/cell
     absolute magnetization    =    15.07 Bohr mag/cell
[tb_dev] Currently allocated     5.07E+00 Mbytes, locked:    0 /   6
[tb_pin] Currently allocated     0.00E+00 Mbytes, locked:    0 /   0

     iteration # 18     ecut=    60.00 Ry     beta= 0.20
     Davidson diagonalization with overlap

---- Real-time Memory Report at c_bands before calling an iterative solver
          4364 MiB given to the printing process from OS
          -646 MiB allocation reported by mallinfo(arena+hblkhd)
         53150 MiB available memory on the node where the printing process lives
     GPU memory used/free/total (MiB): 6532 / 9748 / 16280
------------------
     ethr =  1.52E-07,  avg # of iterations =  4.2

     negative rho (up, down):  2.199E-01 1.862E-01

     total cpu time spent up to now is      368.7 secs

     total energy              =    -602.90524001 Ry
     estimated scf accuracy    <       0.00059312 Ry

     total magnetization       =    14.40 Bohr mag/cell
     absolute magnetization    =    14.57 Bohr mag/cell
[tb_dev] Currently allocated     5.07E+00 Mbytes, locked:    0 /   6
[tb_pin] Currently allocated     0.00E+00 Mbytes, locked:    0 /   0

     iteration # 19     ecut=    60.00 Ry     beta= 0.20
     Davidson diagonalization with overlap

---- Real-time Memory Report at c_bands before calling an iterative solver
          4375 MiB given to the printing process from OS
          -641 MiB allocation reported by mallinfo(arena+hblkhd)
         53144 MiB available memory on the node where the printing process lives
     GPU memory used/free/total (MiB): 6532 / 9748 / 16280
------------------
     ethr =  1.52E-07,  avg # of iterations =  2.6

     negative rho (up, down):  2.174E-01 1.887E-01

     total cpu time spent up to now is      387.7 secs

     total energy              =    -602.90564534 Ry
     estimated scf accuracy    <       0.00056540 Ry

     total magnetization       =    14.13 Bohr mag/cell
     absolute magnetization    =    14.28 Bohr mag/cell
[tb_dev] Currently allocated     5.07E+00 Mbytes, locked:    0 /   6
[tb_pin] Currently allocated     0.00E+00 Mbytes, locked:    0 /   0

     iteration # 20     ecut=    60.00 Ry     beta= 0.20
     Davidson diagonalization with overlap

---- Real-time Memory Report at c_bands before calling an iterative solver
          4389 MiB given to the printing process from OS
          -635 MiB allocation reported by mallinfo(arena+hblkhd)
         53137 MiB available memory on the node where the printing process lives
     GPU memory used/free/total (MiB): 6532 / 9748 / 16280
------------------
     ethr =  1.52E-07,  avg # of iterations =  3.3

     negative rho (up, down):  2.195E-01 1.866E-01

     total cpu time spent up to now is      408.2 secs

     total energy              =    -602.90530060 Ry
     estimated scf accuracy    <       0.00063534 Ry

     total magnetization       =    13.78 Bohr mag/cell
     absolute magnetization    =    13.92 Bohr mag/cell
[tb_dev] Currently allocated     5.07E+00 Mbytes, locked:    0 /   6
[tb_pin] Currently allocated     0.00E+00 Mbytes, locked:    0 /   0

     iteration # 21     ecut=    60.00 Ry     beta= 0.20
     Davidson diagonalization with overlap

---- Real-time Memory Report at c_bands before calling an iterative solver
          4399 MiB given to the printing process from OS
          -630 MiB allocation reported by mallinfo(arena+hblkhd)
         53134 MiB available memory on the node where the printing process lives
     GPU memory used/free/total (MiB): 6532 / 9748 / 16280
------------------
     ethr =  1.52E-07,  avg # of iterations =  2.3

     negative rho (up, down):  2.164E-01 1.898E-01

     total cpu time spent up to now is      426.2 secs

     total energy              =    -602.90565678 Ry
     estimated scf accuracy    <       0.00055541 Ry

     total magnetization       =    14.07 Bohr mag/cell
     absolute magnetization    =    14.22 Bohr mag/cell
[tb_dev] Currently allocated     5.07E+00 Mbytes, locked:    0 /   6
[tb_pin] Currently allocated     0.00E+00 Mbytes, locked:    0 /   0

     iteration # 22     ecut=    60.00 Ry     beta= 0.20
     Davidson diagonalization with overlap

---- Real-time Memory Report at c_bands before calling an iterative solver
          4409 MiB given to the printing process from OS
          -624 MiB allocation reported by mallinfo(arena+hblkhd)
         53129 MiB available memory on the node where the printing process lives
     GPU memory used/free/total (MiB): 6532 / 9748 / 16280
------------------
     ethr =  1.52E-07,  avg # of iterations =  2.5

     negative rho (up, down):  2.180E-01 1.881E-01

     total cpu time spent up to now is      445.6 secs

     total energy              =    -602.90573932 Ry
     estimated scf accuracy    <       0.00070147 Ry

     total magnetization       =    13.63 Bohr mag/cell
     absolute magnetization    =    13.76 Bohr mag/cell
[tb_dev] Currently allocated     5.07E+00 Mbytes, locked:    0 /   6
[tb_pin] Currently allocated     0.00E+00 Mbytes, locked:    0 /   0

     iteration # 23     ecut=    60.00 Ry     beta= 0.20
     Davidson diagonalization with overlap

---- Real-time Memory Report at c_bands before calling an iterative solver
          4416 MiB given to the printing process from OS
          -619 MiB allocation reported by mallinfo(arena+hblkhd)
         53122 MiB available memory on the node where the printing process lives
     GPU memory used/free/total (MiB): 6532 / 9748 / 16280
------------------
     ethr =  1.52E-07,  avg # of iterations =  2.0

     negative rho (up, down):  2.167E-01 1.895E-01

     total cpu time spent up to now is      462.6 secs

     total energy              =    -602.90613990 Ry
     estimated scf accuracy    <       0.00064693 Ry

     total magnetization       =    13.86 Bohr mag/cell
     absolute magnetization    =    14.01 Bohr mag/cell
[tb_dev] Currently allocated     5.07E+00 Mbytes, locked:    0 /   6
[tb_pin] Currently allocated     0.00E+00 Mbytes, locked:    0 /   0

     iteration # 24     ecut=    60.00 Ry     beta= 0.20
     Davidson diagonalization with overlap

---- Real-time Memory Report at c_bands before calling an iterative solver
          4422 MiB given to the printing process from OS
          -613 MiB allocation reported by mallinfo(arena+hblkhd)
         53114 MiB available memory on the node where the printing process lives
     GPU memory used/free/total (MiB): 6532 / 9748 / 16280
------------------
     ethr =  1.52E-07,  avg # of iterations =  2.0

     negative rho (up, down):  2.139E-01 1.924E-01

     total cpu time spent up to now is      479.3 secs

     total energy              =    -602.90650794 Ry
     estimated scf accuracy    <       0.00073374 Ry

     total magnetization       =    13.67 Bohr mag/cell
     absolute magnetization    =    13.80 Bohr mag/cell
[tb_dev] Currently allocated     5.07E+00 Mbytes, locked:    0 /   6
[tb_pin] Currently allocated     0.00E+00 Mbytes, locked:    0 /   0

     iteration # 25     ecut=    60.00 Ry     beta= 0.20
     Davidson diagonalization with overlap

---- Real-time Memory Report at c_bands before calling an iterative solver
          4427 MiB given to the printing process from OS
          -608 MiB allocation reported by mallinfo(arena+hblkhd)
         53111 MiB available memory on the node where the printing process lives
     GPU memory used/free/total (MiB): 6532 / 9748 / 16280
------------------
     ethr =  1.52E-07,  avg # of iterations =  2.9

     negative rho (up, down):  2.201E-01 1.860E-01

     total cpu time spent up to now is      500.1 secs

     total energy              =    -602.90237055 Ry
     estimated scf accuracy    <       0.00154131 Ry

     total magnetization       =    13.24 Bohr mag/cell
     absolute magnetization    =    13.35 Bohr mag/cell
[tb_dev] Currently allocated     5.07E+00 Mbytes, locked:    0 /   6
[tb_pin] Currently allocated     0.00E+00 Mbytes, locked:    0 /   0

     iteration # 26     ecut=    60.00 Ry     beta= 0.20
     Davidson diagonalization with overlap

---- Real-time Memory Report at c_bands before calling an iterative solver
          4433 MiB given to the printing process from OS
          -602 MiB allocation reported by mallinfo(arena+hblkhd)
         53108 MiB available memory on the node where the printing process lives
     GPU memory used/free/total (MiB): 6532 / 9748 / 16280
------------------
     ethr =  1.52E-07,  avg # of iterations =  4.0

     negative rho (up, down):  2.241E-01 1.821E-01

     total cpu time spent up to now is      523.0 secs

     total energy              =    -602.90359065 Ry
     estimated scf accuracy    <       0.00059987 Ry

     total magnetization       =    14.15 Bohr mag/cell
     absolute magnetization    =    14.31 Bohr mag/cell
[tb_dev] Currently allocated     5.07E+00 Mbytes, locked:    0 /   6
[tb_pin] Currently allocated     0.00E+00 Mbytes, locked:    0 /   0

     iteration # 27     ecut=    60.00 Ry     beta= 0.20
     Davidson diagonalization with overlap

---- Real-time Memory Report at c_bands before calling an iterative solver
          4438 MiB given to the printing process from OS
          -597 MiB allocation reported by mallinfo(arena+hblkhd)
         53102 MiB available memory on the node where the printing process lives
     GPU memory used/free/total (MiB): 6532 / 9748 / 16280
------------------
     ethr =  1.52E-07,  avg # of iterations =  4.1

     negative rho (up, down):  2.283E-01 1.779E-01

     total cpu time spent up to now is      544.6 secs

     total energy              =    -602.90247384 Ry
     estimated scf accuracy    <       0.00086229 Ry

     total magnetization       =    14.65 Bohr mag/cell
     absolute magnetization    =    14.83 Bohr mag/cell
[tb_dev] Currently allocated     5.07E+00 Mbytes, locked:    0 /   6
[tb_pin] Currently allocated     0.00E+00 Mbytes, locked:    0 /   0

     iteration # 28     ecut=    60.00 Ry     beta= 0.20
     Davidson diagonalization with overlap

---- Real-time Memory Report at c_bands before calling an iterative solver
          4444 MiB given to the printing process from OS
          -591 MiB allocation reported by mallinfo(arena+hblkhd)
         53093 MiB available memory on the node where the printing process lives
     GPU memory used/free/total (MiB): 6532 / 9748 / 16280
------------------
     ethr =  1.52E-07,  avg # of iterations =  4.5

     negative rho (up, down):  2.288E-01 1.774E-01

     total cpu time spent up to now is      567.3 secs

     total energy              =    -602.90322993 Ry
     estimated scf accuracy    <       0.00159029 Ry

     total magnetization       =    15.10 Bohr mag/cell
     absolute magnetization    =    15.31 Bohr mag/cell
[tb_dev] Currently allocated     5.07E+00 Mbytes, locked:    0 /   6
[tb_pin] Currently allocated     0.00E+00 Mbytes, locked:    0 /   0

     iteration # 29     ecut=    60.00 Ry     beta= 0.20
     Davidson diagonalization with overlap

---- Real-time Memory Report at c_bands before calling an iterative solver
          4449 MiB given to the printing process from OS
          -586 MiB allocation reported by mallinfo(arena+hblkhd)
         53090 MiB available memory on the node where the printing process lives
     GPU memory used/free/total (MiB): 6532 / 9748 / 16280
------------------
     ethr =  1.52E-07,  avg # of iterations =  1.3

     negative rho (up, down):  2.300E-01 1.762E-01

     total cpu time spent up to now is      582.9 secs

     total energy              =    -602.90267573 Ry
     estimated scf accuracy    <       0.00175368 Ry

     total magnetization       =    15.14 Bohr mag/cell
     absolute magnetization    =    15.35 Bohr mag/cell
[tb_dev] Currently allocated     5.07E+00 Mbytes, locked:    0 /   6
[tb_pin] Currently allocated     0.00E+00 Mbytes, locked:    0 /   0

     iteration # 30     ecut=    60.00 Ry     beta= 0.20
     Davidson diagonalization with overlap

---- Real-time Memory Report at c_bands before calling an iterative solver
          4454 MiB given to the printing process from OS
          -580 MiB allocation reported by mallinfo(arena+hblkhd)
         53086 MiB available memory on the node where the printing process lives
     GPU memory used/free/total (MiB): 6532 / 9748 / 16280
------------------
     ethr =  1.52E-07,  avg # of iterations =  2.0

     negative rho (up, down):  2.275E-01 1.787E-01

     total cpu time spent up to now is      599.7 secs

     total energy              =    -602.90342794 Ry
     estimated scf accuracy    <       0.00215993 Ry

     total magnetization       =    15.25 Bohr mag/cell
     absolute magnetization    =    15.48 Bohr mag/cell
[tb_dev] Currently allocated     5.07E+00 Mbytes, locked:    0 /   6
[tb_pin] Currently allocated     0.00E+00 Mbytes, locked:    0 /   0

     iteration # 31     ecut=    60.00 Ry     beta= 0.20
     Davidson diagonalization with overlap

---- Real-time Memory Report at c_bands before calling an iterative solver
          4460 MiB given to the printing process from OS
          -574 MiB allocation reported by mallinfo(arena+hblkhd)
         53080 MiB available memory on the node where the printing process lives
     GPU memory used/free/total (MiB): 6532 / 9748 / 16280
------------------
     ethr =  1.52E-07,  avg # of iterations =  2.4

     negative rho (up, down):  2.284E-01 1.778E-01

     total cpu time spent up to now is      618.4 secs

     total energy              =    -602.90335603 Ry
     estimated scf accuracy    <       0.00145975 Ry

     total magnetization       =    15.01 Bohr mag/cell
     absolute magnetization    =    15.22 Bohr mag/cell
[tb_dev] Currently allocated     5.07E+00 Mbytes, locked:    0 /   6
[tb_pin] Currently allocated     0.00E+00 Mbytes, locked:    0 /   0

     iteration # 32     ecut=    60.00 Ry     beta= 0.20
     Davidson diagonalization with overlap

---- Real-time Memory Report at c_bands before calling an iterative solver
          4469 MiB given to the printing process from OS
          -569 MiB allocation reported by mallinfo(arena+hblkhd)
         53070 MiB available memory on the node where the printing process lives
     GPU memory used/free/total (MiB): 6532 / 9748 / 16280
------------------
     ethr =  1.52E-07,  avg # of iterations =  1.5

     negative rho (up, down):  2.286E-01 1.777E-01

     total cpu time spent up to now is      634.3 secs

     total energy              =    -602.90331397 Ry
     estimated scf accuracy    <       0.00165606 Ry

     total magnetization       =    15.10 Bohr mag/cell
     absolute magnetization    =    15.32 Bohr mag/cell
[tb_dev] Currently allocated     5.07E+00 Mbytes, locked:    0 /   6
[tb_pin] Currently allocated     0.00E+00 Mbytes, locked:    0 /   0

     iteration # 33     ecut=    60.00 Ry     beta= 0.20
     Davidson diagonalization with overlap

---- Real-time Memory Report at c_bands before calling an iterative solver
          4475 MiB given to the printing process from OS
          -563 MiB allocation reported by mallinfo(arena+hblkhd)
         53069 MiB available memory on the node where the printing process lives
     GPU memory used/free/total (MiB): 6532 / 9748 / 16280
------------------
     ethr =  1.52E-07,  avg # of iterations =  1.0

     negative rho (up, down):  2.270E-01 1.792E-01

     total cpu time spent up to now is      649.5 secs

     total energy              =    -602.90373342 Ry
     estimated scf accuracy    <       0.00183347 Ry

     total magnetization       =    15.12 Bohr mag/cell
     absolute magnetization    =    15.34 Bohr mag/cell
[tb_dev] Currently allocated     5.07E+00 Mbytes, locked:    0 /   6
[tb_pin] Currently allocated     0.00E+00 Mbytes, locked:    0 /   0

     iteration # 34     ecut=    60.00 Ry     beta= 0.20
     Davidson diagonalization with overlap

---- Real-time Memory Report at c_bands before calling an iterative solver
          4481 MiB given to the printing process from OS
          -558 MiB allocation reported by mallinfo(arena+hblkhd)
         53061 MiB available memory on the node where the printing process lives
     GPU memory used/free/total (MiB): 6532 / 9748 / 16280
------------------
     ethr =  1.52E-07,  avg # of iterations =  2.0

     negative rho (up, down):  2.130E-01 1.933E-01

     total cpu time spent up to now is      666.2 secs

     total energy              =    -602.89525774 Ry
     estimated scf accuracy    <       0.00137927 Ry

     total magnetization       =    14.97 Bohr mag/cell
     absolute magnetization    =    15.17 Bohr mag/cell
[tb_dev] Currently allocated     5.07E+00 Mbytes, locked:    0 /   6
[tb_pin] Currently allocated     0.00E+00 Mbytes, locked:    0 /   0

     iteration # 35     ecut=    60.00 Ry     beta= 0.20
     Davidson diagonalization with overlap

---- Real-time Memory Report at c_bands before calling an iterative solver
          4486 MiB given to the printing process from OS
          -552 MiB allocation reported by mallinfo(arena+hblkhd)
         53058 MiB available memory on the node where the printing process lives
     GPU memory used/free/total (MiB): 6532 / 9748 / 16280
------------------
     ethr =  1.52E-07,  avg # of iterations =  6.2

     negative rho (up, down):  2.120E-01 1.942E-01

     total cpu time spent up to now is      696.2 secs

     total energy              =    -602.90779470 Ry
     estimated scf accuracy    <       0.00175204 Ry

     total magnetization       =    13.10 Bohr mag/cell
     absolute magnetization    =    13.20 Bohr mag/cell
[tb_dev] Currently allocated     5.07E+00 Mbytes, locked:    0 /   6
[tb_pin] Currently allocated     0.00E+00 Mbytes, locked:    0 /   0

     iteration # 36     ecut=    60.00 Ry     beta= 0.20
     Davidson diagonalization with overlap

---- Real-time Memory Report at c_bands before calling an iterative solver
          4492 MiB given to the printing process from OS
          -547 MiB allocation reported by mallinfo(arena+hblkhd)
         53048 MiB available memory on the node where the printing process lives
     GPU memory used/free/total (MiB): 6532 / 9748 / 16280
------------------
     ethr =  1.52E-07,  avg # of iterations =  2.0

     negative rho (up, down):  2.181E-01 1.880E-01

     total cpu time spent up to now is      713.1 secs

     total energy              =    -602.90277113 Ry
     estimated scf accuracy    <       0.00178740 Ry

     total magnetization       =    12.95 Bohr mag/cell
     absolute magnetization    =    13.05 Bohr mag/cell
[tb_dev] Currently allocated     5.07E+00 Mbytes, locked:    0 /   6
[tb_pin] Currently allocated     0.00E+00 Mbytes, locked:    0 /   0

     iteration # 37     ecut=    60.00 Ry     beta= 0.20
     Davidson diagonalization with overlap

---- Real-time Memory Report at c_bands before calling an iterative solver
          4497 MiB given to the printing process from OS
          -541 MiB allocation reported by mallinfo(arena+hblkhd)
         53047 MiB available memory on the node where the printing process lives
     GPU memory used/free/total (MiB): 6532 / 9748 / 16280
------------------
     ethr =  1.52E-07,  avg # of iterations =  4.4

     negative rho (up, down):  2.264E-01 1.798E-01

     total cpu time spent up to now is      736.4 secs

     total energy              =    -602.89944042 Ry
     estimated scf accuracy    <       0.00044767 Ry

     total magnetization       =    13.87 Bohr mag/cell
     absolute magnetization    =    14.01 Bohr mag/cell
[tb_dev] Currently allocated     5.07E+00 Mbytes, locked:    0 /   6
[tb_pin] Currently allocated     0.00E+00 Mbytes, locked:    0 /   0

     iteration # 38     ecut=    60.00 Ry     beta= 0.20
     Davidson diagonalization with overlap

---- Real-time Memory Report at c_bands before calling an iterative solver
          4503 MiB given to the printing process from OS
          -536 MiB allocation reported by mallinfo(arena+hblkhd)
         53040 MiB available memory on the node where the printing process lives
     GPU memory used/free/total (MiB): 6532 / 9748 / 16280
------------------
     ethr =  1.52E-07,  avg # of iterations =  5.9

     negative rho (up, down):  2.264E-01 1.797E-01

     total cpu time spent up to now is      762.9 secs

     total energy              =    -602.90401768 Ry
     estimated scf accuracy    <       0.00090746 Ry

     total magnetization       =    14.90 Bohr mag/cell
     absolute magnetization    =    15.10 Bohr mag/cell
[tb_dev] Currently allocated     5.07E+00 Mbytes, locked:    0 /   6
[tb_pin] Currently allocated     0.00E+00 Mbytes, locked:    0 /   0

     iteration # 39     ecut=    60.00 Ry     beta= 0.20
     Davidson diagonalization with overlap

---- Real-time Memory Report at c_bands before calling an iterative solver
          4509 MiB given to the printing process from OS
          -530 MiB allocation reported by mallinfo(arena+hblkhd)
         53036 MiB available memory on the node where the printing process lives
     GPU memory used/free/total (MiB): 6532 / 9748 / 16280
------------------
     ethr =  1.52E-07,  avg # of iterations =  1.0

     negative rho (up, down):  2.230E-01 1.831E-01

     total cpu time spent up to now is      777.8 secs

     total energy              =    -602.90425106 Ry
     estimated scf accuracy    <       0.00089493 Ry

     total magnetization       =    14.90 Bohr mag/cell
     absolute magnetization    =    15.10 Bohr mag/cell
[tb_dev] Currently allocated     5.07E+00 Mbytes, locked:    0 /   6
[tb_pin] Currently allocated     0.00E+00 Mbytes, locked:    0 /   0

     iteration # 40     ecut=    60.00 Ry     beta= 0.20
     Davidson diagonalization with overlap

---- Real-time Memory Report at c_bands before calling an iterative solver
          4514 MiB given to the printing process from OS
          -525 MiB allocation reported by mallinfo(arena+hblkhd)
         53026 MiB available memory on the node where the printing process lives
     GPU memory used/free/total (MiB): 6532 / 9748 / 16280
------------------
     ethr =  1.52E-07,  avg # of iterations =  2.8

     negative rho (up, down):  2.202E-01 1.858E-01

     total cpu time spent up to now is      798.0 secs

     total energy              =    -602.90495415 Ry
     estimated scf accuracy    <       0.00044426 Ry

     total magnetization       =    14.52 Bohr mag/cell
     absolute magnetization    =    14.70 Bohr mag/cell
[tb_dev] Currently allocated     5.07E+00 Mbytes, locked:    0 /   6
[tb_pin] Currently allocated     0.00E+00 Mbytes, locked:    0 /   0

     iteration # 41     ecut=    60.00 Ry     beta= 0.20
     Davidson diagonalization with overlap

---- Real-time Memory Report at c_bands before calling an iterative solver
          4520 MiB given to the printing process from OS
          -519 MiB allocation reported by mallinfo(arena+hblkhd)
         53025 MiB available memory on the node where the printing process lives
     GPU memory used/free/total (MiB): 6532 / 9748 / 16280
------------------
     ethr =  1.52E-07,  avg # of iterations =  3.0

     negative rho (up, down):  2.184E-01 1.876E-01

     total cpu time spent up to now is      818.2 secs

     total energy              =    -602.90560503 Ry
     estimated scf accuracy    <       0.00035638 Ry

     total magnetization       =    14.16 Bohr mag/cell
     absolute magnetization    =    14.32 Bohr mag/cell
[tb_dev] Currently allocated     5.07E+00 Mbytes, locked:    0 /   6
[tb_pin] Currently allocated     0.00E+00 Mbytes, locked:    0 /   0

     iteration # 42     ecut=    60.00 Ry     beta= 0.20
     Davidson diagonalization with overlap

---- Real-time Memory Report at c_bands before calling an iterative solver
          4530 MiB given to the printing process from OS
          -514 MiB allocation reported by mallinfo(arena+hblkhd)
         53019 MiB available memory on the node where the printing process lives
     GPU memory used/free/total (MiB): 6532 / 9748 / 16280
------------------
     ethr =  1.52E-07,  avg # of iterations =  2.4

     negative rho (up, down):  2.259E-01 1.801E-01

     total cpu time spent up to now is      836.4 secs

     total energy              =    -602.90043080 Ry
     estimated scf accuracy    <       0.00041649 Ry

     total magnetization       =    13.92 Bohr mag/cell
     absolute magnetization    =    14.06 Bohr mag/cell
[tb_dev] Currently allocated     5.07E+00 Mbytes, locked:    0 /   6
[tb_pin] Currently allocated     0.00E+00 Mbytes, locked:    0 /   0

     iteration # 43     ecut=    60.00 Ry     beta= 0.20
     Davidson diagonalization with overlap

---- Real-time Memory Report at c_bands before calling an iterative solver
          4535 MiB given to the printing process from OS
          -508 MiB allocation reported by mallinfo(arena+hblkhd)
         53012 MiB available memory on the node where the printing process lives
     GPU memory used/free/total (MiB): 6532 / 9748 / 16280
------------------
     ethr =  1.52E-07,  avg # of iterations =  4.2

     negative rho (up, down):  2.218E-01 1.842E-01

     total cpu time spent up to now is      859.9 secs

     total energy              =    -602.90418282 Ry
     estimated scf accuracy    <       0.00074932 Ry

     total magnetization       =    14.86 Bohr mag/cell
     absolute magnetization    =    15.06 Bohr mag/cell
[tb_dev] Currently allocated     5.07E+00 Mbytes, locked:    0 /   6
[tb_pin] Currently allocated     0.00E+00 Mbytes, locked:    0 /   0

     iteration # 44     ecut=    60.00 Ry     beta= 0.20
     Davidson diagonalization with overlap

---- Real-time Memory Report at c_bands before calling an iterative solver
          4541 MiB given to the printing process from OS
          -503 MiB allocation reported by mallinfo(arena+hblkhd)
         53005 MiB available memory on the node where the printing process lives
     GPU memory used/free/total (MiB): 6532 / 9748 / 16280
------------------
     ethr =  1.52E-07,  avg # of iterations =  2.9

     negative rho (up, down):  2.237E-01 1.824E-01

     total cpu time spent up to now is      880.2 secs

     total energy              =    -602.90450129 Ry
     estimated scf accuracy    <       0.00036047 Ry

     total magnetization       =    14.38 Bohr mag/cell
     absolute magnetization    =    14.55 Bohr mag/cell
[tb_dev] Currently allocated     5.07E+00 Mbytes, locked:    0 /   6
[tb_pin] Currently allocated     0.00E+00 Mbytes, locked:    0 /   0

     iteration # 45     ecut=    60.00 Ry     beta= 0.20
     Davidson diagonalization with overlap

---- Real-time Memory Report at c_bands before calling an iterative solver
          4547 MiB given to the printing process from OS
          -497 MiB allocation reported by mallinfo(arena+hblkhd)
         53002 MiB available memory on the node where the printing process lives
     GPU memory used/free/total (MiB): 6532 / 9748 / 16280
------------------
     ethr =  1.52E-07,  avg # of iterations =  2.0

     negative rho (up, down):  2.220E-01 1.840E-01

     total cpu time spent up to now is      896.9 secs

     total energy              =    -602.90491243 Ry
     estimated scf accuracy    <       0.00052179 Ry

     total magnetization       =    14.61 Bohr mag/cell
     absolute magnetization    =    14.80 Bohr mag/cell
[tb_dev] Currently allocated     5.07E+00 Mbytes, locked:    0 /   6
[tb_pin] Currently allocated     0.00E+00 Mbytes, locked:    0 /   0

     iteration # 46     ecut=    60.00 Ry     beta= 0.20
     Davidson diagonalization with overlap

---- Real-time Memory Report at c_bands before calling an iterative solver
          4552 MiB given to the printing process from OS
          -492 MiB allocation reported by mallinfo(arena+hblkhd)
         52998 MiB available memory on the node where the printing process lives
     GPU memory used/free/total (MiB): 6532 / 9748 / 16280
------------------
     ethr =  1.52E-07,  avg # of iterations =  2.0

     negative rho (up, down):  2.216E-01 1.844E-01

     total cpu time spent up to now is      913.5 secs

     total energy              =    -602.90514511 Ry
     estimated scf accuracy    <       0.00037849 Ry

     total magnetization       =    14.40 Bohr mag/cell
     absolute magnetization    =    14.58 Bohr mag/cell
[tb_dev] Currently allocated     5.07E+00 Mbytes, locked:    0 /   6
[tb_pin] Currently allocated     0.00E+00 Mbytes, locked:    0 /   0

     iteration # 47     ecut=    60.00 Ry     beta= 0.20
     Davidson diagonalization with overlap

---- Real-time Memory Report at c_bands before calling an iterative solver
          4558 MiB given to the printing process from OS
          -486 MiB allocation reported by mallinfo(arena+hblkhd)
         52990 MiB available memory on the node where the printing process lives
     GPU memory used/free/total (MiB): 6532 / 9748 / 16280
------------------
     ethr =  1.52E-07,  avg # of iterations =  1.0

     negative rho (up, down):  2.199E-01 1.861E-01

     total cpu time spent up to now is      928.4 secs

     total energy              =    -602.90531589 Ry
     estimated scf accuracy    <       0.00037593 Ry

     total magnetization       =    14.35 Bohr mag/cell
     absolute magnetization    =    14.52 Bohr mag/cell
[tb_dev] Currently allocated     5.07E+00 Mbytes, locked:    0 /   6
[tb_pin] Currently allocated     0.00E+00 Mbytes, locked:    0 /   0

     iteration # 48     ecut=    60.00 Ry     beta= 0.20
     Davidson diagonalization with overlap

---- Real-time Memory Report at c_bands before calling an iterative solver
          4563 MiB given to the printing process from OS
          -480 MiB allocation reported by mallinfo(arena+hblkhd)
         52982 MiB available memory on the node where the printing process lives
     GPU memory used/free/total (MiB): 6532 / 9748 / 16280
------------------
     ethr =  1.52E-07,  avg # of iterations =  2.3

     negative rho (up, down):  2.179E-01 1.881E-01

     total cpu time spent up to now is      945.9 secs

     total energy              =    -602.90567227 Ry
     estimated scf accuracy    <       0.00038274 Ry

     total magnetization       =    14.12 Bohr mag/cell
     absolute magnetization    =    14.28 Bohr mag/cell
[tb_dev] Currently allocated     5.07E+00 Mbytes, locked:    0 /   6
[tb_pin] Currently allocated     0.00E+00 Mbytes, locked:    0 /   0

     iteration # 49     ecut=    60.00 Ry     beta= 0.20
     Davidson diagonalization with overlap

---- Real-time Memory Report at c_bands before calling an iterative solver
          4569 MiB given to the printing process from OS
          -475 MiB allocation reported by mallinfo(arena+hblkhd)
         52981 MiB available memory on the node where the printing process lives
     GPU memory used/free/total (MiB): 6532 / 9748 / 16280
------------------
     ethr =  1.52E-07,  avg # of iterations =  2.7

     negative rho (up, down):  2.216E-01 1.845E-01

     total cpu time spent up to now is      964.8 secs

     total energy              =    -602.90422889 Ry
     estimated scf accuracy    <       0.00052279 Ry

     total magnetization       =    13.85 Bohr mag/cell
     absolute magnetization    =    13.99 Bohr mag/cell
[tb_dev] Currently allocated     5.07E+00 Mbytes, locked:    0 /   6
[tb_pin] Currently allocated     0.00E+00 Mbytes, locked:    0 /   0

     iteration # 50     ecut=    60.00 Ry     beta= 0.20
     Davidson diagonalization with overlap

---- Real-time Memory Report at c_bands before calling an iterative solver
          4574 MiB given to the printing process from OS
          -469 MiB allocation reported by mallinfo(arena+hblkhd)
         52974 MiB available memory on the node where the printing process lives
     GPU memory used/free/total (MiB): 6532 / 9748 / 16280
------------------
     ethr =  1.52E-07,  avg # of iterations =  2.9

     negative rho (up, down):  2.251E-01 1.812E-01

     total cpu time spent up to now is      985.0 secs

     total energy              =    -602.90354704 Ry
     estimated scf accuracy    <       0.00043727 Ry

     total magnetization       =    14.33 Bohr mag/cell
     absolute magnetization    =    14.50 Bohr mag/cell
[tb_dev] Currently allocated     5.07E+00 Mbytes, locked:    0 /   6
[tb_pin] Currently allocated     0.00E+00 Mbytes, locked:    0 /   0

     iteration # 51     ecut=    60.00 Ry     beta= 0.20
     Davidson diagonalization with overlap

---- Real-time Memory Report at c_bands before calling an iterative solver
          4579 MiB given to the printing process from OS
          -464 MiB allocation reported by mallinfo(arena+hblkhd)
         52968 MiB available memory on the node where the printing process lives
     GPU memory used/free/total (MiB): 6532 / 9748 / 16280
------------------
     ethr =  1.52E-07,  avg # of iterations =  3.6

     negative rho (up, down):  2.185E-01 1.877E-01

     total cpu time spent up to now is     1006.3 secs

     total energy              =    -602.90317118 Ry
     estimated scf accuracy    <       0.00069428 Ry

     total magnetization       =    14.75 Bohr mag/cell
     absolute magnetization    =    14.94 Bohr mag/cell
[tb_dev] Currently allocated     5.07E+00 Mbytes, locked:    0 /   6
[tb_pin] Currently allocated     0.00E+00 Mbytes, locked:    0 /   0

     iteration # 52     ecut=    60.00 Ry     beta= 0.20
     Davidson diagonalization with overlap

---- Real-time Memory Report at c_bands before calling an iterative solver
          4589 MiB given to the printing process from OS
          -458 MiB allocation reported by mallinfo(arena+hblkhd)
         52958 MiB available memory on the node where the printing process lives
     GPU memory used/free/total (MiB): 6532 / 9748 / 16280
------------------
     ethr =  1.52E-07,  avg # of iterations =  4.4

     negative rho (up, down):  2.220E-01 1.842E-01

     total cpu time spent up to now is     1029.5 secs

     total energy              =    -602.90424084 Ry
     estimated scf accuracy    <       0.00051277 Ry

     total magnetization       =    13.91 Bohr mag/cell
     absolute magnetization    =    14.06 Bohr mag/cell
[tb_dev] Currently allocated     5.07E+00 Mbytes, locked:    0 /   6
[tb_pin] Currently allocated     0.00E+00 Mbytes, locked:    0 /   0

     iteration # 53     ecut=    60.00 Ry     beta= 0.20
     Davidson diagonalization with overlap

---- Real-time Memory Report at c_bands before calling an iterative solver
          4594 MiB given to the printing process from OS
          -453 MiB allocation reported by mallinfo(arena+hblkhd)
         52955 MiB available memory on the node where the printing process lives
     GPU memory used/free/total (MiB): 6532 / 9748 / 16280
------------------
     ethr =  1.52E-07,  avg # of iterations =  2.9

     negative rho (up, down):  2.273E-01 1.790E-01

     total cpu time spent up to now is     1049.7 secs

     total energy              =    -602.90205395 Ry
     estimated scf accuracy    <       0.00038385 Ry

     total magnetization       =    14.38 Bohr mag/cell
     absolute magnetization    =    14.55 Bohr mag/cell
[tb_dev] Currently allocated     5.07E+00 Mbytes, locked:    0 /   6
[tb_pin] Currently allocated     0.00E+00 Mbytes, locked:    0 /   0

     iteration # 54     ecut=    60.00 Ry     beta= 0.20
     Davidson diagonalization with overlap

---- Real-time Memory Report at c_bands before calling an iterative solver
          4600 MiB given to the printing process from OS
          -447 MiB allocation reported by mallinfo(arena+hblkhd)
         52951 MiB available memory on the node where the printing process lives
     GPU memory used/free/total (MiB): 6532 / 9748 / 16280
------------------
     ethr =  1.52E-07,  avg # of iterations =  4.7

     negative rho (up, down):  2.241E-01 1.822E-01

     total cpu time spent up to now is     1072.9 secs

     total energy              =    -602.90408314 Ry
     estimated scf accuracy    <       0.00103414 Ry

     total magnetization       =    15.00 Bohr mag/cell
     absolute magnetization    =    15.21 Bohr mag/cell
[tb_dev] Currently allocated     5.07E+00 Mbytes, locked:    0 /   6
[tb_pin] Currently allocated     0.00E+00 Mbytes, locked:    0 /   0

     iteration # 55     ecut=    60.00 Ry     beta= 0.20
     Davidson diagonalization with overlap

---- Real-time Memory Report at c_bands before calling an iterative solver
          4606 MiB given to the printing process from OS
          -442 MiB allocation reported by mallinfo(arena+hblkhd)
         52947 MiB available memory on the node where the printing process lives
     GPU memory used/free/total (MiB): 6532 / 9748 / 16280
------------------
     ethr =  1.52E-07,  avg # of iterations =  2.8

     negative rho (up, down):  2.217E-01 1.845E-01

     total cpu time spent up to now is     1092.9 secs

     total energy              =    -602.90480511 Ry
     estimated scf accuracy    <       0.00048937 Ry

     total magnetization       =    14.64 Bohr mag/cell
     absolute magnetization    =    14.82 Bohr mag/cell
[tb_dev] Currently allocated     5.07E+00 Mbytes, locked:    0 /   6
[tb_pin] Currently allocated     0.00E+00 Mbytes, locked:    0 /   0

     iteration # 56     ecut=    60.00 Ry     beta= 0.20
     Davidson diagonalization with overlap

---- Real-time Memory Report at c_bands before calling an iterative solver
          4611 MiB given to the printing process from OS
          -436 MiB allocation reported by mallinfo(arena+hblkhd)
         52933 MiB available memory on the node where the printing process lives
     GPU memory used/free/total (MiB): 6532 / 9748 / 16280
------------------
     ethr =  1.52E-07,  avg # of iterations =  2.7

     negative rho (up, down):  2.234E-01 1.828E-01

     total cpu time spent up to now is     1112.5 secs

     total energy              =    -602.90459829 Ry
     estimated scf accuracy    <       0.00040333 Ry

     total magnetization       =    14.35 Bohr mag/cell
     absolute magnetization    =    14.52 Bohr mag/cell
[tb_dev] Currently allocated     5.07E+00 Mbytes, locked:    0 /   6
[tb_pin] Currently allocated     0.00E+00 Mbytes, locked:    0 /   0

     iteration # 57     ecut=    60.00 Ry     beta= 0.20
     Davidson diagonalization with overlap

---- Real-time Memory Report at c_bands before calling an iterative solver
          4617 MiB given to the printing process from OS
          -431 MiB allocation reported by mallinfo(arena+hblkhd)
         52930 MiB available memory on the node where the printing process lives
     GPU memory used/free/total (MiB): 6532 / 9748 / 16280
------------------
     ethr =  1.52E-07,  avg # of iterations =  2.0

     negative rho (up, down):  2.233E-01 1.829E-01

     total cpu time spent up to now is     1128.9 secs

     total energy              =    -602.90480643 Ry
     estimated scf accuracy    <       0.00051528 Ry

     total magnetization       =    14.56 Bohr mag/cell
     absolute magnetization    =    14.74 Bohr mag/cell
[tb_dev] Currently allocated     5.07E+00 Mbytes, locked:    0 /   6
[tb_pin] Currently allocated     0.00E+00 Mbytes, locked:    0 /   0

     iteration # 58     ecut=    60.00 Ry     beta= 0.20
     Davidson diagonalization with overlap

---- Real-time Memory Report at c_bands before calling an iterative solver
          4622 MiB given to the printing process from OS
          -425 MiB allocation reported by mallinfo(arena+hblkhd)
         52927 MiB available memory on the node where the printing process lives
     GPU memory used/free/total (MiB): 6532 / 9748 / 16280
------------------
     ethr =  1.52E-07,  avg # of iterations =  1.0

     negative rho (up, down):  2.247E-01 1.814E-01

     total cpu time spent up to now is     1144.1 secs

     total energy              =    -602.90430445 Ry
     estimated scf accuracy    <       0.00050590 Ry

     total magnetization       =    14.55 Bohr mag/cell
     absolute magnetization    =    14.73 Bohr mag/cell
[tb_dev] Currently allocated     5.07E+00 Mbytes, locked:    0 /   6
[tb_pin] Currently allocated     0.00E+00 Mbytes, locked:    0 /   0

     iteration # 59     ecut=    60.00 Ry     beta= 0.20
[...]
     GPU memory used/free/total (MiB): 6532 / 9748 / 16280
------------------
     ethr =  1.52E-07,  avg # of iterations =  3.9

     negative rho (up, down):  2.285E-01 1.776E-01

     total cpu time spent up to now is     1298.6 secs

     total energy              =    -602.90320190 Ry
     estimated scf accuracy    <       0.00194594 Ry

     total magnetization       =    15.27 Bohr mag/cell
     absolute magnetization    =    15.49 Bohr mag/cell
[tb_dev] Currently allocated     5.07E+00 Mbytes, locked:    0 /   6
[tb_pin] Currently allocated     0.00E+00 Mbytes, locked:    0 /   0

     iteration # 66     ecut=    60.00 Ry     beta= 0.20
     Davidson diagonalization with overlap

---- Real-time Memory Report at c_bands before calling an iterative solver
          4672 MiB given to the printing process from OS
          -381 MiB allocation reported by mallinfo(arena+hblkhd)
         52880 MiB available memory on the node where the printing process lives
     GPU memory used/free/total (MiB): 6532 / 9748 / 16280
------------------
     ethr =  1.52E-07,  avg # of iterations =  2.0

     negative rho (up, down):  2.309E-01 1.753E-01

     total cpu time spent up to now is     1316.3 secs

     total energy              =    -602.90204136 Ry
     estimated scf accuracy    <       0.00141100 Ry

     total magnetization       =    15.13 Bohr mag/cell
     absolute magnetization    =    15.35 Bohr mag/cell
[tb_dev] Currently allocated     5.07E+00 Mbytes, locked:    0 /   6
[tb_pin] Currently allocated     0.00E+00 Mbytes, locked:    0 /   0

     iteration # 67     ecut=    60.00 Ry     beta= 0.20
     Davidson diagonalization with overlap

---- Real-time Memory Report at c_bands before calling an iterative solver
          4677 MiB given to the printing process from OS
          -375 MiB allocation reported by mallinfo(arena+hblkhd)
         52870 MiB available memory on the node where the printing process lives
     GPU memory used/free/total (MiB): 6532 / 9748 / 16280
------------------
     ethr =  1.52E-07,  avg # of iterations =  2.3

     negative rho (up, down):  2.270E-01 1.792E-01

     total cpu time spent up to now is     1335.2 secs

     total energy              =    -602.90317989 Ry
     estimated scf accuracy    <       0.00230440 Ry

     total magnetization       =    15.35 Bohr mag/cell
     absolute magnetization    =    15.58 Bohr mag/cell
[tb_dev] Currently allocated     5.07E+00 Mbytes, locked:    0 /   6
[tb_pin] Currently allocated     0.00E+00 Mbytes, locked:    0 /   0

     iteration # 68     ecut=    60.00 Ry     beta= 0.20
     Davidson diagonalization with overlap

---- Real-time Memory Report at c_bands before calling an iterative solver
          4683 MiB given to the printing process from OS
          -370 MiB allocation reported by mallinfo(arena+hblkhd)
         52855 MiB available memory on the node where the printing process lives
     GPU memory used/free/total (MiB): 6532 / 9748 / 16280
------------------
     ethr =  1.52E-07,  avg # of iterations =  3.0

     negative rho (up, down):  2.274E-01 1.787E-01

     total cpu time spent up to now is     1355.9 secs

     total energy              =    -602.90368267 Ry
     estimated scf accuracy    <       0.00099474 Ry

     total magnetization       =    14.97 Bohr mag/cell
     absolute magnetization    =    15.18 Bohr mag/cell
[tb_dev] Currently allocated     5.07E+00 Mbytes, locked:    0 /   6
[tb_pin] Currently allocated     0.00E+00 Mbytes, locked:    0 /   0

     iteration # 69     ecut=    60.00 Ry     beta= 0.20
     Davidson diagonalization with overlap

---- Real-time Memory Report at c_bands before calling an iterative solver
          4688 MiB given to the printing process from OS
          -364 MiB allocation reported by mallinfo(arena+hblkhd)
         52846 MiB available memory on the node where the printing process lives
     GPU memory used/free/total (MiB): 6532 / 9748 / 16280
------------------
     ethr =  1.52E-07,  avg # of iterations =  1.0

     negative rho (up, down):  2.290E-01 1.771E-01

     total cpu time spent up to now is     1371.3 secs

     total energy              =    -602.90301133 Ry
     estimated scf accuracy    <       0.00106814 Ry

     total magnetization       =    15.02 Bohr mag/cell
     absolute magnetization    =    15.23 Bohr mag/cell
[tb_dev] Currently allocated     5.07E+00 Mbytes, locked:    0 /   6
[tb_pin] Currently allocated     0.00E+00 Mbytes, locked:    0 /   0

     iteration # 70     ecut=    60.00 Ry     beta= 0.20
     Davidson diagonalization with overlap

---- Real-time Memory Report at c_bands before calling an iterative solver
          4693 MiB given to the printing process from OS
          -359 MiB allocation reported by mallinfo(arena+hblkhd)
         52847 MiB available memory on the node where the printing process lives
     GPU memory used/free/total (MiB): 6532 / 9748 / 16280
------------------
     ethr =  1.52E-07,  avg # of iterations =  2.0

     negative rho (up, down):  2.300E-01 1.761E-01

     total cpu time spent up to now is     1388.6 secs

     total energy              =    -602.90265842 Ry
     estimated scf accuracy    <       0.00154029 Ry

     total magnetization       =    15.18 Bohr mag/cell
     absolute magnetization    =    15.40 Bohr mag/cell
[tb_dev] Currently allocated     5.07E+00 Mbytes, locked:    0 /   6
[tb_pin] Currently allocated     0.00E+00 Mbytes, locked:    0 /   0

     iteration # 71     ecut=    60.00 Ry     beta= 0.20
     Davidson diagonalization with overlap

---- Real-time Memory Report at c_bands before calling an iterative solver
          4703 MiB given to the printing process from OS
          -338 MiB allocation reported by mallinfo(arena+hblkhd)
         52829 MiB available memory on the node where the printing process lives
     GPU memory used/free/total (MiB): 6532 / 9748 / 16280
------------------
     ethr =  1.52E-07,  avg # of iterations =  2.0

     negative rho (up, down):  2.155E-01 1.905E-01

     total cpu time spent up to now is     1405.1 secs

     total energy              =    -602.89515163 Ry
     estimated scf accuracy    <       0.00198260 Ry

     total magnetization       =    15.28 Bohr mag/cell
     absolute magnetization    =    15.50 Bohr mag/cell
[tb_dev] Currently allocated     5.07E+00 Mbytes, locked:    0 /   6
[tb_pin] Currently allocated     0.00E+00 Mbytes, locked:    0 /   0

     iteration # 72     ecut=    60.00 Ry     beta= 0.20
     Davidson diagonalization with overlap

---- Real-time Memory Report at c_bands before calling an iterative solver
          4708 MiB given to the printing process from OS
          -333 MiB allocation reported by mallinfo(arena+hblkhd)
         52829 MiB available memory on the node where the printing process lives
     GPU memory used/free/total (MiB): 6532 / 9748 / 16280
------------------
     ethr =  1.52E-07,  avg # of iterations =  6.3

     negative rho (up, down):  2.147E-01 1.914E-01

     total cpu time spent up to now is     1434.8 secs

     total energy              =    -602.90685583 Ry
     estimated scf accuracy    <       0.00111227 Ry

     total magnetization       =    13.49 Bohr mag/cell
     absolute magnetization    =    13.61 Bohr mag/cell
[tb_dev] Currently allocated     5.07E+00 Mbytes, locked:    0 /   6
[tb_pin] Currently allocated     0.00E+00 Mbytes, locked:    0 /   0

     iteration # 73     ecut=    60.00 Ry     beta= 0.20
     Davidson diagonalization with overlap

---- Real-time Memory Report at c_bands before calling an iterative solver
          4714 MiB given to the printing process from OS
          -327 MiB allocation reported by mallinfo(arena+hblkhd)
         52824 MiB available memory on the node where the printing process lives
     GPU memory used/free/total (MiB): 6532 / 9748 / 16280
------------------
     ethr =  1.52E-07,  avg # of iterations =  1.8

     negative rho (up, down):  2.224E-01 1.837E-01

     total cpu time spent up to now is     1450.9 secs

     total energy              =    -602.90037854 Ry
     estimated scf accuracy    <       0.00127750 Ry

     total magnetization       =    13.35 Bohr mag/cell
     absolute magnetization    =    13.47 Bohr mag/cell
[tb_dev] Currently allocated     5.07E+00 Mbytes, locked:    0 /   6
[tb_pin] Currently allocated     0.00E+00 Mbytes, locked:    0 /   0

     iteration # 74     ecut=    60.00 Ry     beta= 0.20
     Davidson diagonalization with overlap

---- Real-time Memory Report at c_bands before calling an iterative solver
          4720 MiB given to the printing process from OS
          -322 MiB allocation reported by mallinfo(arena+hblkhd)
         52821 MiB available memory on the node where the printing process lives
     GPU memory used/free/total (MiB): 6532 / 9748 / 16280
------------------
     ethr =  1.52E-07,  avg # of iterations =  4.8

     negative rho (up, down):  2.247E-01 1.814E-01

     total cpu time spent up to now is     1476.4 secs

     total energy              =    -602.90411991 Ry
     estimated scf accuracy    <       0.00038785 Ry

     total magnetization       =    14.44 Bohr mag/cell
     absolute magnetization    =    14.61 Bohr mag/cell
[tb_dev] Currently allocated     5.07E+00 Mbytes, locked:    0 /   6
[tb_pin] Currently allocated     0.00E+00 Mbytes, locked:    0 /   0

     iteration # 75     ecut=    60.00 Ry     beta= 0.20
     Davidson diagonalization with overlap

---- Real-time Memory Report at c_bands before calling an iterative solver
          4725 MiB given to the printing process from OS
          -316 MiB allocation reported by mallinfo(arena+hblkhd)
         52813 MiB available memory on the node where the printing process lives
     GPU memory used/free/total (MiB): 6532 / 9748 / 16280
------------------
     ethr =  1.52E-07,  avg # of iterations =  2.5

     negative rho (up, down):  2.255E-01 1.806E-01

     total cpu time spent up to now is     1495.9 secs

     total energy              =    -602.90418526 Ry
     estimated scf accuracy    <       0.00063008 Ry

     total magnetization       =    14.72 Bohr mag/cell
     absolute magnetization    =    14.91 Bohr mag/cell
[tb_dev] Currently allocated     5.07E+00 Mbytes, locked:    0 /   6
[tb_pin] Currently allocated     0.00E+00 Mbytes, locked:    0 /   0

     iteration # 76     ecut=    60.00 Ry     beta= 0.20
     Davidson diagonalization with overlap

---- Real-time Memory Report at c_bands before calling an iterative solver
          4731 MiB given to the printing process from OS
          -311 MiB allocation reported by mallinfo(arena+hblkhd)
         52813 MiB available memory on the node where the printing process lives
     GPU memory used/free/total (MiB): 6532 / 9748 / 16280
------------------
     ethr =  1.52E-07,  avg # of iterations =  2.0

     negative rho (up, down):  2.218E-01 1.843E-01

     total cpu time spent up to now is     1512.2 secs

     total energy              =    -602.90431439 Ry
     estimated scf accuracy    <       0.00073582 Ry

     total magnetization       =    14.82 Bohr mag/cell
     absolute magnetization    =    15.01 Bohr mag/cell
[tb_dev] Currently allocated     5.07E+00 Mbytes, locked:    0 /   6
[tb_pin] Currently allocated     0.00E+00 Mbytes, locked:    0 /   0

     iteration # 77     ecut=    60.00 Ry     beta= 0.20
     Davidson diagonalization with overlap

---- Real-time Memory Report at c_bands before calling an iterative solver
          4737 MiB given to the printing process from OS
          -305 MiB allocation reported by mallinfo(arena+hblkhd)
         52808 MiB available memory on the node where the printing process lives
     GPU memory used/free/total (MiB): 6532 / 9748 / 16280
------------------
     ethr =  1.52E-07,  avg # of iterations =  2.9

     negative rho (up, down):  2.216E-01 1.845E-01

     total cpu time spent up to now is     1532.5 secs

     total energy              =    -602.90514763 Ry
     estimated scf accuracy    <       0.00041678 Ry

     total magnetization       =    14.37 Bohr mag/cell
     absolute magnetization    =    14.54 Bohr mag/cell
[tb_dev] Currently allocated     5.07E+00 Mbytes, locked:    0 /   6
[tb_pin] Currently allocated     0.00E+00 Mbytes, locked:    0 /   0

     iteration # 78     ecut=    60.00 Ry     beta= 0.20
     Davidson diagonalization with overlap

---- Real-time Memory Report at c_bands before calling an iterative solver
          4742 MiB given to the printing process from OS
          -300 MiB allocation reported by mallinfo(arena+hblkhd)
         52800 MiB available memory on the node where the printing process lives
     GPU memory used/free/total (MiB): 6532 / 9748 / 16280
------------------
     ethr =  1.52E-07,  avg # of iterations =  1.0

     negative rho (up, down):  2.214E-01 1.847E-01

     total cpu time spent up to now is     1547.5 secs

     total energy              =    -602.90518584 Ry
     estimated scf accuracy    <       0.00040961 Ry

     total magnetization       =    14.34 Bohr mag/cell
     absolute magnetization    =    14.51 Bohr mag/cell
[tb_dev] Currently allocated     5.07E+00 Mbytes, locked:    0 /   6
[tb_pin] Currently allocated     0.00E+00 Mbytes, locked:    0 /   0

     iteration # 79     ecut=    60.00 Ry     beta= 0.20
     Davidson diagonalization with overlap

---- Real-time Memory Report at c_bands before calling an iterative solver
          4748 MiB given to the printing process from OS
          -294 MiB allocation reported by mallinfo(arena+hblkhd)
         52792 MiB available memory on the node where the printing process lives
     GPU memory used/free/total (MiB): 6532 / 9748 / 16280
------------------
     ethr =  1.52E-07,  avg # of iterations =  1.0

     negative rho (up, down):  2.215E-01 1.847E-01

     total cpu time spent up to now is     1562.8 secs

     total energy              =    -602.90517504 Ry
     estimated scf accuracy    <       0.00039909 Ry

     total magnetization       =    14.32 Bohr mag/cell
     absolute magnetization    =    14.48 Bohr mag/cell
[tb_dev] Currently allocated     5.07E+00 Mbytes, locked:    0 /   6
[tb_pin] Currently allocated     0.00E+00 Mbytes, locked:    0 /   0

     iteration # 80     ecut=    60.00 Ry     beta= 0.20
     Davidson diagonalization with overlap

---- Real-time Memory Report at c_bands before calling an iterative solver
          4753 MiB given to the printing process from OS
          -289 MiB allocation reported by mallinfo(arena+hblkhd)
         52791 MiB available memory on the node where the printing process lives
     GPU memory used/free/total (MiB): 6532 / 9748 / 16280
------------------
     ethr =  1.52E-07,  avg # of iterations =  1.0

     negative rho (up, down):  2.229E-01 1.833E-01

     total cpu time spent up to now is     1578.1 secs

     total energy              =    -602.90478650 Ry
     estimated scf accuracy    <       0.00041943 Ry

     total magnetization       =    14.32 Bohr mag/cell
     absolute magnetization    =    14.49 Bohr mag/cell

     End of self-consistent calculation

     convergence NOT achieved after  80 iterations: stopping

     Writing config to output data dir ./out/aiida.save/
 
     init_run     :     23.39s CPU      5.97s WALL (       1 calls)
     electrons    :   2034.71s CPU   1571.75s WALL (       1 calls)

     Called by init_run:
     wfcinit      :      0.66s CPU      0.66s WALL (       1 calls)
                                        0.66s GPU  (       1 calls)
     potinit      :      7.02s CPU      0.95s WALL (       1 calls)
     hinit0       :      9.15s CPU      3.26s WALL (       1 calls)

     Called by electrons:
     c_bands      :   1213.03s CPU   1270.20s WALL (      80 calls)
     sum_band     :    236.28s CPU    245.94s WALL (      80 calls)
     v_of_rho     :    113.25s CPU     10.41s WALL (      81 calls)
     v_h          :     15.59s CPU      1.42s WALL (      81 calls)
     v_xc         :     97.65s CPU      8.99s WALL (      81 calls)
     newd         :    139.26s CPU     13.16s WALL (      81 calls)
                                       13.16s GPU  (      81 calls)
     PAW_pot      :    204.38s CPU     18.98s WALL (      81 calls)
     mix_rho      :     83.51s CPU      8.41s WALL (      80 calls)

     Called by c_bands:
     init_us_2    :     40.66s CPU     51.18s WALL (   20800 calls)
     init_us_2:gp :     40.25s CPU     50.79s WALL (   20800 calls)
     cegterg      :   1056.20s CPU   1092.47s WALL (   10400 calls)

     Called by sum_band:
     sum_band:wei :      0.68s CPU      0.69s WALL (      80 calls)
                                        0.68s GPU  (      80 calls)
     sum_band:loo :    218.41s CPU    227.89s WALL (      80 calls)
                                      227.89s GPU  (      80 calls)
     sum_band:buf :     52.17s CPU     53.37s WALL (   10400 calls)
                                       53.30s GPU  (   10400 calls)
     sum_band:ini :     18.60s CPU     22.40s WALL (   10400 calls)
                                       22.34s GPU  (   10400 calls)
     sum_band:cal :      0.40s CPU     10.69s WALL (   10400 calls)
                                        5.51s GPU  (   10400 calls)
     sum_band:bec :      4.12s CPU      4.38s WALL (   10400 calls)
                                        4.31s GPU  (   10400 calls)
     addusdens    :     12.25s CPU     12.43s WALL (      80 calls)
                                       12.43s GPU  (      80 calls)
     addusd:skk   :      0.07s CPU      0.07s WALL (     320 calls)
                                        0.07s GPU  (     320 calls)

     Called by *egterg:
     cdiaghg      :    187.74s CPU    216.90s WALL (   40335 calls)
                                      216.62s GPU  (   40335 calls)
     cegterg:over :     16.09s CPU     16.62s WALL (   30065 calls)
     cegterg:upda :     23.03s CPU     24.39s WALL (   30065 calls)
     cegterg:last :     14.95s CPU     15.30s WALL (   21767 calls)
     h_psi        :    765.60s CPU    769.99s WALL (   40465 calls)
                                      769.13s GPU  (   40465 calls)
     s_psi        :      8.82s CPU     26.27s WALL (   40465 calls)
                                       24.18s GPU  (   40465 calls)
     g_psi        :      0.23s CPU      2.47s WALL (   30065 calls)
                                        2.28s GPU  (   30065 calls)

     Called by h_psi:
     h_psi:calbec :      1.50s CPU     18.90s WALL (   40465 calls)
                                       18.64s GPU  (   40465 calls)
     vloc_psi     :    711.01s CPU    716.21s WALL (   40465 calls)
                                      715.96s GPU  (   40465 calls)
     add_vuspsi   :     14.16s CPU     29.70s WALL (   40465 calls)
                                       29.44s GPU  (   40465 calls)

     General routines
     calbec       :      1.41s CPU      1.45s WALL (   50865 calls)
     fft          :      6.81s CPU      1.45s WALL (    2023 calls)
                                        1.03s GPU  (    1861 calls)
     ffts         :      0.52s CPU      0.17s WALL (     322 calls)
                                        0.03s GPU  (     160 calls)
     fftw         :      5.70s CPU    625.26s WALL (  282116 calls)
                                      622.29s GPU  (  282116 calls)
     interpolate  :     19.28s CPU      1.68s WALL (     162 calls)
     davcio       :      0.19s CPU      2.93s WALL (     278 calls)
 
     Parallel routines

     PAW routines
     PAW_pot      :    204.38s CPU     18.98s WALL (      81 calls)
     PAW_symme    :      0.05s CPU      0.01s WALL (     160 calls)
 
     PWSCF        :  34m21.31s CPU  26m20.93s WALL

 
   This run was terminated on:  18:39:37  23Oct2023            

=------------------------------------------------------------------------------=
   JOB DONE.
=------------------------------------------------------------------------------=
