
     Program PWSCF v.7.2 starts on 22Oct2023 at 23:19:22 

     This program is part of the open-source Quantum ESPRESSO suite
     for quantum simulation of materials; please cite
         "P. Giannozzi et al., J. Phys.:Condens. Matter 21 395502 (2009);
         "P. Giannozzi et al., J. Phys.:Condens. Matter 29 465901 (2017);
         "P. Giannozzi et al., J. Chem. Phys. 152 154105 (2020);
          URL http://www.quantum-espresso.org", 
     in publications or presentations arising from this work. More details at
     http://www.quantum-espresso.org/quote

     Parallel version (MPI & OpenMP), running on      12 processor cores
     Number of MPI processes:                 1
     Threads/MPI process:                    12

     MPI processes distributed on     1 nodes
     60328 MiB available memory on the printing compute node when the environment starts
 
     Reading input from aiida.in

     Current dimensions of program PWSCF are:
     Max number of different atomic species (ntypx) = 10
     Max number of k-points (npk) =  40000
     Max angular momentum in pseudopotentials (lmaxx) =  4
     Message from routine setup:
     using ibrav=0 with symmetry is DISCOURAGED, use correct ibrav instead
 
     Subspace diagonalization in iterative solution of the eigenvalue problem:
     a serial algorithm will be used

 
     G-vector sticks info
     --------------------
     sticks:   dense  smooth     PW     G-vecs:    dense   smooth      PW
     Sum        2161    1085    317                75037    26745    4169
 
     Using Slab Decomposition
 


     bravais-lattice index     =            0
     lattice parameter (alat)  =       7.5098  a.u.
     unit-cell volume          =     423.5261 (a.u.)^3
     number of atoms/cell      =            5
     number of atomic types    =            3
     number of electrons       =        61.00
     number of Kohn-Sham states=           37
     kinetic-energy cutoff     =      60.0000  Ry
     charge density cutoff     =     480.0000  Ry
     scf convergence threshold =      1.0E-09
     mixing beta               =       0.4000
     number of iterations used =            8  plain     mixing
     Exchange-correlation= SLA  PW   PSX  PSC
                           (   1   4  10   8   0   0   0)

     GPU acceleration is ACTIVE.


     GPU used by master process:

        Device Number: 0
        Device name: Tesla P100-PCIE-16GB
        Compute capability : 60
        Ratio of single to double precision performance  : 2
        Memory Clock Rate (KHz): 715000
        Memory Bus Width (bits): 4096
        Peak Memory Bandwidth (GB/s): 732.16

     celldm(1)=   7.509772  celldm(2)=   0.000000  celldm(3)=   0.000000
     celldm(4)=   0.000000  celldm(5)=   0.000000  celldm(6)=   0.000000

     crystal axes: (cart. coord. in units of alat)
               a(1) = (   1.000000   0.000000   0.000000 )  
               a(2) = (   0.000000   1.000000   0.000000 )  
               a(3) = (   0.000000   0.000000   1.000000 )  

     reciprocal axes: (cart. coord. in units 2 pi/alat)
               b(1) = (  1.000000  0.000000  0.000000 )  
               b(2) = (  0.000000  1.000000  0.000000 )  
               b(3) = (  0.000000  0.000000  1.000000 )  


     PseudoPot. # 1 for Cr read from file:
     ./pseudo/cr_pbesol_v1.5.uspp.F.UPF
     MD5 check sum: a621641e0be27168676a837af8893d0f
     Pseudo is Ultrasoft + core correction, Zval = 14.0
     Generated by new atomic code, or converted to UPF format
     Using radial grid of  857 points,  6 beta functions with: 
                l(1) =   0
                l(2) =   0
                l(3) =   1
                l(4) =   1
                l(5) =   2
                l(6) =   2
     Q(r) pseudized with  8 coefficients,  rinner =    0.950   0.950   0.950
                                                       0.950   0.950

     PseudoPot. # 2 for N  read from file:
     ./pseudo/N.pbesol-theos.UPF
     MD5 check sum: 1b64827339d390a5a22afef3ff345c9d
     Pseudo is Ultrasoft + core correction, Zval =  5.0
     Generated using "atomic" code by A. Dal Corso  v.5.1
     Using radial grid of 1085 points,  4 beta functions with: 
                l(1) =   0
                l(2) =   0
                l(3) =   1
                l(4) =   1
     Q(r) pseudized with 0 coefficients 


     PseudoPot. # 3 for Sn read from file:
     ./pseudo/sn_pbesol_v1.4.uspp.F.UPF
     MD5 check sum: 463fec1d5456f1e96ec1bfcad4b7b038
     Pseudo is Ultrasoft + core correction, Zval = 14.0
     Generated by new atomic code, or converted to UPF format
     Using radial grid of  891 points,  6 beta functions with: 
                l(1) =   0
                l(2) =   0
                l(3) =   1
                l(4) =   1
                l(5) =   2
                l(6) =   2
     Q(r) pseudized with  8 coefficients,  rinner =    1.350   1.350   1.350
                                                       1.350   1.350

     atomic species   valence    mass     pseudopotential
        Cr            14.00    51.99610     Cr( 1.00)
        N              5.00    14.00670     N ( 1.00)
        Sn            14.00   118.71000     Sn( 1.00)

     Starting magnetic structure 
     atomic species   magnetization
        Cr           0.357
        N            0.100
        Sn           0.100

     48 Sym. Ops., with inversion, found


                                    s                        frac. trans.

      isym =  1     identity                                     

 cryst.   s( 1) = (     1          0          0      )
                  (     0          1          0      )
                  (     0          0          1      )

 cart.    s( 1) = (  1.0000000  0.0000000  0.0000000 )
                  (  0.0000000  1.0000000  0.0000000 )
                  (  0.0000000  0.0000000  1.0000000 )


      isym =  2     180 deg rotation - cart. axis [0,0,1]        

 cryst.   s( 2) = (    -1          0          0      )
                  (     0         -1          0      )
                  (     0          0          1      )

 cart.    s( 2) = ( -1.0000000  0.0000000  0.0000000 )
                  (  0.0000000 -1.0000000  0.0000000 )
                  (  0.0000000  0.0000000  1.0000000 )


      isym =  3     180 deg rotation - cart. axis [0,1,0]        

 cryst.   s( 3) = (    -1          0          0      )
                  (     0          1          0      )
                  (     0          0         -1      )

 cart.    s( 3) = ( -1.0000000  0.0000000  0.0000000 )
                  (  0.0000000  1.0000000  0.0000000 )
                  (  0.0000000  0.0000000 -1.0000000 )


      isym =  4     180 deg rotation - cart. axis [1,0,0]        

 cryst.   s( 4) = (     1          0          0      )
                  (     0         -1          0      )
                  (     0          0         -1      )

 cart.    s( 4) = (  1.0000000  0.0000000  0.0000000 )
                  (  0.0000000 -1.0000000  0.0000000 )
                  (  0.0000000  0.0000000 -1.0000000 )


      isym =  5     180 deg rotation - cart. axis [1,1,0]        

 cryst.   s( 5) = (     0          1          0      )
                  (     1          0          0      )
                  (     0          0         -1      )

 cart.    s( 5) = (  0.0000000  1.0000000  0.0000000 )
                  (  1.0000000  0.0000000  0.0000000 )
                  (  0.0000000  0.0000000 -1.0000000 )


      isym =  6     180 deg rotation - cart. axis [1,-1,0]       

 cryst.   s( 6) = (     0         -1          0      )
                  (    -1          0          0      )
                  (     0          0         -1      )

 cart.    s( 6) = (  0.0000000 -1.0000000  0.0000000 )
                  ( -1.0000000  0.0000000  0.0000000 )
                  (  0.0000000  0.0000000 -1.0000000 )


      isym =  7      90 deg rotation - cart. axis [0,0,-1]       

 cryst.   s( 7) = (     0         -1          0      )
                  (     1          0          0      )
                  (     0          0          1      )

 cart.    s( 7) = (  0.0000000  1.0000000  0.0000000 )
                  ( -1.0000000  0.0000000  0.0000000 )
                  (  0.0000000  0.0000000  1.0000000 )


      isym =  8      90 deg rotation - cart. axis [0,0,1]        

 cryst.   s( 8) = (     0          1          0      )
                  (    -1          0          0      )
                  (     0          0          1      )

 cart.    s( 8) = (  0.0000000 -1.0000000  0.0000000 )
                  (  1.0000000  0.0000000  0.0000000 )
                  (  0.0000000  0.0000000  1.0000000 )


      isym =  9     180 deg rotation - cart. axis [1,0,1]        

 cryst.   s( 9) = (     0          0          1      )
                  (     0         -1          0      )
                  (     1          0          0      )

 cart.    s( 9) = (  0.0000000  0.0000000  1.0000000 )
                  (  0.0000000 -1.0000000  0.0000000 )
                  (  1.0000000  0.0000000  0.0000000 )


      isym = 10     180 deg rotation - cart. axis [-1,0,1]       

 cryst.   s(10) = (     0          0         -1      )
                  (     0         -1          0      )
                  (    -1          0          0      )

 cart.    s(10) = (  0.0000000  0.0000000 -1.0000000 )
                  (  0.0000000 -1.0000000  0.0000000 )
                  ( -1.0000000  0.0000000  0.0000000 )


      isym = 11      90 deg rotation - cart. axis [0,1,0]        

 cryst.   s(11) = (     0          0         -1      )
                  (     0          1          0      )
                  (     1          0          0      )

 cart.    s(11) = (  0.0000000  0.0000000  1.0000000 )
                  (  0.0000000  1.0000000  0.0000000 )
                  ( -1.0000000  0.0000000  0.0000000 )


      isym = 12      90 deg rotation - cart. axis [0,-1,0]       

 cryst.   s(12) = (     0          0          1      )
                  (     0          1          0      )
                  (    -1          0          0      )

 cart.    s(12) = (  0.0000000  0.0000000 -1.0000000 )
                  (  0.0000000  1.0000000  0.0000000 )
                  (  1.0000000  0.0000000  0.0000000 )


      isym = 13     180 deg rotation - cart. axis [0,1,1]        

 cryst.   s(13) = (    -1          0          0      )
                  (     0          0          1      )
                  (     0          1          0      )

 cart.    s(13) = ( -1.0000000  0.0000000  0.0000000 )
                  (  0.0000000  0.0000000  1.0000000 )
                  (  0.0000000  1.0000000  0.0000000 )


      isym = 14     180 deg rotation - cart. axis [0,1,-1]       

 cryst.   s(14) = (    -1          0          0      )
                  (     0          0         -1      )
                  (     0         -1          0      )

 cart.    s(14) = ( -1.0000000  0.0000000  0.0000000 )
                  (  0.0000000  0.0000000 -1.0000000 )
                  (  0.0000000 -1.0000000  0.0000000 )


      isym = 15      90 deg rotation - cart. axis [-1,0,0]       

 cryst.   s(15) = (     1          0          0      )
                  (     0          0         -1      )
                  (     0          1          0      )

 cart.    s(15) = (  1.0000000  0.0000000  0.0000000 )
                  (  0.0000000  0.0000000  1.0000000 )
                  (  0.0000000 -1.0000000  0.0000000 )


      isym = 16      90 deg rotation - cart. axis [1,0,0]        

 cryst.   s(16) = (     1          0          0      )
                  (     0          0          1      )
                  (     0         -1          0      )

 cart.    s(16) = (  1.0000000  0.0000000  0.0000000 )
                  (  0.0000000  0.0000000 -1.0000000 )
                  (  0.0000000  1.0000000  0.0000000 )


      isym = 17     120 deg rotation - cart. axis [-1,-1,-1]     

 cryst.   s(17) = (     0          0          1      )
                  (     1          0          0      )
                  (     0          1          0      )

 cart.    s(17) = (  0.0000000  1.0000000  0.0000000 )
                  (  0.0000000  0.0000000  1.0000000 )
                  (  1.0000000  0.0000000  0.0000000 )


      isym = 18     120 deg rotation - cart. axis [-1,1,1]       

 cryst.   s(18) = (     0          0         -1      )
                  (    -1          0          0      )
                  (     0          1          0      )

 cart.    s(18) = (  0.0000000 -1.0000000  0.0000000 )
                  (  0.0000000  0.0000000  1.0000000 )
                  ( -1.0000000  0.0000000  0.0000000 )


      isym = 19     120 deg rotation - cart. axis [1,1,-1]       

 cryst.   s(19) = (     0          0         -1      )
                  (     1          0          0      )
                  (     0         -1          0      )

 cart.    s(19) = (  0.0000000  1.0000000  0.0000000 )
                  (  0.0000000  0.0000000 -1.0000000 )
                  ( -1.0000000  0.0000000  0.0000000 )


      isym = 20     120 deg rotation - cart. axis [1,-1,1]       

 cryst.   s(20) = (     0          0          1      )
                  (    -1          0          0      )
                  (     0         -1          0      )

 cart.    s(20) = (  0.0000000 -1.0000000  0.0000000 )
                  (  0.0000000  0.0000000 -1.0000000 )
                  (  1.0000000  0.0000000  0.0000000 )


      isym = 21     120 deg rotation - cart. axis [1,1,1]        

 cryst.   s(21) = (     0          1          0      )
                  (     0          0          1      )
                  (     1          0          0      )

 cart.    s(21) = (  0.0000000  0.0000000  1.0000000 )
                  (  1.0000000  0.0000000  0.0000000 )
                  (  0.0000000  1.0000000  0.0000000 )


      isym = 22     120 deg rotation - cart. axis [-1,1,-1]      

 cryst.   s(22) = (     0         -1          0      )
                  (     0          0         -1      )
                  (     1          0          0      )

 cart.    s(22) = (  0.0000000  0.0000000  1.0000000 )
                  ( -1.0000000  0.0000000  0.0000000 )
                  (  0.0000000 -1.0000000  0.0000000 )


      isym = 23     120 deg rotation - cart. axis [1,-1,-1]      

 cryst.   s(23) = (     0         -1          0      )
                  (     0          0          1      )
                  (    -1          0          0      )

 cart.    s(23) = (  0.0000000  0.0000000 -1.0000000 )
                  ( -1.0000000  0.0000000  0.0000000 )
                  (  0.0000000  1.0000000  0.0000000 )


      isym = 24     120 deg rotation - cart. axis [-1,-1,1]      

 cryst.   s(24) = (     0          1          0      )
                  (     0          0         -1      )
                  (    -1          0          0      )

 cart.    s(24) = (  0.0000000  0.0000000 -1.0000000 )
                  (  1.0000000  0.0000000  0.0000000 )
                  (  0.0000000 -1.0000000  0.0000000 )


      isym = 25     inversion                                    

 cryst.   s(25) = (    -1          0          0      )
                  (     0         -1          0      )
                  (     0          0         -1      )

 cart.    s(25) = ( -1.0000000  0.0000000  0.0000000 )
                  (  0.0000000 -1.0000000  0.0000000 )
                  (  0.0000000  0.0000000 -1.0000000 )


      isym = 26     inv. 180 deg rotation - cart. axis [0,0,1]   

 cryst.   s(26) = (     1          0          0      )
                  (     0          1          0      )
                  (     0          0         -1      )

 cart.    s(26) = (  1.0000000  0.0000000  0.0000000 )
                  (  0.0000000  1.0000000  0.0000000 )
                  (  0.0000000  0.0000000 -1.0000000 )


      isym = 27     inv. 180 deg rotation - cart. axis [0,1,0]   

 cryst.   s(27) = (     1          0          0      )
                  (     0         -1          0      )
                  (     0          0          1      )

 cart.    s(27) = (  1.0000000  0.0000000  0.0000000 )
                  (  0.0000000 -1.0000000  0.0000000 )
                  (  0.0000000  0.0000000  1.0000000 )


      isym = 28     inv. 180 deg rotation - cart. axis [1,0,0]   

 cryst.   s(28) = (    -1          0          0      )
                  (     0          1          0      )
                  (     0          0          1      )

 cart.    s(28) = ( -1.0000000  0.0000000  0.0000000 )
                  (  0.0000000  1.0000000  0.0000000 )
                  (  0.0000000  0.0000000  1.0000000 )


      isym = 29     inv. 180 deg rotation - cart. axis [1,1,0]   

 cryst.   s(29) = (     0         -1          0      )
                  (    -1          0          0      )
                  (     0          0          1      )

 cart.    s(29) = (  0.0000000 -1.0000000  0.0000000 )
                  ( -1.0000000  0.0000000  0.0000000 )
                  (  0.0000000  0.0000000  1.0000000 )


      isym = 30     inv. 180 deg rotation - cart. axis [1,-1,0]  

 cryst.   s(30) = (     0          1          0      )
                  (     1          0          0      )
                  (     0          0          1      )

 cart.    s(30) = (  0.0000000  1.0000000  0.0000000 )
                  (  1.0000000  0.0000000  0.0000000 )
                  (  0.0000000  0.0000000  1.0000000 )


      isym = 31     inv.  90 deg rotation - cart. axis [0,0,-1]  

 cryst.   s(31) = (     0          1          0      )
                  (    -1          0          0      )
                  (     0          0         -1      )

 cart.    s(31) = (  0.0000000 -1.0000000  0.0000000 )
                  (  1.0000000  0.0000000  0.0000000 )
                  (  0.0000000  0.0000000 -1.0000000 )


      isym = 32     inv.  90 deg rotation - cart. axis [0,0,1]   

 cryst.   s(32) = (     0         -1          0      )
                  (     1          0          0      )
                  (     0          0         -1      )

 cart.    s(32) = (  0.0000000  1.0000000  0.0000000 )
                  ( -1.0000000  0.0000000  0.0000000 )
                  (  0.0000000  0.0000000 -1.0000000 )


      isym = 33     inv. 180 deg rotation - cart. axis [1,0,1]   

 cryst.   s(33) = (     0          0         -1      )
                  (     0          1          0      )
                  (    -1          0          0      )

 cart.    s(33) = (  0.0000000  0.0000000 -1.0000000 )
                  (  0.0000000  1.0000000  0.0000000 )
                  ( -1.0000000  0.0000000  0.0000000 )


      isym = 34     inv. 180 deg rotation - cart. axis [-1,0,1]  

 cryst.   s(34) = (     0          0          1      )
                  (     0          1          0      )
                  (     1          0          0      )

 cart.    s(34) = (  0.0000000  0.0000000  1.0000000 )
                  (  0.0000000  1.0000000  0.0000000 )
                  (  1.0000000  0.0000000  0.0000000 )


      isym = 35     inv.  90 deg rotation - cart. axis [0,1,0]   

 cryst.   s(35) = (     0          0          1      )
                  (     0         -1          0      )
                  (    -1          0          0      )

 cart.    s(35) = (  0.0000000  0.0000000 -1.0000000 )
                  (  0.0000000 -1.0000000  0.0000000 )
                  (  1.0000000  0.0000000  0.0000000 )


      isym = 36     inv.  90 deg rotation - cart. axis [0,-1,0]  

 cryst.   s(36) = (     0          0         -1      )
                  (     0         -1          0      )
                  (     1          0          0      )

 cart.    s(36) = (  0.0000000  0.0000000  1.0000000 )
                  (  0.0000000 -1.0000000  0.0000000 )
                  ( -1.0000000  0.0000000  0.0000000 )


      isym = 37     inv. 180 deg rotation - cart. axis [0,1,1]   

 cryst.   s(37) = (     1          0          0      )
                  (     0          0         -1      )
                  (     0         -1          0      )

 cart.    s(37) = (  1.0000000  0.0000000  0.0000000 )
                  (  0.0000000  0.0000000 -1.0000000 )
                  (  0.0000000 -1.0000000  0.0000000 )


      isym = 38     inv. 180 deg rotation - cart. axis [0,1,-1]  

 cryst.   s(38) = (     1          0          0      )
                  (     0          0          1      )
                  (     0          1          0      )

 cart.    s(38) = (  1.0000000  0.0000000  0.0000000 )
                  (  0.0000000  0.0000000  1.0000000 )
                  (  0.0000000  1.0000000  0.0000000 )


      isym = 39     inv.  90 deg rotation - cart. axis [-1,0,0]  

 cryst.   s(39) = (    -1          0          0      )
                  (     0          0          1      )
                  (     0         -1          0      )

 cart.    s(39) = ( -1.0000000  0.0000000  0.0000000 )
                  (  0.0000000  0.0000000 -1.0000000 )
                  (  0.0000000  1.0000000  0.0000000 )


      isym = 40     inv.  90 deg rotation - cart. axis [1,0,0]   

 cryst.   s(40) = (    -1          0          0      )
                  (     0          0         -1      )
                  (     0          1          0      )

 cart.    s(40) = ( -1.0000000  0.0000000  0.0000000 )
                  (  0.0000000  0.0000000  1.0000000 )
                  (  0.0000000 -1.0000000  0.0000000 )


      isym = 41     inv. 120 deg rotation - cart. axis [-1,-1,-1]

 cryst.   s(41) = (     0          0         -1      )
                  (    -1          0          0      )
                  (     0         -1          0      )

 cart.    s(41) = (  0.0000000 -1.0000000  0.0000000 )
                  (  0.0000000  0.0000000 -1.0000000 )
                  ( -1.0000000  0.0000000  0.0000000 )


      isym = 42     inv. 120 deg rotation - cart. axis [-1,1,1]  

 cryst.   s(42) = (     0          0          1      )
                  (     1          0          0      )
                  (     0         -1          0      )

 cart.    s(42) = (  0.0000000  1.0000000  0.0000000 )
                  (  0.0000000  0.0000000 -1.0000000 )
                  (  1.0000000  0.0000000  0.0000000 )


      isym = 43     inv. 120 deg rotation - cart. axis [1,1,-1]  

 cryst.   s(43) = (     0          0          1      )
                  (    -1          0          0      )
                  (     0          1          0      )

 cart.    s(43) = (  0.0000000 -1.0000000  0.0000000 )
                  (  0.0000000  0.0000000  1.0000000 )
                  (  1.0000000  0.0000000  0.0000000 )


      isym = 44     inv. 120 deg rotation - cart. axis [1,-1,1]  

 cryst.   s(44) = (     0          0         -1      )
                  (     1          0          0      )
                  (     0          1          0      )

 cart.    s(44) = (  0.0000000  1.0000000  0.0000000 )
                  (  0.0000000  0.0000000  1.0000000 )
                  ( -1.0000000  0.0000000  0.0000000 )


      isym = 45     inv. 120 deg rotation - cart. axis [1,1,1]   

 cryst.   s(45) = (     0         -1          0      )
                  (     0          0         -1      )
                  (    -1          0          0      )

 cart.    s(45) = (  0.0000000  0.0000000 -1.0000000 )
                  ( -1.0000000  0.0000000  0.0000000 )
                  (  0.0000000 -1.0000000  0.0000000 )


      isym = 46     inv. 120 deg rotation - cart. axis [-1,1,-1] 

 cryst.   s(46) = (     0          1          0      )
                  (     0          0          1      )
                  (    -1          0          0      )

 cart.    s(46) = (  0.0000000  0.0000000 -1.0000000 )
                  (  1.0000000  0.0000000  0.0000000 )
                  (  0.0000000  1.0000000  0.0000000 )


      isym = 47     inv. 120 deg rotation - cart. axis [1,-1,-1] 

 cryst.   s(47) = (     0          1          0      )
                  (     0          0         -1      )
                  (     1          0          0      )

 cart.    s(47) = (  0.0000000  0.0000000  1.0000000 )
                  (  1.0000000  0.0000000  0.0000000 )
                  (  0.0000000 -1.0000000  0.0000000 )


      isym = 48     inv. 120 deg rotation - cart. axis [-1,-1,1] 

 cryst.   s(48) = (     0         -1          0      )
                  (     0          0          1      )
                  (     1          0          0      )

 cart.    s(48) = (  0.0000000  0.0000000  1.0000000 )
                  ( -1.0000000  0.0000000  0.0000000 )
                  (  0.0000000  1.0000000  0.0000000 )


   Cartesian axes

     site n.     atom                  positions (alat units)
         1           Cr  tau(   1) = (   0.5000000   0.0000000   0.0000000  )
         2           Cr  tau(   2) = (   0.0000000   0.5000000   0.0000000  )
         3           Cr  tau(   3) = (   0.0000000   0.0000000   0.5000000  )
         4           Sn  tau(   4) = (   0.5000000   0.5000000   0.5000000  )
         5           N   tau(   5) = (   0.0000000   0.0000000   0.0000000  )

   Crystallographic axes

     site n.     atom                  positions (cryst. coord.)
         1           Cr  tau(   1) = (  0.5000000  0.0000000  0.0000000  )
         2           Cr  tau(   2) = (  0.0000000  0.5000000  0.0000000  )
         3           Cr  tau(   3) = (  0.0000000  0.0000000  0.5000000  )
         4           Sn  tau(   4) = (  0.5000000  0.5000000  0.5000000  )
         5           N   tau(   5) = (  0.0000000  0.0000000  0.0000000  )

     number of k points=    56  Marzari-Vanderbilt smearing, width (Ry)=  0.0100
                       cart. coord. in units 2pi/alat
        k(    1) = (   0.0000000   0.0000000   0.0000000), wk =   0.0007513
        k(    2) = (   0.0000000   0.0000000   0.0909091), wk =   0.0045079
        k(    3) = (   0.0000000   0.0000000   0.1818182), wk =   0.0045079
        k(    4) = (   0.0000000   0.0000000   0.2727273), wk =   0.0045079
        k(    5) = (   0.0000000   0.0000000   0.3636364), wk =   0.0045079
        k(    6) = (   0.0000000   0.0000000   0.4545455), wk =   0.0045079
        k(    7) = (   0.0000000   0.0909091   0.0909091), wk =   0.0090158
        k(    8) = (   0.0000000   0.0909091   0.1818182), wk =   0.0180316
        k(    9) = (   0.0000000   0.0909091   0.2727273), wk =   0.0180316
        k(   10) = (   0.0000000   0.0909091   0.3636364), wk =   0.0180316
        k(   11) = (   0.0000000   0.0909091   0.4545455), wk =   0.0180316
        k(   12) = (   0.0000000   0.1818182   0.1818182), wk =   0.0090158
        k(   13) = (   0.0000000   0.1818182   0.2727273), wk =   0.0180316
        k(   14) = (   0.0000000   0.1818182   0.3636364), wk =   0.0180316
        k(   15) = (   0.0000000   0.1818182   0.4545455), wk =   0.0180316
        k(   16) = (   0.0000000   0.2727273   0.2727273), wk =   0.0090158
        k(   17) = (   0.0000000   0.2727273   0.3636364), wk =   0.0180316
        k(   18) = (   0.0000000   0.2727273   0.4545455), wk =   0.0180316
        k(   19) = (   0.0000000   0.3636364   0.3636364), wk =   0.0090158
        k(   20) = (   0.0000000   0.3636364   0.4545455), wk =   0.0180316
        k(   21) = (   0.0000000   0.4545455   0.4545455), wk =   0.0090158
        k(   22) = (   0.0909091   0.0909091   0.0909091), wk =   0.0060105
        k(   23) = (   0.0909091   0.0909091   0.1818182), wk =   0.0180316
        k(   24) = (   0.0909091   0.0909091   0.2727273), wk =   0.0180316
        k(   25) = (   0.0909091   0.0909091   0.3636364), wk =   0.0180316
        k(   26) = (   0.0909091   0.0909091   0.4545455), wk =   0.0180316
        k(   27) = (   0.0909091   0.1818182   0.1818182), wk =   0.0180316
        k(   28) = (   0.0909091   0.1818182   0.2727273), wk =   0.0360631
        k(   29) = (   0.0909091   0.1818182   0.3636364), wk =   0.0360631
        k(   30) = (   0.0909091   0.1818182   0.4545455), wk =   0.0360631
        k(   31) = (   0.0909091   0.2727273   0.2727273), wk =   0.0180316
        k(   32) = (   0.0909091   0.2727273   0.3636364), wk =   0.0360631
        k(   33) = (   0.0909091   0.2727273   0.4545455), wk =   0.0360631
        k(   34) = (   0.0909091   0.3636364   0.3636364), wk =   0.0180316
        k(   35) = (   0.0909091   0.3636364   0.4545455), wk =   0.0360631
        k(   36) = (   0.0909091   0.4545455   0.4545455), wk =   0.0180316
        k(   37) = (   0.1818182   0.1818182   0.1818182), wk =   0.0060105
        k(   38) = (   0.1818182   0.1818182   0.2727273), wk =   0.0180316
        k(   39) = (   0.1818182   0.1818182   0.3636364), wk =   0.0180316
        k(   40) = (   0.1818182   0.1818182   0.4545455), wk =   0.0180316
        k(   41) = (   0.1818182   0.2727273   0.2727273), wk =   0.0180316
        k(   42) = (   0.1818182   0.2727273   0.3636364), wk =   0.0360631
        k(   43) = (   0.1818182   0.2727273   0.4545455), wk =   0.0360631
        k(   44) = (   0.1818182   0.3636364   0.3636364), wk =   0.0180316
        k(   45) = (   0.1818182   0.3636364   0.4545455), wk =   0.0360631
        k(   46) = (   0.1818182   0.4545455   0.4545455), wk =   0.0180316
        k(   47) = (   0.2727273   0.2727273   0.2727273), wk =   0.0060105
        k(   48) = (   0.2727273   0.2727273   0.3636364), wk =   0.0180316
        k(   49) = (   0.2727273   0.2727273   0.4545455), wk =   0.0180316
        k(   50) = (   0.2727273   0.3636364   0.3636364), wk =   0.0180316
        k(   51) = (   0.2727273   0.3636364   0.4545455), wk =   0.0360631
        k(   52) = (   0.2727273   0.4545455   0.4545455), wk =   0.0180316
        k(   53) = (   0.3636364   0.3636364   0.3636364), wk =   0.0060105
        k(   54) = (   0.3636364   0.3636364   0.4545455), wk =   0.0180316
        k(   55) = (   0.3636364   0.4545455   0.4545455), wk =   0.0180316
        k(   56) = (   0.4545455   0.4545455   0.4545455), wk =   0.0060105

                       cryst. coord.
        k(    1) = (   0.0000000   0.0000000   0.0000000), wk =   0.0007513
        k(    2) = (   0.0000000   0.0000000   0.0909091), wk =   0.0045079
        k(    3) = (   0.0000000   0.0000000   0.1818182), wk =   0.0045079
        k(    4) = (   0.0000000   0.0000000   0.2727273), wk =   0.0045079
        k(    5) = (   0.0000000   0.0000000   0.3636364), wk =   0.0045079
        k(    6) = (   0.0000000   0.0000000   0.4545455), wk =   0.0045079
        k(    7) = (   0.0000000   0.0909091   0.0909091), wk =   0.0090158
        k(    8) = (   0.0000000   0.0909091   0.1818182), wk =   0.0180316
        k(    9) = (   0.0000000   0.0909091   0.2727273), wk =   0.0180316
        k(   10) = (   0.0000000   0.0909091   0.3636364), wk =   0.0180316
        k(   11) = (   0.0000000   0.0909091   0.4545455), wk =   0.0180316
        k(   12) = (   0.0000000   0.1818182   0.1818182), wk =   0.0090158
        k(   13) = (   0.0000000   0.1818182   0.2727273), wk =   0.0180316
        k(   14) = (   0.0000000   0.1818182   0.3636364), wk =   0.0180316
        k(   15) = (   0.0000000   0.1818182   0.4545455), wk =   0.0180316
        k(   16) = (   0.0000000   0.2727273   0.2727273), wk =   0.0090158
        k(   17) = (   0.0000000   0.2727273   0.3636364), wk =   0.0180316
        k(   18) = (   0.0000000   0.2727273   0.4545455), wk =   0.0180316
        k(   19) = (   0.0000000   0.3636364   0.3636364), wk =   0.0090158
        k(   20) = (   0.0000000   0.3636364   0.4545455), wk =   0.0180316
        k(   21) = (   0.0000000   0.4545455   0.4545455), wk =   0.0090158
        k(   22) = (   0.0909091   0.0909091   0.0909091), wk =   0.0060105
        k(   23) = (   0.0909091   0.0909091   0.1818182), wk =   0.0180316
        k(   24) = (   0.0909091   0.0909091   0.2727273), wk =   0.0180316
        k(   25) = (   0.0909091   0.0909091   0.3636364), wk =   0.0180316
        k(   26) = (   0.0909091   0.0909091   0.4545455), wk =   0.0180316
        k(   27) = (   0.0909091   0.1818182   0.1818182), wk =   0.0180316
        k(   28) = (   0.0909091   0.1818182   0.2727273), wk =   0.0360631
        k(   29) = (   0.0909091   0.1818182   0.3636364), wk =   0.0360631
        k(   30) = (   0.0909091   0.1818182   0.4545455), wk =   0.0360631
        k(   31) = (   0.0909091   0.2727273   0.2727273), wk =   0.0180316
        k(   32) = (   0.0909091   0.2727273   0.3636364), wk =   0.0360631
        k(   33) = (   0.0909091   0.2727273   0.4545455), wk =   0.0360631
        k(   34) = (   0.0909091   0.3636364   0.3636364), wk =   0.0180316
        k(   35) = (   0.0909091   0.3636364   0.4545455), wk =   0.0360631
        k(   36) = (   0.0909091   0.4545455   0.4545455), wk =   0.0180316
        k(   37) = (   0.1818182   0.1818182   0.1818182), wk =   0.0060105
        k(   38) = (   0.1818182   0.1818182   0.2727273), wk =   0.0180316
        k(   39) = (   0.1818182   0.1818182   0.3636364), wk =   0.0180316
        k(   40) = (   0.1818182   0.1818182   0.4545455), wk =   0.0180316
        k(   41) = (   0.1818182   0.2727273   0.2727273), wk =   0.0180316
        k(   42) = (   0.1818182   0.2727273   0.3636364), wk =   0.0360631
        k(   43) = (   0.1818182   0.2727273   0.4545455), wk =   0.0360631
        k(   44) = (   0.1818182   0.3636364   0.3636364), wk =   0.0180316
        k(   45) = (   0.1818182   0.3636364   0.4545455), wk =   0.0360631
        k(   46) = (   0.1818182   0.4545455   0.4545455), wk =   0.0180316
        k(   47) = (   0.2727273   0.2727273   0.2727273), wk =   0.0060105
        k(   48) = (   0.2727273   0.2727273   0.3636364), wk =   0.0180316
        k(   49) = (   0.2727273   0.2727273   0.4545455), wk =   0.0180316
        k(   50) = (   0.2727273   0.3636364   0.3636364), wk =   0.0180316
        k(   51) = (   0.2727273   0.3636364   0.4545455), wk =   0.0360631
        k(   52) = (   0.2727273   0.4545455   0.4545455), wk =   0.0180316
        k(   53) = (   0.3636364   0.3636364   0.3636364), wk =   0.0060105
        k(   54) = (   0.3636364   0.3636364   0.4545455), wk =   0.0180316
        k(   55) = (   0.3636364   0.4545455   0.4545455), wk =   0.0180316
        k(   56) = (   0.4545455   0.4545455   0.4545455), wk =   0.0060105

     Dense  grid:    75037 G-vectors     FFT dimensions: (  54,  54,  54)

     Smooth grid:    26745 G-vectors     FFT dimensions: (  40,  40,  40)

     Dynamical RAM for                 wfc:       1.88 MB

     Dynamical RAM for     wfc (w. buffer):     212.06 MB

     Dynamical RAM for           str. fact:       3.43 MB

     Dynamical RAM for           local pot:       0.00 MB

     Dynamical RAM for          nlocal pot:       4.06 MB

     Dynamical RAM for                qrad:       5.27 MB

     Dynamical RAM for          rho,v,vnew:      14.08 MB

     Dynamical RAM for               rhoin:       4.69 MB

     Dynamical RAM for            rho*nmix:      36.64 MB

     Dynamical RAM for           G-vectors:       4.50 MB

     Dynamical RAM for          h,s,v(r/c):       0.25 MB

     Dynamical RAM for          <psi|beta>:       0.05 MB

     Dynamical RAM for                 psi:       3.75 MB

     Dynamical RAM for                hpsi:       3.75 MB

     Dynamical RAM for                spsi:       3.75 MB

     Dynamical RAM for      wfcinit/wfcrot:       4.40 MB

     Dynamical RAM for           addusdens:     217.55 MB

     Dynamical RAM for          addusforce:     222.15 MB

     Dynamical RAM for         addusstress:     231.86 MB

     Estimated static dynamical RAM per process >     259.88 MB

     Estimated max dynamical RAM per process >     528.38 MB

     Check: negative core charge=   -0.000010
     Generating pointlists ...
     new r_m :   0.2063 (alat units)  1.5489 (a.u.) for type    1
     new r_m :   0.2063 (alat units)  1.5489 (a.u.) for type    2
     new r_m :   0.2917 (alat units)  2.1905 (a.u.) for type    3

     Initial potential from superposition of free atoms

     starting charge      56.9999, renormalised to      61.0000

     negative rho (up, down):  1.676E-03 7.909E-04
     Starting wfcs are   43 randomized atomic wfcs

     total cpu time spent up to now is        4.4 secs

     per-process dynamical memory:   933.5 Mb

     Self-consistent Calculation
[tb_dev] Currently allocated     1.58E+00 Mbytes, locked:    0 /  10
[tb_pin] Currently allocated     0.00E+00 Mbytes, locked:    0 /   0

     iteration #  1     ecut=    60.00 Ry     beta= 0.40
     Davidson diagonalization with overlap

---- Real-time Memory Report at c_bands before calling an iterative solver
          1067 MiB given to the printing process from OS
           911 MiB allocation reported by mallinfo(arena+hblkhd)
         58771 MiB available memory on the node where the printing process lives
     GPU memory used/free/total (MiB): 834 / 15446 / 16280
------------------
     ethr =  1.00E-02,  avg # of iterations =  3.9

     negative rho (up, down):  1.418E-03 3.072E-03

     total cpu time spent up to now is        8.1 secs

     total energy              =    -703.55664382 Ry
     estimated scf accuracy    <       6.76103116 Ry

     total magnetization       =     6.05 Bohr mag/cell
     absolute magnetization    =     6.23 Bohr mag/cell
[tb_dev] Currently allocated     2.30E+00 Mbytes, locked:    0 /  10
[tb_pin] Currently allocated     0.00E+00 Mbytes, locked:    0 /   0

     iteration #  2     ecut=    60.00 Ry     beta= 0.40
     Davidson diagonalization with overlap

---- Real-time Memory Report at c_bands before calling an iterative solver
          1113 MiB given to the printing process from OS
           944 MiB allocation reported by mallinfo(arena+hblkhd)
         58754 MiB available memory on the node where the printing process lives
     GPU memory used/free/total (MiB): 1190 / 15090 / 16280
------------------
     ethr =  1.00E-02,  avg # of iterations =  3.9

     negative rho (up, down):  6.542E-04 4.078E-03

     total cpu time spent up to now is       12.0 secs

     total energy              =    -704.68549862 Ry
     estimated scf accuracy    <       2.29076388 Ry

     total magnetization       =     8.63 Bohr mag/cell
     absolute magnetization    =     9.35 Bohr mag/cell
[tb_dev] Currently allocated     2.30E+00 Mbytes, locked:    0 /  10
[tb_pin] Currently allocated     0.00E+00 Mbytes, locked:    0 /   0

     iteration #  3     ecut=    60.00 Ry     beta= 0.40
     Davidson diagonalization with overlap

---- Real-time Memory Report at c_bands before calling an iterative solver
          1121 MiB given to the printing process from OS
           944 MiB allocation reported by mallinfo(arena+hblkhd)
         58753 MiB available memory on the node where the printing process lives
     GPU memory used/free/total (MiB): 1190 / 15090 / 16280
------------------
     ethr =  3.76E-03,  avg # of iterations =  3.4

     negative rho (up, down):  3.830E-05 6.235E-03

     total cpu time spent up to now is       15.2 secs

     total energy              =    -705.19828095 Ry
     estimated scf accuracy    <       0.18915700 Ry

     total magnetization       =     7.47 Bohr mag/cell
     absolute magnetization    =     7.83 Bohr mag/cell
[tb_dev] Currently allocated     2.30E+00 Mbytes, locked:    0 /  10
[tb_pin] Currently allocated     0.00E+00 Mbytes, locked:    0 /   0

     iteration #  4     ecut=    60.00 Ry     beta= 0.40
     Davidson diagonalization with overlap

---- Real-time Memory Report at c_bands before calling an iterative solver
          1126 MiB given to the printing process from OS
           944 MiB allocation reported by mallinfo(arena+hblkhd)
         58748 MiB available memory on the node where the printing process lives
     GPU memory used/free/total (MiB): 1190 / 15090 / 16280
------------------
     ethr =  3.10E-04,  avg # of iterations =  3.3

     negative rho (up, down):  0.000E+00 6.904E-03

     total cpu time spent up to now is       18.7 secs

     total energy              =    -705.24338949 Ry
     estimated scf accuracy    <       0.09334591 Ry

     total magnetization       =     6.63 Bohr mag/cell
     absolute magnetization    =     7.13 Bohr mag/cell
[tb_dev] Currently allocated     2.30E+00 Mbytes, locked:    0 /  10
[tb_pin] Currently allocated     0.00E+00 Mbytes, locked:    0 /   0

     iteration #  5     ecut=    60.00 Ry     beta= 0.40
     Davidson diagonalization with overlap

---- Real-time Memory Report at c_bands before calling an iterative solver
          1129 MiB given to the printing process from OS
           944 MiB allocation reported by mallinfo(arena+hblkhd)
         58746 MiB available memory on the node where the printing process lives
     GPU memory used/free/total (MiB): 1190 / 15090 / 16280
------------------
     ethr =  1.53E-04,  avg # of iterations =  2.8

     negative rho (up, down):  0.000E+00 7.139E-03

     total cpu time spent up to now is       21.6 secs

     total energy              =    -705.26674657 Ry
     estimated scf accuracy    <       0.02220908 Ry

     total magnetization       =     6.27 Bohr mag/cell
     absolute magnetization    =     6.80 Bohr mag/cell
[tb_dev] Currently allocated     2.30E+00 Mbytes, locked:    0 /  10
[tb_pin] Currently allocated     0.00E+00 Mbytes, locked:    0 /   0

     iteration #  6     ecut=    60.00 Ry     beta= 0.40
     Davidson diagonalization with overlap

---- Real-time Memory Report at c_bands before calling an iterative solver
          1132 MiB given to the printing process from OS
           944 MiB allocation reported by mallinfo(arena+hblkhd)
         58744 MiB available memory on the node where the printing process lives
     GPU memory used/free/total (MiB): 1190 / 15090 / 16280
------------------
     ethr =  3.64E-05,  avg # of iterations =  5.2

     negative rho (up, down):  0.000E+00 6.308E-03

     total cpu time spent up to now is       26.2 secs

     total energy              =    -705.28421548 Ry
     estimated scf accuracy    <       0.01756413 Ry

     total magnetization       =     5.23 Bohr mag/cell
     absolute magnetization    =     5.77 Bohr mag/cell
[tb_dev] Currently allocated     2.30E+00 Mbytes, locked:    0 /  10
[tb_pin] Currently allocated     0.00E+00 Mbytes, locked:    0 /   0

     iteration #  7     ecut=    60.00 Ry     beta= 0.40
     Davidson diagonalization with overlap

---- Real-time Memory Report at c_bands before calling an iterative solver
          1137 MiB given to the printing process from OS
           944 MiB allocation reported by mallinfo(arena+hblkhd)
         58739 MiB available memory on the node where the printing process lives
     GPU memory used/free/total (MiB): 1190 / 15090 / 16280
------------------
     ethr =  2.88E-05,  avg # of iterations =  3.0

     negative rho (up, down):  8.164E-05 4.560E-03

     total cpu time spent up to now is       29.3 secs

     total energy              =    -705.29106292 Ry
     estimated scf accuracy    <       0.00304769 Ry

     total magnetization       =     4.82 Bohr mag/cell
     absolute magnetization    =     5.31 Bohr mag/cell
[tb_dev] Currently allocated     2.30E+00 Mbytes, locked:    0 /  10
[tb_pin] Currently allocated     0.00E+00 Mbytes, locked:    0 /   0

     iteration #  8     ecut=    60.00 Ry     beta= 0.40
     Davidson diagonalization with overlap

---- Real-time Memory Report at c_bands before calling an iterative solver
          1141 MiB given to the printing process from OS
           960 MiB allocation reported by mallinfo(arena+hblkhd)
         58735 MiB available memory on the node where the printing process lives
     GPU memory used/free/total (MiB): 1190 / 15090 / 16280
------------------
     ethr =  5.00E-06,  avg # of iterations =  4.9

     negative rho (up, down):  1.588E-04 4.181E-03

     total cpu time spent up to now is       33.5 secs

     total energy              =    -705.29334024 Ry
     estimated scf accuracy    <       0.00279761 Ry

     total magnetization       =     4.48 Bohr mag/cell
     absolute magnetization    =     4.89 Bohr mag/cell
[tb_dev] Currently allocated     2.30E+00 Mbytes, locked:    0 /  10
[tb_pin] Currently allocated     0.00E+00 Mbytes, locked:    0 /   0

     iteration #  9     ecut=    60.00 Ry     beta= 0.40
     Davidson diagonalization with overlap

---- Real-time Memory Report at c_bands before calling an iterative solver
          1145 MiB given to the printing process from OS
           960 MiB allocation reported by mallinfo(arena+hblkhd)
         58732 MiB available memory on the node where the printing process lives
     GPU memory used/free/total (MiB): 1190 / 15090 / 16280
------------------
     ethr =  4.59E-06,  avg # of iterations =  2.9

     negative rho (up, down):  2.166E-04 3.781E-03

     total cpu time spent up to now is       36.6 secs

     total energy              =    -705.29395267 Ry
     estimated scf accuracy    <       0.00032766 Ry

     total magnetization       =     4.39 Bohr mag/cell
     absolute magnetization    =     4.76 Bohr mag/cell
[tb_dev] Currently allocated     2.30E+00 Mbytes, locked:    0 /  10
[tb_pin] Currently allocated     0.00E+00 Mbytes, locked:    0 /   0

     iteration # 10     ecut=    60.00 Ry     beta= 0.40
     Davidson diagonalization with overlap

---- Real-time Memory Report at c_bands before calling an iterative solver
          1149 MiB given to the printing process from OS
           960 MiB allocation reported by mallinfo(arena+hblkhd)
         58729 MiB available memory on the node where the printing process lives
     GPU memory used/free/total (MiB): 1190 / 15090 / 16280
------------------
     ethr =  5.37E-07,  avg # of iterations =  5.0

     negative rho (up, down):  2.177E-04 3.786E-03

     total cpu time spent up to now is       40.9 secs

     total energy              =    -705.29455252 Ry
     estimated scf accuracy    <       0.00017445 Ry

     total magnetization       =     4.20 Bohr mag/cell
     absolute magnetization    =     4.55 Bohr mag/cell
[tb_dev] Currently allocated     2.30E+00 Mbytes, locked:    0 /  10
[tb_pin] Currently allocated     0.00E+00 Mbytes, locked:    0 /   0

     iteration # 11     ecut=    60.00 Ry     beta= 0.40
     Davidson diagonalization with overlap

---- Real-time Memory Report at c_bands before calling an iterative solver
          1149 MiB given to the printing process from OS
           960 MiB allocation reported by mallinfo(arena+hblkhd)
         58731 MiB available memory on the node where the printing process lives
     GPU memory used/free/total (MiB): 1190 / 15090 / 16280
------------------
     ethr =  2.86E-07,  avg # of iterations =  4.1

     negative rho (up, down):  2.633E-04 3.502E-03

     total cpu time spent up to now is       44.5 secs

     total energy              =    -705.29454249 Ry
     estimated scf accuracy    <       0.00012512 Ry

     total magnetization       =     4.21 Bohr mag/cell
     absolute magnetization    =     4.55 Bohr mag/cell
[tb_dev] Currently allocated     2.30E+00 Mbytes, locked:    0 /  10
[tb_pin] Currently allocated     0.00E+00 Mbytes, locked:    0 /   0

     iteration # 12     ecut=    60.00 Ry     beta= 0.40
     Davidson diagonalization with overlap

---- Real-time Memory Report at c_bands before calling an iterative solver
          1149 MiB given to the printing process from OS
           960 MiB allocation reported by mallinfo(arena+hblkhd)
         58732 MiB available memory on the node where the printing process lives
     GPU memory used/free/total (MiB): 1190 / 15090 / 16280
------------------
     c_bands:  1 eigenvalues not converged
     ethr =  2.05E-07,  avg # of iterations =  3.6

     negative rho (up, down):  2.851E-04 3.360E-03

     total cpu time spent up to now is       48.1 secs

     total energy              =    -705.29471673 Ry
     estimated scf accuracy    <       0.00006977 Ry

     total magnetization       =     4.06 Bohr mag/cell
     absolute magnetization    =     4.39 Bohr mag/cell
[tb_dev] Currently allocated     2.30E+00 Mbytes, locked:    0 /  10
[tb_pin] Currently allocated     0.00E+00 Mbytes, locked:    0 /   0

     iteration # 13     ecut=    60.00 Ry     beta= 0.40
     Davidson diagonalization with overlap

---- Real-time Memory Report at c_bands before calling an iterative solver
          1149 MiB given to the printing process from OS
           960 MiB allocation reported by mallinfo(arena+hblkhd)
         58732 MiB available memory on the node where the printing process lives
     GPU memory used/free/total (MiB): 1190 / 15090 / 16280
------------------
     ethr =  1.14E-07,  avg # of iterations =  3.2

     negative rho (up, down):  2.815E-04 3.379E-03

     total cpu time spent up to now is       51.3 secs

     total energy              =    -705.29480403 Ry
     estimated scf accuracy    <       0.00011696 Ry

     total magnetization       =     3.95 Bohr mag/cell
     absolute magnetization    =     4.27 Bohr mag/cell
[tb_dev] Currently allocated     2.30E+00 Mbytes, locked:    0 /  10
[tb_pin] Currently allocated     0.00E+00 Mbytes, locked:    0 /   0

     iteration # 14     ecut=    60.00 Ry     beta= 0.40
     Davidson diagonalization with overlap

---- Real-time Memory Report at c_bands before calling an iterative solver
          1149 MiB given to the printing process from OS
           960 MiB allocation reported by mallinfo(arena+hblkhd)
         58732 MiB available memory on the node where the printing process lives
     GPU memory used/free/total (MiB): 1190 / 15090 / 16280
------------------
     ethr =  1.14E-07,  avg # of iterations =  3.9

     negative rho (up, down):  2.431E-04 3.626E-03

     total cpu time spent up to now is       55.0 secs

     total energy              =    -705.29448588 Ry
     estimated scf accuracy    <       0.00009617 Ry

     total magnetization       =     3.96 Bohr mag/cell
     absolute magnetization    =     4.27 Bohr mag/cell
[tb_dev] Currently allocated     2.30E+00 Mbytes, locked:    0 /  10
[tb_pin] Currently allocated     0.00E+00 Mbytes, locked:    0 /   0

     iteration # 15     ecut=    60.00 Ry     beta= 0.40
     Davidson diagonalization with overlap

---- Real-time Memory Report at c_bands before calling an iterative solver
          1149 MiB given to the printing process from OS
           960 MiB allocation reported by mallinfo(arena+hblkhd)
         58733 MiB available memory on the node where the printing process lives
     GPU memory used/free/total (MiB): 1190 / 15090 / 16280
------------------
     ethr =  1.14E-07,  avg # of iterations =  4.3

     negative rho (up, down):  3.900E-04 2.692E-03

     total cpu time spent up to now is       59.0 secs

     total energy              =    -705.29215889 Ry
     estimated scf accuracy    <       0.00007264 Ry

     total magnetization       =     4.13 Bohr mag/cell
     absolute magnetization    =     4.45 Bohr mag/cell
[tb_dev] Currently allocated     2.30E+00 Mbytes, locked:    0 /  10
[tb_pin] Currently allocated     0.00E+00 Mbytes, locked:    0 /   0

     iteration # 16     ecut=    60.00 Ry     beta= 0.40
     Davidson diagonalization with overlap

---- Real-time Memory Report at c_bands before calling an iterative solver
          1149 MiB given to the printing process from OS
           960 MiB allocation reported by mallinfo(arena+hblkhd)
         58733 MiB available memory on the node where the printing process lives
     GPU memory used/free/total (MiB): 1190 / 15090 / 16280
------------------
     ethr =  1.14E-07,  avg # of iterations =  6.3

     negative rho (up, down):  3.339E-04 3.041E-03

     total cpu time spent up to now is       64.2 secs

     total energy              =    -705.29461320 Ry
     estimated scf accuracy    <       0.00012173 Ry

     total magnetization       =     3.37 Bohr mag/cell
     absolute magnetization    =     3.67 Bohr mag/cell
[tb_dev] Currently allocated     2.30E+00 Mbytes, locked:    0 /  10
[tb_pin] Currently allocated     0.00E+00 Mbytes, locked:    0 /   0

     iteration # 17     ecut=    60.00 Ry     beta= 0.40
     Davidson diagonalization with overlap

---- Real-time Memory Report at c_bands before calling an iterative solver
          1149 MiB given to the printing process from OS
           960 MiB allocation reported by mallinfo(arena+hblkhd)
         58734 MiB available memory on the node where the printing process lives
     GPU memory used/free/total (MiB): 1190 / 15090 / 16280
------------------
     ethr =  1.14E-07,  avg # of iterations =  3.8

     negative rho (up, down):  3.262E-04 3.094E-03

     total cpu time spent up to now is       67.7 secs

     total energy              =    -705.29494683 Ry
     estimated scf accuracy    <       0.00008014 Ry

     total magnetization       =     3.65 Bohr mag/cell
     absolute magnetization    =     3.96 Bohr mag/cell
[tb_dev] Currently allocated     2.30E+00 Mbytes, locked:    0 /  10
[tb_pin] Currently allocated     0.00E+00 Mbytes, locked:    0 /   0

     iteration # 18     ecut=    60.00 Ry     beta= 0.40
     Davidson diagonalization with overlap

---- Real-time Memory Report at c_bands before calling an iterative solver
          1150 MiB given to the printing process from OS
           960 MiB allocation reported by mallinfo(arena+hblkhd)
         58734 MiB available memory on the node where the printing process lives
     GPU memory used/free/total (MiB): 1190 / 15090 / 16280
------------------
     ethr =  1.14E-07,  avg # of iterations =  2.0

     negative rho (up, down):  2.998E-04 3.262E-03

     total cpu time spent up to now is       70.3 secs

     total energy              =    -705.29477940 Ry
     estimated scf accuracy    <       0.00004920 Ry

     total magnetization       =     3.70 Bohr mag/cell
     absolute magnetization    =     4.01 Bohr mag/cell
[tb_dev] Currently allocated     2.30E+00 Mbytes, locked:    0 /  10
[tb_pin] Currently allocated     0.00E+00 Mbytes, locked:    0 /   0

     iteration # 19     ecut=    60.00 Ry     beta= 0.40
     Davidson diagonalization with overlap

---- Real-time Memory Report at c_bands before calling an iterative solver
          1150 MiB given to the printing process from OS
           960 MiB allocation reported by mallinfo(arena+hblkhd)
         58734 MiB available memory on the node where the printing process lives
     GPU memory used/free/total (MiB): 1190 / 15090 / 16280
------------------
     ethr =  8.07E-08,  avg # of iterations =  4.3

     negative rho (up, down):  2.581E-04 3.526E-03

     total cpu time spent up to now is       73.9 secs

     total energy              =    -705.29455209 Ry
     estimated scf accuracy    <       0.00003593 Ry

     total magnetization       =     3.84 Bohr mag/cell
     absolute magnetization    =     4.15 Bohr mag/cell
[tb_dev] Currently allocated     2.30E+00 Mbytes, locked:    0 /  10
[tb_pin] Currently allocated     0.00E+00 Mbytes, locked:    0 /   0

     iteration # 20     ecut=    60.00 Ry     beta= 0.40
     Davidson diagonalization with overlap

---- Real-time Memory Report at c_bands before calling an iterative solver
          1150 MiB given to the printing process from OS
           960 MiB allocation reported by mallinfo(arena+hblkhd)
         58734 MiB available memory on the node where the printing process lives
     GPU memory used/free/total (MiB): 1190 / 15090 / 16280
------------------
     ethr =  5.89E-08,  avg # of iterations =  4.7

     negative rho (up, down):  3.499E-04 2.937E-03

     total cpu time spent up to now is       78.0 secs

     total energy              =    -705.29393255 Ry
     estimated scf accuracy    <       0.00004147 Ry

     total magnetization       =     4.03 Bohr mag/cell
     absolute magnetization    =     4.35 Bohr mag/cell
[tb_dev] Currently allocated     2.30E+00 Mbytes, locked:    0 /  10
[tb_pin] Currently allocated     0.00E+00 Mbytes, locked:    0 /   0

     iteration # 21     ecut=    60.00 Ry     beta= 0.40
     Davidson diagonalization with overlap

---- Real-time Memory Report at c_bands before calling an iterative solver
          1150 MiB given to the printing process from OS
           960 MiB allocation reported by mallinfo(arena+hblkhd)
         58735 MiB available memory on the node where the printing process lives
     GPU memory used/free/total (MiB): 1190 / 15090 / 16280
------------------
     ethr =  5.89E-08,  avg # of iterations =  5.8

     negative rho (up, down):  3.209E-04 3.119E-03

     total cpu time spent up to now is       82.9 secs

     total energy              =    -705.29482695 Ry
     estimated scf accuracy    <       0.00007333 Ry

     total magnetization       =     3.57 Bohr mag/cell
     absolute magnetization    =     3.88 Bohr mag/cell
[tb_dev] Currently allocated     2.30E+00 Mbytes, locked:    0 /  10
[tb_pin] Currently allocated     0.00E+00 Mbytes, locked:    0 /   0

     iteration # 22     ecut=    60.00 Ry     beta= 0.40
     Davidson diagonalization with overlap

---- Real-time Memory Report at c_bands before calling an iterative solver
          1150 MiB given to the printing process from OS
           960 MiB allocation reported by mallinfo(arena+hblkhd)
         58736 MiB available memory on the node where the printing process lives
     GPU memory used/free/total (MiB): 1190 / 15090 / 16280
------------------
     ethr =  5.89E-08,  avg # of iterations =  3.5

     negative rho (up, down):  3.342E-04 3.039E-03

     total cpu time spent up to now is       86.3 secs

     total energy              =    -705.29496712 Ry
     estimated scf accuracy    <       0.00005354 Ry

     total magnetization       =     3.72 Bohr mag/cell
     absolute magnetization    =     4.03 Bohr mag/cell
[tb_dev] Currently allocated     2.30E+00 Mbytes, locked:    0 /  10
[tb_pin] Currently allocated     0.00E+00 Mbytes, locked:    0 /   0

     iteration # 23     ecut=    60.00 Ry     beta= 0.40
     Davidson diagonalization with overlap

---- Real-time Memory Report at c_bands before calling an iterative solver
          1150 MiB given to the printing process from OS
           960 MiB allocation reported by mallinfo(arena+hblkhd)
         58735 MiB available memory on the node where the printing process lives
     GPU memory used/free/total (MiB): 1190 / 15090 / 16280
------------------
     ethr =  5.89E-08,  avg # of iterations =  2.1

     negative rho (up, down):  3.341E-04 3.044E-03

     total cpu time spent up to now is       88.9 secs

     total energy              =    -705.29498428 Ry
     estimated scf accuracy    <       0.00005692 Ry

     total magnetization       =     3.66 Bohr mag/cell
     absolute magnetization    =     3.97 Bohr mag/cell
[tb_dev] Currently allocated     2.30E+00 Mbytes, locked:    0 /  10
[tb_pin] Currently allocated     0.00E+00 Mbytes, locked:    0 /   0

     iteration # 24     ecut=    60.00 Ry     beta= 0.40
     Davidson diagonalization with overlap

---- Real-time Memory Report at c_bands before calling an iterative solver
          1150 MiB given to the printing process from OS
           960 MiB allocation reported by mallinfo(arena+hblkhd)
         58735 MiB available memory on the node where the printing process lives
     GPU memory used/free/total (MiB): 1190 / 15090 / 16280
------------------
     ethr =  5.89E-08,  avg # of iterations =  1.0

     negative rho (up, down):  3.290E-04 3.079E-03

     total cpu time spent up to now is       91.1 secs

     total energy              =    -705.29495827 Ry
     estimated scf accuracy    <       0.00005369 Ry

     total magnetization       =     3.66 Bohr mag/cell
     absolute magnetization    =     3.97 Bohr mag/cell
[tb_dev] Currently allocated     2.30E+00 Mbytes, locked:    0 /  10
[tb_pin] Currently allocated     0.00E+00 Mbytes, locked:    0 /   0

     iteration # 25     ecut=    60.00 Ry     beta= 0.40
     Davidson diagonalization with overlap

---- Real-time Memory Report at c_bands before calling an iterative solver
          1150 MiB given to the printing process from OS
           960 MiB allocation reported by mallinfo(arena+hblkhd)
         58735 MiB available memory on the node where the printing process lives
     GPU memory used/free/total (MiB): 1190 / 15090 / 16280
------------------
     ethr =  5.89E-08,  avg # of iterations =  1.1

     negative rho (up, down):  3.110E-04 3.205E-03

     total cpu time spent up to now is       93.3 secs

     total energy              =    -705.29481792 Ry
     estimated scf accuracy    <       0.00005157 Ry

     total magnetization       =     3.70 Bohr mag/cell
     absolute magnetization    =     4.00 Bohr mag/cell
[tb_dev] Currently allocated     2.30E+00 Mbytes, locked:    0 /  10
[tb_pin] Currently allocated     0.00E+00 Mbytes, locked:    0 /   0

     iteration # 26     ecut=    60.00 Ry     beta= 0.40
     Davidson diagonalization with overlap

---- Real-time Memory Report at c_bands before calling an iterative solver
          1150 MiB given to the printing process from OS
           960 MiB allocation reported by mallinfo(arena+hblkhd)
         58736 MiB available memory on the node where the printing process lives
     GPU memory used/free/total (MiB): 1190 / 15090 / 16280
------------------
     ethr =  5.89E-08,  avg # of iterations =  3.4

     negative rho (up, down):  2.108E-04 3.858E-03

     total cpu time spent up to now is       96.6 secs

     total energy              =    -705.29312318 Ry
     estimated scf accuracy    <       0.00005240 Ry

     total magnetization       =     3.81 Bohr mag/cell
     absolute magnetization    =     4.13 Bohr mag/cell
[tb_dev] Currently allocated     2.30E+00 Mbytes, locked:    0 /  10
[tb_pin] Currently allocated     0.00E+00 Mbytes, locked:    0 /   0

     iteration # 27     ecut=    60.00 Ry     beta= 0.40
     Davidson diagonalization with overlap

---- Real-time Memory Report at c_bands before calling an iterative solver
          1150 MiB given to the printing process from OS
           960 MiB allocation reported by mallinfo(arena+hblkhd)
         58736 MiB available memory on the node where the printing process lives
     GPU memory used/free/total (MiB): 1190 / 15090 / 16280
------------------
     ethr =  5.89E-08,  avg # of iterations =  6.1

     negative rho (up, down):  3.207E-04 3.124E-03

     total cpu time spent up to now is      101.7 secs

     total energy              =    -705.29332689 Ry
     estimated scf accuracy    <       0.00019591 Ry

     total magnetization       =     4.25 Bohr mag/cell
     absolute magnetization    =     4.59 Bohr mag/cell
[tb_dev] Currently allocated     2.30E+00 Mbytes, locked:    0 /  10
[tb_pin] Currently allocated     0.00E+00 Mbytes, locked:    0 /   0

     iteration # 28     ecut=    60.00 Ry     beta= 0.40
     Davidson diagonalization with overlap

---- Real-time Memory Report at c_bands before calling an iterative solver
          1150 MiB given to the printing process from OS
           960 MiB allocation reported by mallinfo(arena+hblkhd)
         58737 MiB available memory on the node where the printing process lives
     GPU memory used/free/total (MiB): 1190 / 15090 / 16280
------------------
     ethr =  5.89E-08,  avg # of iterations =  6.7

     negative rho (up, down):  4.039E-04 2.586E-03

     total cpu time spent up to now is      107.1 secs

     total energy              =    -705.29426750 Ry
     estimated scf accuracy    <       0.00004728 Ry

     total magnetization       =     3.73 Bohr mag/cell
     absolute magnetization    =     4.04 Bohr mag/cell
[tb_dev] Currently allocated     2.30E+00 Mbytes, locked:    0 /  10
[tb_pin] Currently allocated     0.00E+00 Mbytes, locked:    0 /   0

     iteration # 29     ecut=    60.00 Ry     beta= 0.40
     Davidson diagonalization with overlap

---- Real-time Memory Report at c_bands before calling an iterative solver
          1150 MiB given to the printing process from OS
           960 MiB allocation reported by mallinfo(arena+hblkhd)
         58736 MiB available memory on the node where the printing process lives
     GPU memory used/free/total (MiB): 1190 / 15090 / 16280
------------------
     ethr =  5.89E-08,  avg # of iterations =  5.7

     negative rho (up, down):  3.134E-04 3.175E-03

     total cpu time spent up to now is      111.9 secs

     total energy              =    -705.29366643 Ry
     estimated scf accuracy    <       0.00014549 Ry

     total magnetization       =     3.28 Bohr mag/cell
     absolute magnetization    =     3.58 Bohr mag/cell
[tb_dev] Currently allocated     2.30E+00 Mbytes, locked:    0 /  10
[tb_pin] Currently allocated     0.00E+00 Mbytes, locked:    0 /   0

     iteration # 30     ecut=    60.00 Ry     beta= 0.40
     Davidson diagonalization with overlap

---- Real-time Memory Report at c_bands before calling an iterative solver
          1150 MiB given to the printing process from OS
           960 MiB allocation reported by mallinfo(arena+hblkhd)
         58737 MiB available memory on the node where the printing process lives
     GPU memory used/free/total (MiB): 1190 / 15090 / 16280
------------------
     ethr =  5.89E-08,  avg # of iterations =  5.8

     negative rho (up, down):  2.614E-04 3.513E-03

     total cpu time spent up to now is      116.7 secs

     total energy              =    -705.29437301 Ry
     estimated scf accuracy    <       0.00004667 Ry

     total magnetization       =     3.78 Bohr mag/cell
     absolute magnetization    =     4.09 Bohr mag/cell
[tb_dev] Currently allocated     2.30E+00 Mbytes, locked:    0 /  10
[tb_pin] Currently allocated     0.00E+00 Mbytes, locked:    0 /   0

     iteration # 31     ecut=    60.00 Ry     beta= 0.40
     Davidson diagonalization with overlap

---- Real-time Memory Report at c_bands before calling an iterative solver
          1150 MiB given to the printing process from OS
           960 MiB allocation reported by mallinfo(arena+hblkhd)
         58736 MiB available memory on the node where the printing process lives
     GPU memory used/free/total (MiB): 1190 / 15090 / 16280
------------------
     ethr =  5.89E-08,  avg # of iterations =  5.5

     negative rho (up, down):  1.652E-04 4.142E-03

     total cpu time spent up to now is      121.3 secs

     total energy              =    -705.29312677 Ry
     estimated scf accuracy    <       0.00005181 Ry

     total magnetization       =     4.04 Bohr mag/cell
     absolute magnetization    =     4.35 Bohr mag/cell
[tb_dev] Currently allocated     2.30E+00 Mbytes, locked:    0 /  10
[tb_pin] Currently allocated     0.00E+00 Mbytes, locked:    0 /   0

     iteration # 32     ecut=    60.00 Ry     beta= 0.40
     Davidson diagonalization with overlap

---- Real-time Memory Report at c_bands before calling an iterative solver
          1150 MiB given to the printing process from OS
           960 MiB allocation reported by mallinfo(arena+hblkhd)
         58737 MiB available memory on the node where the printing process lives
     GPU memory used/free/total (MiB): 1190 / 15090 / 16280
------------------
     ethr =  5.89E-08,  avg # of iterations =  6.2

     negative rho (up, down):  1.807E-04 4.040E-03

     total cpu time spent up to now is      126.4 secs

     total energy              =    -705.29430327 Ry
     estimated scf accuracy    <       0.00057951 Ry

     total magnetization       =     4.34 Bohr mag/cell
     absolute magnetization    =     4.69 Bohr mag/cell
[tb_dev] Currently allocated     2.30E+00 Mbytes, locked:    0 /  10
[tb_pin] Currently allocated     0.00E+00 Mbytes, locked:    0 /   0

     iteration # 33     ecut=    60.00 Ry     beta= 0.40
     Davidson diagonalization with overlap

---- Real-time Memory Report at c_bands before calling an iterative solver
          1150 MiB given to the printing process from OS
           960 MiB allocation reported by mallinfo(arena+hblkhd)
         58737 MiB available memory on the node where the printing process lives
     GPU memory used/free/total (MiB): 1190 / 15090 / 16280
------------------
     ethr =  5.89E-08,  avg # of iterations =  2.5

     negative rho (up, down):  1.619E-04 4.162E-03

     total cpu time spent up to now is      129.2 secs

     total energy              =    -705.29409575 Ry
     estimated scf accuracy    <       0.00039223 Ry

     total magnetization       =     4.31 Bohr mag/cell
     absolute magnetization    =     4.66 Bohr mag/cell
[tb_dev] Currently allocated     2.30E+00 Mbytes, locked:    0 /  10
[tb_pin] Currently allocated     0.00E+00 Mbytes, locked:    0 /   0

     iteration # 34     ecut=    60.00 Ry     beta= 0.40
     Davidson diagonalization with overlap

---- Real-time Memory Report at c_bands before calling an iterative solver
          1150 MiB given to the printing process from OS
           960 MiB allocation reported by mallinfo(arena+hblkhd)
         58737 MiB available memory on the node where the printing process lives
     GPU memory used/free/total (MiB): 1190 / 15090 / 16280
------------------
     ethr =  5.89E-08,  avg # of iterations =  2.5

     negative rho (up, down):  1.636E-04 4.151E-03

     total cpu time spent up to now is      132.0 secs

     total energy              =    -705.29414056 Ry
     estimated scf accuracy    <       0.00063247 Ry

     total magnetization       =     4.34 Bohr mag/cell
     absolute magnetization    =     4.70 Bohr mag/cell
[tb_dev] Currently allocated     2.30E+00 Mbytes, locked:    0 /  10
[tb_pin] Currently allocated     0.00E+00 Mbytes, locked:    0 /   0

     iteration # 35     ecut=    60.00 Ry     beta= 0.40
     Davidson diagonalization with overlap

---- Real-time Memory Report at c_bands before calling an iterative solver
          1150 MiB given to the printing process from OS
           960 MiB allocation reported by mallinfo(arena+hblkhd)
         58737 MiB available memory on the node where the printing process lives
     GPU memory used/free/total (MiB): 1190 / 15090 / 16280
------------------
     ethr =  5.89E-08,  avg # of iterations =  1.0

     negative rho (up, down):  1.636E-04 4.151E-03

     total cpu time spent up to now is      134.2 secs

     total energy              =    -705.29414142 Ry
     estimated scf accuracy    <       0.00060614 Ry

     total magnetization       =     4.34 Bohr mag/cell
     absolute magnetization    =     4.70 Bohr mag/cell
[tb_dev] Currently allocated     2.30E+00 Mbytes, locked:    0 /  10
[tb_pin] Currently allocated     0.00E+00 Mbytes, locked:    0 /   0

     iteration # 36     ecut=    60.00 Ry     beta= 0.40
     Davidson diagonalization with overlap

---- Real-time Memory Report at c_bands before calling an iterative solver
          1150 MiB given to the printing process from OS
           960 MiB allocation reported by mallinfo(arena+hblkhd)
         58737 MiB available memory on the node where the printing process lives
     GPU memory used/free/total (MiB): 1190 / 15090 / 16280
------------------
     ethr =  5.89E-08,  avg # of iterations =  1.0

     negative rho (up, down):  1.686E-04 4.117E-03

     total cpu time spent up to now is      136.3 secs

     total energy              =    -705.29419764 Ry
     estimated scf accuracy    <       0.00060458 Ry

     total magnetization       =     4.34 Bohr mag/cell
     absolute magnetization    =     4.70 Bohr mag/cell
[tb_dev] Currently allocated     2.30E+00 Mbytes, locked:    0 /  10
[tb_pin] Currently allocated     0.00E+00 Mbytes, locked:    0 /   0

     iteration # 37     ecut=    60.00 Ry     beta= 0.40
     Davidson diagonalization with overlap

---- Real-time Memory Report at c_bands before calling an iterative solver
          1150 MiB given to the printing process from OS
           960 MiB allocation reported by mallinfo(arena+hblkhd)
         58737 MiB available memory on the node where the printing process lives
     GPU memory used/free/total (MiB): 1190 / 15090 / 16280
------------------
     ethr =  5.89E-08,  avg # of iterations =  1.0

     negative rho (up, down):  1.793E-04 4.046E-03

     total cpu time spent up to now is      138.6 secs

     total energy              =    -705.29430081 Ry
     estimated scf accuracy    <       0.00053763 Ry

     total magnetization       =     4.33 Bohr mag/cell
     absolute magnetization    =     4.69 Bohr mag/cell
[tb_dev] Currently allocated     2.30E+00 Mbytes, locked:    0 /  10
[tb_pin] Currently allocated     0.00E+00 Mbytes, locked:    0 /   0

     iteration # 38     ecut=    60.00 Ry     beta= 0.40
     Davidson diagonalization with overlap

---- Real-time Memory Report at c_bands before calling an iterative solver
          1150 MiB given to the printing process from OS
           960 MiB allocation reported by mallinfo(arena+hblkhd)
         58737 MiB available memory on the node where the printing process lives
     GPU memory used/free/total (MiB): 1190 / 15090 / 16280
------------------
     ethr =  5.89E-08,  avg # of iterations =  1.9

     negative rho (up, down):  3.776E-04 2.755E-03

     total cpu time spent up to now is      141.1 secs

     total energy              =    -705.29062447 Ry
     estimated scf accuracy    <       0.00040404 Ry

     total magnetization       =     4.31 Bohr mag/cell
     absolute magnetization    =     4.66 Bohr mag/cell
[tb_dev] Currently allocated     2.30E+00 Mbytes, locked:    0 /  10
[tb_pin] Currently allocated     0.00E+00 Mbytes, locked:    0 /   0

     iteration # 39     ecut=    60.00 Ry     beta= 0.40
     Davidson diagonalization with overlap

---- Real-time Memory Report at c_bands before calling an iterative solver
          1150 MiB given to the printing process from OS
           960 MiB allocation reported by mallinfo(arena+hblkhd)
         58737 MiB available memory on the node where the printing process lives
     GPU memory used/free/total (MiB): 1190 / 15090 / 16280
------------------
     ethr =  5.89E-08,  avg # of iterations =  7.4

     negative rho (up, down):  6.272E-04 1.625E-03

     total cpu time spent up to now is      147.0 secs

     total energy              =    -705.28763109 Ry
     estimated scf accuracy    <       0.00010888 Ry

     total magnetization       =     3.42 Bohr mag/cell
     absolute magnetization    =     3.72 Bohr mag/cell
[tb_dev] Currently allocated     2.30E+00 Mbytes, locked:    0 /  10
[tb_pin] Currently allocated     0.00E+00 Mbytes, locked:    0 /   0

     iteration # 40     ecut=    60.00 Ry     beta= 0.40
     Davidson diagonalization with overlap

---- Real-time Memory Report at c_bands before calling an iterative solver
          1150 MiB given to the printing process from OS
           960 MiB allocation reported by mallinfo(arena+hblkhd)
         58737 MiB available memory on the node where the printing process lives
     GPU memory used/free/total (MiB): 1190 / 15090 / 16280
------------------
     ethr =  5.89E-08,  avg # of iterations =  8.4

     negative rho (up, down):  5.973E-04 1.652E-03

     total cpu time spent up to now is      153.6 secs

     total energy              =    -705.29572310 Ry
     estimated scf accuracy    <       0.00028549 Ry

     total magnetization       =     2.39 Bohr mag/cell
     absolute magnetization    =     2.63 Bohr mag/cell
[tb_dev] Currently allocated     2.30E+00 Mbytes, locked:    0 /  10
[tb_pin] Currently allocated     0.00E+00 Mbytes, locked:    0 /   0

     iteration # 41     ecut=    60.00 Ry     beta= 0.40
     Davidson diagonalization with overlap

---- Real-time Memory Report at c_bands before calling an iterative solver
          1150 MiB given to the printing process from OS
           960 MiB allocation reported by mallinfo(arena+hblkhd)
         58737 MiB available memory on the node where the printing process lives
     GPU memory used/free/total (MiB): 1190 / 15090 / 16280
------------------
     ethr =  5.89E-08,  avg # of iterations =  3.6

     negative rho (up, down):  6.066E-04 1.644E-03

     total cpu time spent up to now is      157.1 secs

     total energy              =    -705.29577540 Ry
     estimated scf accuracy    <       0.00020194 Ry

     total magnetization       =     2.50 Bohr mag/cell
     absolute magnetization    =     2.74 Bohr mag/cell
[tb_dev] Currently allocated     2.30E+00 Mbytes, locked:    0 /  10
[tb_pin] Currently allocated     0.00E+00 Mbytes, locked:    0 /   0

     iteration # 42     ecut=    60.00 Ry     beta= 0.40
     Davidson diagonalization with overlap

---- Real-time Memory Report at c_bands before calling an iterative solver
          1150 MiB given to the printing process from OS
           960 MiB allocation reported by mallinfo(arena+hblkhd)
         58737 MiB available memory on the node where the printing process lives
     GPU memory used/free/total (MiB): 1190 / 15090 / 16280
------------------
     ethr =  5.89E-08,  avg # of iterations =  1.5

     negative rho (up, down):  5.851E-04 1.663E-03

     total cpu time spent up to now is      159.5 secs

     total energy              =    -705.29580649 Ry
     estimated scf accuracy    <       0.00022678 Ry

     total magnetization       =     2.47 Bohr mag/cell
     absolute magnetization    =     2.71 Bohr mag/cell
[tb_dev] Currently allocated     2.30E+00 Mbytes, locked:    0 /  10
[tb_pin] Currently allocated     0.00E+00 Mbytes, locked:    0 /   0

     iteration # 43     ecut=    60.00 Ry     beta= 0.40
     Davidson diagonalization with overlap

---- Real-time Memory Report at c_bands before calling an iterative solver
          1150 MiB given to the printing process from OS
           960 MiB allocation reported by mallinfo(arena+hblkhd)
         58737 MiB available memory on the node where the printing process lives
     GPU memory used/free/total (MiB): 1190 / 15090 / 16280
------------------
     ethr =  5.89E-08,  avg # of iterations =  3.2

     negative rho (up, down):  5.826E-04 1.665E-03

     total cpu time spent up to now is      162.7 secs

     total energy              =    -705.29586157 Ry
     estimated scf accuracy    <       0.00017831 Ry

     total magnetization       =     2.54 Bohr mag/cell
     absolute magnetization    =     2.79 Bohr mag/cell
[tb_dev] Currently allocated     2.30E+00 Mbytes, locked:    0 /  10
[tb_pin] Currently allocated     0.00E+00 Mbytes, locked:    0 /   0

     iteration # 44     ecut=    60.00 Ry     beta= 0.40
     Davidson diagonalization with overlap

---- Real-time Memory Report at c_bands before calling an iterative solver
          1150 MiB given to the printing process from OS
           960 MiB allocation reported by mallinfo(arena+hblkhd)
         58738 MiB available memory on the node where the printing process lives
     GPU memory used/free/total (MiB): 1190 / 15090 / 16280
------------------
     ethr =  5.89E-08,  avg # of iterations =  1.0

     negative rho (up, down):  5.702E-04 1.676E-03

     total cpu time spent up to now is      164.9 secs

     total energy              =    -705.29587055 Ry
     estimated scf accuracy    <       0.00017571 Ry

     total magnetization       =     2.55 Bohr mag/cell
     absolute magnetization    =     2.80 Bohr mag/cell
[tb_dev] Currently allocated     2.30E+00 Mbytes, locked:    0 /  10
[tb_pin] Currently allocated     0.00E+00 Mbytes, locked:    0 /   0

     iteration # 45     ecut=    60.00 Ry     beta= 0.40
     Davidson diagonalization with overlap

---- Real-time Memory Report at c_bands before calling an iterative solver
          1150 MiB given to the printing process from OS
           960 MiB allocation reported by mallinfo(arena+hblkhd)
         58737 MiB available memory on the node where the printing process lives
     GPU memory used/free/total (MiB): 1190 / 15090 / 16280
------------------
     ethr =  5.89E-08,  avg # of iterations =  2.8

     negative rho (up, down):  6.276E-04 1.625E-03

[...]
------------------
     ethr =  5.89E-08,  avg # of iterations =  1.5

     negative rho (up, down):  5.830E-04 1.664E-03

     total cpu time spent up to now is      264.3 secs

     total energy              =    -705.29589246 Ry
     estimated scf accuracy    <       0.00008658 Ry

     total magnetization       =     2.62 Bohr mag/cell
     absolute magnetization    =     2.87 Bohr mag/cell
[tb_dev] Currently allocated     2.30E+00 Mbytes, locked:    0 /  10
[tb_pin] Currently allocated     0.00E+00 Mbytes, locked:    0 /   0

     iteration # 66     ecut=    60.00 Ry     beta= 0.40
     Davidson diagonalization with overlap

---- Real-time Memory Report at c_bands before calling an iterative solver
          1150 MiB given to the printing process from OS
           960 MiB allocation reported by mallinfo(arena+hblkhd)
         58738 MiB available memory on the node where the printing process lives
     GPU memory used/free/total (MiB): 1190 / 15090 / 16280
------------------
     ethr =  5.89E-08,  avg # of iterations =  3.1

     negative rho (up, down):  5.483E-04 1.718E-03

     total cpu time spent up to now is      267.5 secs

     total energy              =    -705.29585741 Ry
     estimated scf accuracy    <       0.00012525 Ry

     total magnetization       =     2.54 Bohr mag/cell
     absolute magnetization    =     2.79 Bohr mag/cell
[tb_dev] Currently allocated     2.30E+00 Mbytes, locked:    0 /  10
[tb_pin] Currently allocated     0.00E+00 Mbytes, locked:    0 /   0

     iteration # 67     ecut=    60.00 Ry     beta= 0.40
     Davidson diagonalization with overlap

---- Real-time Memory Report at c_bands before calling an iterative solver
          1150 MiB given to the printing process from OS
           960 MiB allocation reported by mallinfo(arena+hblkhd)
         58737 MiB available memory on the node where the printing process lives
     GPU memory used/free/total (MiB): 1190 / 15090 / 16280
------------------
     ethr =  5.89E-08,  avg # of iterations =  3.7

     negative rho (up, down):  5.134E-04 1.886E-03

     total cpu time spent up to now is      271.0 secs

     total energy              =    -705.29577493 Ry
     estimated scf accuracy    <       0.00008018 Ry

     total magnetization       =     2.66 Bohr mag/cell
     absolute magnetization    =     2.92 Bohr mag/cell
[tb_dev] Currently allocated     2.30E+00 Mbytes, locked:    0 /  10
[tb_pin] Currently allocated     0.00E+00 Mbytes, locked:    0 /   0

     iteration # 68     ecut=    60.00 Ry     beta= 0.40
     Davidson diagonalization with overlap

---- Real-time Memory Report at c_bands before calling an iterative solver
          1150 MiB given to the printing process from OS
           960 MiB allocation reported by mallinfo(arena+hblkhd)
         58738 MiB available memory on the node where the printing process lives
     GPU memory used/free/total (MiB): 1190 / 15090 / 16280
------------------
     ethr =  5.89E-08,  avg # of iterations =  5.0

     negative rho (up, down):  5.080E-04 1.910E-03

     total cpu time spent up to now is      275.3 secs

     total energy              =    -705.29589401 Ry
     estimated scf accuracy    <       0.00008956 Ry

     total magnetization       =     2.79 Bohr mag/cell
     absolute magnetization    =     3.06 Bohr mag/cell
[tb_dev] Currently allocated     2.30E+00 Mbytes, locked:    0 /  10
[tb_pin] Currently allocated     0.00E+00 Mbytes, locked:    0 /   0

     iteration # 69     ecut=    60.00 Ry     beta= 0.40
     Davidson diagonalization with overlap

---- Real-time Memory Report at c_bands before calling an iterative solver
          1150 MiB given to the printing process from OS
           960 MiB allocation reported by mallinfo(arena+hblkhd)
         58737 MiB available memory on the node where the printing process lives
     GPU memory used/free/total (MiB): 1190 / 15090 / 16280
------------------
     ethr =  5.89E-08,  avg # of iterations =  1.5

     negative rho (up, down):  2.436E-04 3.637E-03

     total cpu time spent up to now is      277.6 secs

     total energy              =    -705.28495516 Ry
     estimated scf accuracy    <       0.00009348 Ry

     total magnetization       =     2.80 Bohr mag/cell
     absolute magnetization    =     3.08 Bohr mag/cell
[tb_dev] Currently allocated     2.30E+00 Mbytes, locked:    0 /  10
[tb_pin] Currently allocated     0.00E+00 Mbytes, locked:    0 /   0

     iteration # 70     ecut=    60.00 Ry     beta= 0.40
     Davidson diagonalization with overlap

---- Real-time Memory Report at c_bands before calling an iterative solver
          1150 MiB given to the printing process from OS
           960 MiB allocation reported by mallinfo(arena+hblkhd)
         58738 MiB available memory on the node where the printing process lives
     GPU memory used/free/total (MiB): 1190 / 15090 / 16280
------------------
     ethr =  5.89E-08,  avg # of iterations =  8.5

     negative rho (up, down):  8.835E-05 4.649E-03

     total cpu time spent up to now is      284.3 secs

     total energy              =    -705.29067292 Ry
     estimated scf accuracy    <       0.00004853 Ry

     total magnetization       =     4.12 Bohr mag/cell
     absolute magnetization    =     4.45 Bohr mag/cell
[tb_dev] Currently allocated     2.30E+00 Mbytes, locked:    0 /  10
[tb_pin] Currently allocated     0.00E+00 Mbytes, locked:    0 /   0

     iteration # 71     ecut=    60.00 Ry     beta= 0.40
     Davidson diagonalization with overlap

---- Real-time Memory Report at c_bands before calling an iterative solver
          1150 MiB given to the printing process from OS
           960 MiB allocation reported by mallinfo(arena+hblkhd)
         58738 MiB available memory on the node where the printing process lives
     GPU memory used/free/total (MiB): 1190 / 15090 / 16280
------------------
     ethr =  5.89E-08,  avg # of iterations =  7.1

     negative rho (up, down):  3.784E-04 2.745E-03

     total cpu time spent up to now is      290.0 secs

     total energy              =    -705.28780996 Ry
     estimated scf accuracy    <       0.00215420 Ry

     total magnetization       =     4.47 Bohr mag/cell
     absolute magnetization    =     4.87 Bohr mag/cell
[tb_dev] Currently allocated     2.30E+00 Mbytes, locked:    0 /  10
[tb_pin] Currently allocated     0.00E+00 Mbytes, locked:    0 /   0

     iteration # 72     ecut=    60.00 Ry     beta= 0.40
     Davidson diagonalization with overlap

---- Real-time Memory Report at c_bands before calling an iterative solver
          1150 MiB given to the printing process from OS
           960 MiB allocation reported by mallinfo(arena+hblkhd)
         58738 MiB available memory on the node where the printing process lives
     GPU memory used/free/total (MiB): 1190 / 15090 / 16280
------------------
     ethr =  5.89E-08,  avg # of iterations =  8.5

     negative rho (up, down):  4.919E-04 2.008E-03

     total cpu time spent up to now is      296.7 secs

     total energy              =    -705.29394279 Ry
     estimated scf accuracy    <       0.00007327 Ry

     total magnetization       =     3.43 Bohr mag/cell
     absolute magnetization    =     3.73 Bohr mag/cell
[tb_dev] Currently allocated     2.30E+00 Mbytes, locked:    0 /  10
[tb_pin] Currently allocated     0.00E+00 Mbytes, locked:    0 /   0

     iteration # 73     ecut=    60.00 Ry     beta= 0.40
     Davidson diagonalization with overlap

---- Real-time Memory Report at c_bands before calling an iterative solver
          1150 MiB given to the printing process from OS
           960 MiB allocation reported by mallinfo(arena+hblkhd)
         58737 MiB available memory on the node where the printing process lives
     GPU memory used/free/total (MiB): 1190 / 15090 / 16280
------------------
     ethr =  5.89E-08,  avg # of iterations =  6.5

     negative rho (up, down):  5.494E-04 1.711E-03

     total cpu time spent up to now is      302.0 secs

     total energy              =    -705.29564806 Ry
     estimated scf accuracy    <       0.00009008 Ry

     total magnetization       =     2.87 Bohr mag/cell
     absolute magnetization    =     3.15 Bohr mag/cell
[tb_dev] Currently allocated     2.30E+00 Mbytes, locked:    0 /  10
[tb_pin] Currently allocated     0.00E+00 Mbytes, locked:    0 /   0

     iteration # 74     ecut=    60.00 Ry     beta= 0.40
     Davidson diagonalization with overlap

---- Real-time Memory Report at c_bands before calling an iterative solver
          1150 MiB given to the printing process from OS
           960 MiB allocation reported by mallinfo(arena+hblkhd)
         58737 MiB available memory on the node where the printing process lives
     GPU memory used/free/total (MiB): 1190 / 15090 / 16280
------------------
     ethr =  5.89E-08,  avg # of iterations =  5.6

     negative rho (up, down):  5.893E-04 1.658E-03

     total cpu time spent up to now is      306.8 secs

     total energy              =    -705.29582629 Ry
     estimated scf accuracy    <       0.00004779 Ry

     total magnetization       =     2.66 Bohr mag/cell
     absolute magnetization    =     2.92 Bohr mag/cell
[tb_dev] Currently allocated     2.30E+00 Mbytes, locked:    0 /  10
[tb_pin] Currently allocated     0.00E+00 Mbytes, locked:    0 /   0

     iteration # 75     ecut=    60.00 Ry     beta= 0.40
     Davidson diagonalization with overlap

---- Real-time Memory Report at c_bands before calling an iterative solver
          1150 MiB given to the printing process from OS
           960 MiB allocation reported by mallinfo(arena+hblkhd)
         58737 MiB available memory on the node where the printing process lives
     GPU memory used/free/total (MiB): 1190 / 15090 / 16280
------------------
     ethr =  5.89E-08,  avg # of iterations =  5.3

     negative rho (up, down):  4.738E-04 2.127E-03

     total cpu time spent up to now is      311.3 secs

     total energy              =    -705.29433600 Ry
     estimated scf accuracy    <       0.00007439 Ry

     total magnetization       =     2.52 Bohr mag/cell
     absolute magnetization    =     2.77 Bohr mag/cell
[tb_dev] Currently allocated     2.30E+00 Mbytes, locked:    0 /  10
[tb_pin] Currently allocated     0.00E+00 Mbytes, locked:    0 /   0

     iteration # 76     ecut=    60.00 Ry     beta= 0.40
     Davidson diagonalization with overlap

---- Real-time Memory Report at c_bands before calling an iterative solver
          1150 MiB given to the printing process from OS
           960 MiB allocation reported by mallinfo(arena+hblkhd)
         58737 MiB available memory on the node where the printing process lives
     GPU memory used/free/total (MiB): 1190 / 15090 / 16280
------------------
     ethr =  5.89E-08,  avg # of iterations =  6.7

     negative rho (up, down):  3.953E-04 2.637E-03

     total cpu time spent up to now is      316.7 secs

     total energy              =    -705.29444279 Ry
     estimated scf accuracy    <       0.00012277 Ry

     total magnetization       =     2.94 Bohr mag/cell
     absolute magnetization    =     3.22 Bohr mag/cell
[tb_dev] Currently allocated     2.30E+00 Mbytes, locked:    0 /  10
[tb_pin] Currently allocated     0.00E+00 Mbytes, locked:    0 /   0

     iteration # 77     ecut=    60.00 Ry     beta= 0.40
     Davidson diagonalization with overlap

---- Real-time Memory Report at c_bands before calling an iterative solver
          1150 MiB given to the printing process from OS
           960 MiB allocation reported by mallinfo(arena+hblkhd)
         58738 MiB available memory on the node where the printing process lives
     GPU memory used/free/total (MiB): 1190 / 15090 / 16280
------------------
     ethr =  5.89E-08,  avg # of iterations =  5.7

     negative rho (up, down):  4.625E-04 2.200E-03

     total cpu time spent up to now is      321.6 secs

     total energy              =    -705.29502651 Ry
     estimated scf accuracy    <       0.00012612 Ry

     total magnetization       =     3.33 Bohr mag/cell
     absolute magnetization    =     3.62 Bohr mag/cell
[tb_dev] Currently allocated     2.30E+00 Mbytes, locked:    0 /  10
[tb_pin] Currently allocated     0.00E+00 Mbytes, locked:    0 /   0

     iteration # 78     ecut=    60.00 Ry     beta= 0.40
     Davidson diagonalization with overlap

---- Real-time Memory Report at c_bands before calling an iterative solver
          1150 MiB given to the printing process from OS
           960 MiB allocation reported by mallinfo(arena+hblkhd)
         58738 MiB available memory on the node where the printing process lives
     GPU memory used/free/total (MiB): 1190 / 15090 / 16280
------------------
     ethr =  5.89E-08,  avg # of iterations =  5.8

     negative rho (up, down):  4.460E-04 2.307E-03

     total cpu time spent up to now is      326.5 secs

     total energy              =    -705.29554752 Ry
     estimated scf accuracy    <       0.00013582 Ry

     total magnetization       =     2.99 Bohr mag/cell
     absolute magnetization    =     3.28 Bohr mag/cell
[tb_dev] Currently allocated     2.30E+00 Mbytes, locked:    0 /  10
[tb_pin] Currently allocated     0.00E+00 Mbytes, locked:    0 /   0

     iteration # 79     ecut=    60.00 Ry     beta= 0.40
     Davidson diagonalization with overlap

---- Real-time Memory Report at c_bands before calling an iterative solver
          1150 MiB given to the printing process from OS
           960 MiB allocation reported by mallinfo(arena+hblkhd)
         58737 MiB available memory on the node where the printing process lives
     GPU memory used/free/total (MiB): 1190 / 15090 / 16280
------------------
     ethr =  5.89E-08,  avg # of iterations =  2.5

     negative rho (up, down):  4.989E-04 1.960E-03

     total cpu time spent up to now is      329.3 secs

     total energy              =    -705.29552163 Ry
     estimated scf accuracy    <       0.00014595 Ry

     total magnetization       =     3.06 Bohr mag/cell
     absolute magnetization    =     3.35 Bohr mag/cell
[tb_dev] Currently allocated     2.30E+00 Mbytes, locked:    0 /  10
[tb_pin] Currently allocated     0.00E+00 Mbytes, locked:    0 /   0

     iteration # 80     ecut=    60.00 Ry     beta= 0.40
     Davidson diagonalization with overlap

---- Real-time Memory Report at c_bands before calling an iterative solver
          1150 MiB given to the printing process from OS
           960 MiB allocation reported by mallinfo(arena+hblkhd)
         58737 MiB available memory on the node where the printing process lives
     GPU memory used/free/total (MiB): 1190 / 15090 / 16280
------------------
     ethr =  5.89E-08,  avg # of iterations =  5.4

     negative rho (up, down):  3.315E-04 3.047E-03

     total cpu time spent up to now is      333.8 secs

     total energy              =    -705.29117359 Ry
     estimated scf accuracy    <       0.00009952 Ry

     total magnetization       =     2.84 Bohr mag/cell
     absolute magnetization    =     3.12 Bohr mag/cell

     End of self-consistent calculation

     convergence NOT achieved after  80 iterations: stopping

     Writing config to output data dir ./out/aiida.save/
 
     init_run     :     10.98s CPU      3.63s WALL (       1 calls)
     electrons    :    470.56s CPU    329.39s WALL (       1 calls)

     Called by init_run:
     wfcinit      :      1.40s CPU      2.07s WALL (       1 calls)
                                        2.07s GPU  (       1 calls)
     wfcinit:atom :      0.04s CPU      0.05s WALL (     112 calls)
                                        0.05s GPU  (     112 calls)
     wfcinit:wfcr :      0.90s CPU      1.42s WALL (     112 calls)
                                        1.42s GPU  (     112 calls)
     potinit      :      0.45s CPU      0.04s WALL (       1 calls)
     hinit0       :      6.88s CPU      0.99s WALL (       1 calls)

     Called by electrons:
     c_bands      :    387.59s CPU    292.12s WALL (      80 calls)
     sum_band     :     27.37s CPU     32.02s WALL (      80 calls)
     v_of_rho     :      9.59s CPU      0.86s WALL (      81 calls)
     v_h          :      1.62s CPU      0.15s WALL (      81 calls)
     v_xc         :      7.96s CPU      0.72s WALL (      81 calls)
     newd         :     27.83s CPU      2.82s WALL (      81 calls)
                                        2.82s GPU  (      81 calls)
     mix_rho      :     14.38s CPU      1.40s WALL (      80 calls)

     Called by c_bands:
     init_us_2    :     21.57s CPU     18.92s WALL (   18032 calls)
     init_us_2:gp :     21.18s CPU     18.62s WALL (   18032 calls)
     cegterg      :    351.51s CPU    267.93s WALL (    8960 calls)

     Called by sum_band:
     sum_band:wei :      0.35s CPU      0.36s WALL (      80 calls)
                                        0.36s GPU  (      80 calls)
     sum_band:loo :     23.82s CPU     28.23s WALL (      80 calls)
                                       28.23s GPU  (      80 calls)
     sum_band:buf :      4.60s CPU      5.40s WALL (    8960 calls)
                                        5.35s GPU  (    8960 calls)
     sum_band:ini :      7.50s CPU      9.29s WALL (    8960 calls)
                                        9.24s GPU  (    8960 calls)
     sum_band:cal :      0.28s CPU      0.80s WALL (    8960 calls)
                                        0.72s GPU  (    8960 calls)
     sum_band:bec :      1.62s CPU      2.00s WALL (    8960 calls)
                                        1.94s GPU  (    8960 calls)
     addusdens    :      2.41s CPU      2.62s WALL (      80 calls)
                                        2.62s GPU  (      80 calls)
     addusd:skk   :      0.01s CPU      0.02s WALL (     240 calls)
                                        0.02s GPU  (     240 calls)

     Called by *egterg:
     cdiaghg      :    185.51s CPU    147.42s WALL (   49719 calls)
                                      147.08s GPU  (   49719 calls)
     cegterg:over :      7.49s CPU      5.72s WALL (   40759 calls)
     cegterg:upda :     16.95s CPU     12.89s WALL (   40759 calls)
     cegterg:last :      4.82s CPU      3.79s WALL (   23216 calls)
     h_psi        :    108.57s CPU     79.11s WALL (   49831 calls)
                                       78.83s GPU  (   49831 calls)
     s_psi        :      6.23s CPU      7.37s WALL (   49831 calls)
                                        6.89s GPU  (   49831 calls)
     g_psi        :      0.40s CPU      0.94s WALL (   40759 calls)
                                        0.68s GPU  (   40759 calls)

     Called by h_psi:
     h_psi:calbec :      2.28s CPU      4.60s WALL (   49831 calls)
                                        4.30s GPU  (   49831 calls)
     vloc_psi     :     86.36s CPU     63.00s WALL (   49831 calls)
                                       62.71s GPU  (   49831 calls)
     add_vuspsi   :      8.79s CPU      8.37s WALL (   49831 calls)
                                        8.07s GPU  (   49831 calls)

     General routines
     calbec       :      1.94s CPU      1.50s WALL (   58791 calls)
     fft          :      3.39s CPU      0.39s WALL (    2023 calls)
                                        0.24s GPU  (    1861 calls)
     ffts         :      0.83s CPU      0.09s WALL (     322 calls)
                                        0.01s GPU  (     160 calls)
     fftw         :      5.67s CPU     39.98s WALL (  212436 calls)
                                       38.79s GPU  (  212436 calls)
     interpolate  :      3.37s CPU      0.30s WALL (     162 calls)
     davcio       :      1.10s CPU      0.15s WALL (     130 calls)
 
     Parallel routines
 
     PWSCF        :   8m 5.55s CPU   5m33.99s WALL

 
   This run was terminated on:  23:24:56  22Oct2023            

=------------------------------------------------------------------------------=
   JOB DONE.
=------------------------------------------------------------------------------=
