
     Program PWSCF v.7.2 starts on 22Oct2023 at 23:36:59 

     This program is part of the open-source Quantum ESPRESSO suite
     for quantum simulation of materials; please cite
         "P. Giannozzi et al., J. Phys.:Condens. Matter 21 395502 (2009);
         "P. Giannozzi et al., J. Phys.:Condens. Matter 29 465901 (2017);
         "P. Giannozzi et al., J. Chem. Phys. 152 154105 (2020);
          URL http://www.quantum-espresso.org", 
     in publications or presentations arising from this work. More details at
     http://www.quantum-espresso.org/quote

     Parallel version (MPI & OpenMP), running on      12 processor cores
     Number of MPI processes:                 1
     Threads/MPI process:                    12

     MPI processes distributed on     1 nodes
     60382 MiB available memory on the printing compute node when the environment starts
 
     Reading input from aiida.in

     Current dimensions of program PWSCF are:
     Max number of different atomic species (ntypx) = 10
     Max number of k-points (npk) =  40000
     Max angular momentum in pseudopotentials (lmaxx) =  4
     Message from routine setup:
     using ibrav=0 with symmetry is DISCOURAGED, use correct ibrav instead
 
     Subspace diagonalization in iterative solution of the eigenvalue problem:
     a serial algorithm will be used

 
     G-vector sticks info
     --------------------
     sticks:   dense  smooth     PW     G-vecs:    dense   smooth      PW
     Sum        7425    4337   1165               658565   293281   40485
 
     Using Slab Decomposition
 


     bravais-lattice index     =            0
     lattice parameter (alat)  =      19.7305  a.u.
     unit-cell volume          =   10488.4460 (a.u.)^3
     number of atoms/cell      =           14
     number of atomic types    =            2
     number of electrons       =       180.00
     number of Kohn-Sham states=          108
     kinetic-energy cutoff     =      35.0000  Ry
     charge density cutoff     =     240.0000  Ry
     scf convergence threshold =      2.8E-09
     mixing beta               =       0.4000
     number of iterations used =            8  plain     mixing
     Exchange-correlation= SLA  PW   PSX  PSC
                           (   1   4  10   8   0   0   0)

     GPU acceleration is ACTIVE.


     GPU used by master process:

        Device Number: 0
        Device name: Tesla P100-PCIE-16GB
        Compute capability : 60
        Ratio of single to double precision performance  : 2
        Memory Clock Rate (KHz): 715000
        Memory Bus Width (bits): 4096
        Peak Memory Bandwidth (GB/s): 732.16

     celldm(1)=  19.730508  celldm(2)=   0.000000  celldm(3)=   0.000000
     celldm(4)=   0.000000  celldm(5)=   0.000000  celldm(6)=   0.000000

     crystal axes: (cart. coord. in units of alat)
               a(1) = (   0.714017  -0.700129   0.000000 )  
               a(2) = (   0.714017   0.700129   0.000000 )  
               a(3) = (   0.000000   0.000000   1.365778 )  

     reciprocal axes: (cart. coord. in units 2 pi/alat)
               b(1) = (  0.700264 -0.714154  0.000000 )  
               b(2) = (  0.700264  0.714154 -0.000000 )  
               b(3) = ( -0.000000  0.000000  0.732183 )  


     PseudoPot. # 1 for Mo read from file:
     ./pseudo/Mo_ONCV_PBEsol-1.0.upf
     MD5 check sum: 5193ba6a20874d27c2ef80314d1b3445
     Pseudo is Norm-conserving, Zval = 14.0
     Generated using ONCVPSP code by D. R. Hamann
     Using radial grid of 1508 points,  6 beta functions with: 
                l(1) =   0
                l(2) =   0
                l(3) =   1
                l(4) =   1
                l(5) =   2
                l(6) =   2

     PseudoPot. # 2 for Te read from file:
     ./pseudo/te_pbesol_v1.uspp.F.UPF
     MD5 check sum: 44ee7635674656c288d8e9a9a9ffd7e3
     Pseudo is Ultrasoft + core correction, Zval =  6.0
     Generated by new atomic code, or converted to UPF format
     Using radial grid of  891 points,  5 beta functions with: 
                l(1) =   0
                l(2) =   0
                l(3) =   1
                l(4) =   1
                l(5) =   2
     Q(r) pseudized with  6 coefficients,  rinner =    1.800   1.800   1.800
                                                       1.800   1.800

     atomic species   valence    mass     pseudopotential
        Mo            14.00    95.96000     Mo( 1.00)
        Te             6.00   127.60000     Te( 1.00)

     Starting magnetic structure 
     atomic species   magnetization
        Mo           0.357
        Te           0.100

      8 Sym. Ops., with inversion, found ( 4 have fractional translation)


                                    s                        frac. trans.

      isym =  1     identity                                     

 cryst.   s( 1) = (     1          0          0      )
                  (     0          1          0      )
                  (     0          0          1      )

 cart.    s( 1) = (  1.0000000  0.0000000  0.0000000 )
                  (  0.0000000  1.0000000  0.0000000 )
                  (  0.0000000  0.0000000  1.0000000 )


      isym =  2     180 deg rotation - cart. axis [0,0,1]        

 cryst.   s( 2) = (    -1          0          0      )    f =( -0.5000000 )
                  (     0         -1          0      )       (  0.5000000 )
                  (     0          0          1      )       ( -0.5000000 )

 cart.    s( 2) = ( -1.0000000 -0.0000000  0.0000000 )    f =( -0.0000000 )
                  ( -0.0000000 -1.0000000  0.0000000 )       (  0.7001289 )
                  (  0.0000000  0.0000000  1.0000000 )       ( -0.6828890 )


      isym =  3     180 deg rotation - cart. axis [0,1,0]        

 cryst.   s( 3) = (     0         -1          0      )    f =(  0.5000000 )
                  (    -1          0          0      )       ( -0.5000000 )
                  (     0          0         -1      )       (  0.5000000 )

 cart.    s( 3) = ( -1.0000000  0.0000000  0.0000000 )    f =(  0.0000000 )
                  ( -0.0000000  1.0000000  0.0000000 )       ( -0.7001289 )
                  (  0.0000000  0.0000000 -1.0000000 )       (  0.6828890 )


      isym =  4     180 deg rotation - cart. axis [1,0,0]        

 cryst.   s( 4) = (     0          1          0      )
                  (     1          0          0      )
                  (     0          0         -1      )

 cart.    s( 4) = (  1.0000000 -0.0000000  0.0000000 )
                  (  0.0000000 -1.0000000  0.0000000 )
                  (  0.0000000  0.0000000 -1.0000000 )


      isym =  5     inversion                                    

 cryst.   s( 5) = (    -1          0          0      )
                  (     0         -1          0      )
                  (     0          0         -1      )

 cart.    s( 5) = ( -1.0000000 -0.0000000  0.0000000 )
                  ( -0.0000000 -1.0000000  0.0000000 )
                  (  0.0000000  0.0000000 -1.0000000 )


      isym =  6     inv. 180 deg rotation - cart. axis [0,0,1]   

 cryst.   s( 6) = (     1          0          0      )    f =(  0.5000000 )
                  (     0          1          0      )       ( -0.5000000 )
                  (     0          0         -1      )       (  0.5000000 )

 cart.    s( 6) = (  1.0000000  0.0000000  0.0000000 )    f =(  0.0000000 )
                  (  0.0000000  1.0000000  0.0000000 )       ( -0.7001289 )
                  (  0.0000000  0.0000000 -1.0000000 )       (  0.6828890 )


      isym =  7     inv. 180 deg rotation - cart. axis [0,1,0]   

 cryst.   s( 7) = (     0          1          0      )    f =( -0.5000000 )
                  (     1          0          0      )       (  0.5000000 )
                  (     0          0          1      )       ( -0.5000000 )

 cart.    s( 7) = (  1.0000000 -0.0000000  0.0000000 )    f =( -0.0000000 )
                  (  0.0000000 -1.0000000  0.0000000 )       (  0.7001289 )
                  (  0.0000000  0.0000000  1.0000000 )       ( -0.6828890 )


      isym =  8     inv. 180 deg rotation - cart. axis [1,0,0]   

 cryst.   s( 8) = (     0         -1          0      )
                  (    -1          0          0      )
                  (     0          0          1      )

 cart.    s( 8) = ( -1.0000000  0.0000000  0.0000000 )
                  ( -0.0000000  1.0000000  0.0000000 )
                  (  0.0000000  0.0000000  1.0000000 )


   Cartesian axes

     site n.     atom                  positions (alat units)
         1           Te  tau(   1) = (   0.0000000   0.0000000   0.0000000  )
         2           Te  tau(   2) = (   0.0000000   0.7001289   0.6828890  )
         3           Mo  tau(   3) = (   1.0396080   0.7001289   0.0000000  )
         4           Mo  tau(   4) = (   1.1024415   0.7001289   0.6828890  )
         5           Mo  tau(   5) = (   0.3884250   0.7001289   0.0000000  )
         6           Mo  tau(   6) = (   0.3255915   0.7001289   0.6828890  )
         7           Mo  tau(   7) = (   0.8868085   0.5418997   0.2294507  )
         8           Mo  tau(   8) = (   1.2552410   0.5418997   0.4534383  )
         9           Mo  tau(   9) = (   1.2552410   0.8583580   0.9123397  )
        10           Mo  tau(  10) = (   0.8868085   0.8583580   1.1363273  )
        11           Mo  tau(  11) = (   0.5412245   0.8583580   1.1363273  )
        12           Mo  tau(  12) = (   0.1727920   0.8583580   0.9123397  )
        13           Mo  tau(  13) = (   0.1727920   0.5418997   0.4534383  )
        14           Mo  tau(  14) = (   0.5412245   0.5418997   0.2294507  )

   Crystallographic axes

     site n.     atom                  positions (cryst. coord.)
         1           Te  tau(   1) = (  0.0000000  0.0000000  0.0000000  )
         2           Te  tau(   2) = ( -0.5000000  0.5000000  0.5000000  )
         3           Mo  tau(   3) = (  0.2280000  1.2280000  0.0000000  )
         4           Mo  tau(   4) = (  0.2720000  1.2720000  0.5000000  )
         5           Mo  tau(   5) = ( -0.2280000  0.7720000  0.0000000  )
         6           Mo  tau(   6) = ( -0.2720000  0.7280000  0.5000000  )
         7           Mo  tau(   7) = (  0.2340000  1.0080000  0.1680000  )
         8           Mo  tau(   8) = (  0.4920000  1.2660000  0.3320000  )
         9           Mo  tau(   9) = (  0.2660000  1.4920000  0.6680000  )
        10           Mo  tau(  10) = (  0.0080000  1.2340000  0.8320000  )
        11           Mo  tau(  11) = ( -0.2340000  0.9920000  0.8320000  )
        12           Mo  tau(  12) = ( -0.4920000  0.7340000  0.6680000  )
        13           Mo  tau(  13) = ( -0.2660000  0.5080000  0.3320000  )
        14           Mo  tau(  14) = ( -0.0080000  0.7660000  0.1680000  )

     number of k points=    18  Marzari-Vanderbilt smearing, width (Ry)=  0.0100
                       cart. coord. in units 2pi/alat
        k(    1) = (   0.0000000   0.0000000   0.0000000), wk =   0.0133333
        k(    2) = (   0.0000000   0.0000000   0.2440611), wk =   0.0266667
        k(    3) = (   0.1400528   0.1428308   0.0000000), wk =   0.0533333
        k(    4) = (   0.1400528   0.1428308   0.2440611), wk =   0.1066667
        k(    5) = (   0.2801056   0.2856617   0.0000000), wk =   0.0533333
        k(    6) = (   0.2801056   0.2856617   0.2440611), wk =   0.1066667
        k(    7) = (   0.2801056   0.0000000   0.0000000), wk =   0.0266667
        k(    8) = (   0.2801056   0.0000000   0.2440611), wk =   0.0533333
        k(    9) = (   0.4201584   0.1428308   0.0000000), wk =   0.0533333
        k(   10) = (   0.4201584   0.1428308   0.2440611), wk =   0.1066667
        k(   11) = (  -0.1400528  -0.4284925   0.0000000), wk =   0.0533333
        k(   12) = (  -0.1400528  -0.4284925   0.2440611), wk =   0.1066667
        k(   13) = (   0.0000000  -0.2856617   0.0000000), wk =   0.0266667
        k(   14) = (   0.0000000  -0.2856617   0.2440611), wk =   0.0533333
        k(   15) = (   0.5602111   0.0000000   0.0000000), wk =   0.0266667
        k(   16) = (   0.5602111   0.0000000   0.2440611), wk =   0.0533333
        k(   17) = (   0.0000000  -0.5713234   0.0000000), wk =   0.0266667
        k(   18) = (   0.0000000  -0.5713234   0.2440611), wk =   0.0533333

                       cryst. coord.
        k(    1) = (   0.0000000   0.0000000   0.0000000), wk =   0.0133333
        k(    2) = (   0.0000000   0.0000000   0.3333333), wk =   0.0266667
        k(    3) = (   0.0000000   0.2000000   0.0000000), wk =   0.0533333
        k(    4) = (   0.0000000   0.2000000   0.3333333), wk =   0.1066667
        k(    5) = (   0.0000000   0.4000000   0.0000000), wk =   0.0533333
        k(    6) = (   0.0000000   0.4000000   0.3333333), wk =   0.1066667
        k(    7) = (   0.2000000   0.2000000   0.0000000), wk =   0.0266667
        k(    8) = (   0.2000000   0.2000000   0.3333333), wk =   0.0533333
        k(    9) = (   0.2000000   0.4000000   0.0000000), wk =   0.0533333
        k(   10) = (   0.2000000   0.4000000   0.3333333), wk =   0.1066667
        k(   11) = (   0.2000000  -0.4000000   0.0000000), wk =   0.0533333
        k(   12) = (   0.2000000  -0.4000000   0.3333333), wk =   0.1066667
        k(   13) = (   0.2000000  -0.2000000   0.0000000), wk =   0.0266667
        k(   14) = (   0.2000000  -0.2000000   0.3333333), wk =   0.0533333
        k(   15) = (   0.4000000   0.4000000   0.0000000), wk =   0.0266667
        k(   16) = (   0.4000000   0.4000000   0.3333333), wk =   0.0533333
        k(   17) = (   0.4000000  -0.4000000   0.0000000), wk =   0.0266667
        k(   18) = (   0.4000000  -0.4000000   0.3333333), wk =   0.0533333

     Dense  grid:   658565 G-vectors     FFT dimensions: ( 100, 100, 144)

     Smooth grid:   293281 G-vectors     FFT dimensions: (  80,  80, 108)

     Dynamical RAM for                 wfc:      60.44 MB

     Dynamical RAM for     wfc (w. buffer):    2236.16 MB

     Dynamical RAM for           str. fact:      20.10 MB

     Dynamical RAM for           local pot:       0.00 MB

     Dynamical RAM for          nlocal pot:     135.42 MB

     Dynamical RAM for                qrad:       2.49 MB

     Dynamical RAM for          rho,v,vnew:     126.21 MB

     Dynamical RAM for               rhoin:      42.07 MB

     Dynamical RAM for            rho*nmix:     321.56 MB

     Dynamical RAM for           G-vectors:      39.92 MB

     Dynamical RAM for          h,s,v(r/c):       2.14 MB

     Dynamical RAM for          <psi|beta>:       0.40 MB

     Dynamical RAM for                 psi:     120.87 MB

     Dynamical RAM for                hpsi:     120.87 MB

     Dynamical RAM for                spsi:     120.87 MB

     Dynamical RAM for      wfcinit/wfcrot:     143.63 MB

     Dynamical RAM for           addusdens:    1095.33 MB

     Dynamical RAM for          addusforce:    1115.44 MB

     Dynamical RAM for         addusstress:    1230.99 MB

     Estimated static dynamical RAM per process >       2.64 GB

     Estimated max dynamical RAM per process >       4.15 GB
     Generating pointlists ...
     new r_m :   0.1311 (alat units)  2.5870 (a.u.) for type    1
     new r_m :   0.1343 (alat units)  2.6499 (a.u.) for type    2

     Initial potential from superposition of free atoms

     starting charge     179.9889, renormalised to     180.0000
     Starting wfcs are  128 randomized atomic wfcs

     total cpu time spent up to now is       12.4 secs

     Self-consistent Calculation
[tb_dev] Currently allocated     1.54E+01 Mbytes, locked:    0 /  10
[tb_pin] Currently allocated     0.00E+00 Mbytes, locked:    0 /   0

     iteration #  1     ecut=    35.00 Ry     beta= 0.40
     Davidson diagonalization with overlap

---- Real-time Memory Report at c_bands before calling an iterative solver
          3425 MiB given to the printing process from OS
          -889 MiB allocation reported by mallinfo(arena+hblkhd)
         56368 MiB available memory on the node where the printing process lives
     GPU memory used/free/total (MiB): 2482 / 13798 / 16280
------------------
     ethr =  1.00E-02,  avg # of iterations =  2.0

     total cpu time spent up to now is       21.8 secs

     total energy              =   -1691.03240776 Ry
     estimated scf accuracy    <       3.67221831 Ry

     total magnetization       =    36.00 Bohr mag/cell
     absolute magnetization    =    39.53 Bohr mag/cell
[tb_dev] Currently allocated     1.54E+01 Mbytes, locked:    0 /   8
[tb_pin] Currently allocated     0.00E+00 Mbytes, locked:    0 /   0

     iteration #  2     ecut=    35.00 Ry     beta= 0.40
     Davidson diagonalization with overlap

---- Real-time Memory Report at c_bands before calling an iterative solver
          3660 MiB given to the printing process from OS
          -710 MiB allocation reported by mallinfo(arena+hblkhd)
         56187 MiB available memory on the node where the printing process lives
     GPU memory used/free/total (MiB): 4612 / 11668 / 16280
------------------
     ethr =  2.04E-03,  avg # of iterations =  7.5

     total cpu time spent up to now is       35.9 secs

     total energy              =   -1691.45675784 Ry
     estimated scf accuracy    <       3.77517670 Ry

     total magnetization       =    36.00 Bohr mag/cell
     absolute magnetization    =    37.04 Bohr mag/cell
[tb_dev] Currently allocated     1.54E+01 Mbytes, locked:    0 /   8
[tb_pin] Currently allocated     0.00E+00 Mbytes, locked:    0 /   0

     iteration #  3     ecut=    35.00 Ry     beta= 0.40
     Davidson diagonalization with overlap

---- Real-time Memory Report at c_bands before calling an iterative solver
          3679 MiB given to the printing process from OS
          -692 MiB allocation reported by mallinfo(arena+hblkhd)
         56166 MiB available memory on the node where the printing process lives
     GPU memory used/free/total (MiB): 5170 / 11110 / 16280
------------------
     ethr =  2.04E-03,  avg # of iterations =  7.8

     total cpu time spent up to now is       49.8 secs

     total energy              =   -1691.53961784 Ry
     estimated scf accuracy    <      11.91542441 Ry

     total magnetization       =    36.00 Bohr mag/cell
     absolute magnetization    =    36.93 Bohr mag/cell
[tb_dev] Currently allocated     1.54E+01 Mbytes, locked:    0 /   8
[tb_pin] Currently allocated     0.00E+00 Mbytes, locked:    0 /   0

     iteration #  4     ecut=    35.00 Ry     beta= 0.40
     Davidson diagonalization with overlap

---- Real-time Memory Report at c_bands before calling an iterative solver
          3696 MiB given to the printing process from OS
          -674 MiB allocation reported by mallinfo(arena+hblkhd)
         56149 MiB available memory on the node where the printing process lives
     GPU memory used/free/total (MiB): 5170 / 11110 / 16280
------------------
     ethr =  2.04E-03,  avg # of iterations =  2.2

     total cpu time spent up to now is       59.4 secs

     total energy              =   -1691.93820023 Ry
     estimated scf accuracy    <       1.64772852 Ry

     total magnetization       =    36.00 Bohr mag/cell
     absolute magnetization    =    37.45 Bohr mag/cell
[tb_dev] Currently allocated     1.54E+01 Mbytes, locked:    0 /   8
[tb_pin] Currently allocated     0.00E+00 Mbytes, locked:    0 /   0

     iteration #  5     ecut=    35.00 Ry     beta= 0.40
     Davidson diagonalization with overlap

---- Real-time Memory Report at c_bands before calling an iterative solver
          3714 MiB given to the printing process from OS
          -656 MiB allocation reported by mallinfo(arena+hblkhd)
         56132 MiB available memory on the node where the printing process lives
     GPU memory used/free/total (MiB): 5170 / 11110 / 16280
------------------
     ethr =  9.15E-04,  avg # of iterations =  9.9

     total cpu time spent up to now is       73.8 secs

     total energy              =   -1692.38275431 Ry
     estimated scf accuracy    <       3.34139515 Ry

     total magnetization       =    36.00 Bohr mag/cell
     absolute magnetization    =    37.70 Bohr mag/cell
[tb_dev] Currently allocated     1.54E+01 Mbytes, locked:    0 /   8
[tb_pin] Currently allocated     0.00E+00 Mbytes, locked:    0 /   0

     iteration #  6     ecut=    35.00 Ry     beta= 0.40
     Davidson diagonalization with overlap

---- Real-time Memory Report at c_bands before calling an iterative solver
          3732 MiB given to the printing process from OS
          -638 MiB allocation reported by mallinfo(arena+hblkhd)
         56115 MiB available memory on the node where the printing process lives
     GPU memory used/free/total (MiB): 5170 / 11110 / 16280
------------------
     ethr =  9.15E-04,  avg # of iterations =  1.9

     total cpu time spent up to now is       83.2 secs

     total energy              =   -1692.35901310 Ry
     estimated scf accuracy    <       1.08074565 Ry

     total magnetization       =    36.00 Bohr mag/cell
     absolute magnetization    =    37.90 Bohr mag/cell
[tb_dev] Currently allocated     1.54E+01 Mbytes, locked:    0 /   8
[tb_pin] Currently allocated     0.00E+00 Mbytes, locked:    0 /   0

     iteration #  7     ecut=    35.00 Ry     beta= 0.40
     Davidson diagonalization with overlap

---- Real-time Memory Report at c_bands before calling an iterative solver
          3759 MiB given to the printing process from OS
          -611 MiB allocation reported by mallinfo(arena+hblkhd)
         56082 MiB available memory on the node where the printing process lives
     GPU memory used/free/total (MiB): 5170 / 11110 / 16280
------------------
     ethr =  6.00E-04,  avg # of iterations =  8.4

     total cpu time spent up to now is       96.1 secs

     total energy              =   -1692.51607462 Ry
     estimated scf accuracy    <       0.57703705 Ry

     total magnetization       =    36.00 Bohr mag/cell
     absolute magnetization    =    38.11 Bohr mag/cell
[tb_dev] Currently allocated     1.54E+01 Mbytes, locked:    0 /   8
[tb_pin] Currently allocated     0.00E+00 Mbytes, locked:    0 /   0

     iteration #  8     ecut=    35.00 Ry     beta= 0.40
     Davidson diagonalization with overlap

---- Real-time Memory Report at c_bands before calling an iterative solver
          3768 MiB given to the printing process from OS
          -602 MiB allocation reported by mallinfo(arena+hblkhd)
         56078 MiB available memory on the node where the printing process lives
     GPU memory used/free/total (MiB): 5170 / 11110 / 16280
------------------
     ethr =  3.21E-04,  avg # of iterations =  1.6

     total cpu time spent up to now is      105.4 secs

     total energy              =   -1692.49730782 Ry
     estimated scf accuracy    <       0.21316987 Ry

     total magnetization       =    36.00 Bohr mag/cell
     absolute magnetization    =    38.15 Bohr mag/cell
[tb_dev] Currently allocated     1.54E+01 Mbytes, locked:    0 /   8
[tb_pin] Currently allocated     0.00E+00 Mbytes, locked:    0 /   0

     iteration #  9     ecut=    35.00 Ry     beta= 0.40
     Davidson diagonalization with overlap

---- Real-time Memory Report at c_bands before calling an iterative solver
          3795 MiB given to the printing process from OS
          -575 MiB allocation reported by mallinfo(arena+hblkhd)
         56053 MiB available memory on the node where the printing process lives
     GPU memory used/free/total (MiB): 5170 / 11110 / 16280
------------------
     c_bands:  2 eigenvalues not converged
     c_bands:  1 eigenvalues not converged
     c_bands:  1 eigenvalues not converged
     c_bands:  1 eigenvalues not converged
     c_bands:  1 eigenvalues not converged
     ethr =  1.18E-04,  avg # of iterations = 14.1

     total cpu time spent up to now is      122.8 secs

     total energy              =   -1692.61356564 Ry
     estimated scf accuracy    <       0.59624511 Ry

     total magnetization       =    36.00 Bohr mag/cell
     absolute magnetization    =    37.84 Bohr mag/cell
[tb_dev] Currently allocated     1.54E+01 Mbytes, locked:    0 /   8
[tb_pin] Currently allocated     0.00E+00 Mbytes, locked:    0 /   0

     iteration # 10     ecut=    35.00 Ry     beta= 0.40
     Davidson diagonalization with overlap

---- Real-time Memory Report at c_bands before calling an iterative solver
          3804 MiB given to the printing process from OS
          -566 MiB allocation reported by mallinfo(arena+hblkhd)
         56044 MiB available memory on the node where the printing process lives
     GPU memory used/free/total (MiB): 5170 / 11110 / 16280
------------------
     ethr =  1.18E-04,  avg # of iterations =  2.0

     total cpu time spent up to now is      132.2 secs

     total energy              =   -1692.61360803 Ry
     estimated scf accuracy    <       0.56045514 Ry

     total magnetization       =    36.00 Bohr mag/cell
     absolute magnetization    =    37.84 Bohr mag/cell
[tb_dev] Currently allocated     1.54E+01 Mbytes, locked:    0 /   8
[tb_pin] Currently allocated     0.00E+00 Mbytes, locked:    0 /   0

     iteration # 11     ecut=    35.00 Ry     beta= 0.40
     Davidson diagonalization with overlap

---- Real-time Memory Report at c_bands before calling an iterative solver
          3813 MiB given to the printing process from OS
          -566 MiB allocation reported by mallinfo(arena+hblkhd)
         56045 MiB available memory on the node where the printing process lives
     GPU memory used/free/total (MiB): 5170 / 11110 / 16280
------------------
     ethr =  1.18E-04,  avg # of iterations =  1.0

     total cpu time spent up to now is      141.0 secs

     total energy              =   -1692.60608135 Ry
     estimated scf accuracy    <       0.50650774 Ry

     total magnetization       =    36.00 Bohr mag/cell
     absolute magnetization    =    37.86 Bohr mag/cell
[tb_dev] Currently allocated     1.54E+01 Mbytes, locked:    0 /   8
[tb_pin] Currently allocated     0.00E+00 Mbytes, locked:    0 /   0

     iteration # 12     ecut=    35.00 Ry     beta= 0.40
     Davidson diagonalization with overlap

---- Real-time Memory Report at c_bands before calling an iterative solver
          3813 MiB given to the printing process from OS
          -566 MiB allocation reported by mallinfo(arena+hblkhd)
         56045 MiB available memory on the node where the printing process lives
     GPU memory used/free/total (MiB): 5170 / 11110 / 16280
------------------
     ethr =  1.18E-04,  avg # of iterations =  1.0

     total cpu time spent up to now is      149.9 secs

     total energy              =   -1692.62413174 Ry
     estimated scf accuracy    <       0.31558787 Ry

     total magnetization       =    36.00 Bohr mag/cell
     absolute magnetization    =    37.89 Bohr mag/cell
[tb_dev] Currently allocated     1.54E+01 Mbytes, locked:    0 /   8
[tb_pin] Currently allocated     0.00E+00 Mbytes, locked:    0 /   0

     iteration # 13     ecut=    35.00 Ry     beta= 0.40
     Davidson diagonalization with overlap

---- Real-time Memory Report at c_bands before calling an iterative solver
          3813 MiB given to the printing process from OS
          -566 MiB allocation reported by mallinfo(arena+hblkhd)
         56045 MiB available memory on the node where the printing process lives
     GPU memory used/free/total (MiB): 5170 / 11110 / 16280
------------------
     ethr =  1.18E-04,  avg # of iterations =  1.1

     total cpu time spent up to now is      158.8 secs

     total energy              =   -1692.62895607 Ry
     estimated scf accuracy    <       0.25467043 Ry

     total magnetization       =    36.00 Bohr mag/cell
     absolute magnetization    =    37.98 Bohr mag/cell
[tb_dev] Currently allocated     1.54E+01 Mbytes, locked:    0 /   8
[tb_pin] Currently allocated     0.00E+00 Mbytes, locked:    0 /   0

     iteration # 14     ecut=    35.00 Ry     beta= 0.40
     Davidson diagonalization with overlap

---- Real-time Memory Report at c_bands before calling an iterative solver
          3813 MiB given to the printing process from OS
          -566 MiB allocation reported by mallinfo(arena+hblkhd)
         56045 MiB available memory on the node where the printing process lives
     GPU memory used/free/total (MiB): 5170 / 11110 / 16280
------------------
     ethr =  1.18E-04,  avg # of iterations =  2.9

     total cpu time spent up to now is      168.6 secs

     total energy              =   -1692.63313618 Ry
     estimated scf accuracy    <       0.15035821 Ry

     total magnetization       =    36.00 Bohr mag/cell
     absolute magnetization    =    38.11 Bohr mag/cell
[tb_dev] Currently allocated     1.54E+01 Mbytes, locked:    0 /   8
[tb_pin] Currently allocated     0.00E+00 Mbytes, locked:    0 /   0

     iteration # 15     ecut=    35.00 Ry     beta= 0.40
     Davidson diagonalization with overlap

---- Real-time Memory Report at c_bands before calling an iterative solver
          3813 MiB given to the printing process from OS
          -566 MiB allocation reported by mallinfo(arena+hblkhd)
         56046 MiB available memory on the node where the printing process lives
     GPU memory used/free/total (MiB): 5170 / 11110 / 16280
------------------
     ethr =  8.35E-05,  avg # of iterations =  2.8

     total cpu time spent up to now is      178.3 secs

     total energy              =   -1692.62834739 Ry
     estimated scf accuracy    <       0.14460691 Ry

     total magnetization       =    36.00 Bohr mag/cell
     absolute magnetization    =    38.16 Bohr mag/cell
[tb_dev] Currently allocated     1.54E+01 Mbytes, locked:    0 /   8
[tb_pin] Currently allocated     0.00E+00 Mbytes, locked:    0 /   0

     iteration # 16     ecut=    35.00 Ry     beta= 0.40
     Davidson diagonalization with overlap

---- Real-time Memory Report at c_bands before calling an iterative solver
          3813 MiB given to the printing process from OS
          -566 MiB allocation reported by mallinfo(arena+hblkhd)
         56044 MiB available memory on the node where the printing process lives
     GPU memory used/free/total (MiB): 5170 / 11110 / 16280
------------------
     ethr =  8.03E-05,  avg # of iterations =  2.3

     total cpu time spent up to now is      187.9 secs

     total energy              =   -1692.62622433 Ry
     estimated scf accuracy    <       0.08466865 Ry

     total magnetization       =    36.00 Bohr mag/cell
     absolute magnetization    =    38.28 Bohr mag/cell
[tb_dev] Currently allocated     1.54E+01 Mbytes, locked:    0 /   8
[tb_pin] Currently allocated     0.00E+00 Mbytes, locked:    0 /   0

     iteration # 17     ecut=    35.00 Ry     beta= 0.40
     Davidson diagonalization with overlap

---- Real-time Memory Report at c_bands before calling an iterative solver
          3813 MiB given to the printing process from OS
          -566 MiB allocation reported by mallinfo(arena+hblkhd)
         56038 MiB available memory on the node where the printing process lives
     GPU memory used/free/total (MiB): 5170 / 11110 / 16280
------------------
     ethr =  4.70E-05,  avg # of iterations =  1.3

     total cpu time spent up to now is      196.9 secs

     total energy              =   -1692.62259741 Ry
     estimated scf accuracy    <       0.09614970 Ry

     total magnetization       =    36.00 Bohr mag/cell
     absolute magnetization    =    38.24 Bohr mag/cell
[tb_dev] Currently allocated     1.54E+01 Mbytes, locked:    0 /   8
[tb_pin] Currently allocated     0.00E+00 Mbytes, locked:    0 /   0

     iteration # 18     ecut=    35.00 Ry     beta= 0.40
     Davidson diagonalization with overlap

---- Real-time Memory Report at c_bands before calling an iterative solver
          3813 MiB given to the printing process from OS
          -566 MiB allocation reported by mallinfo(arena+hblkhd)
         56044 MiB available memory on the node where the printing process lives
     GPU memory used/free/total (MiB): 5170 / 11110 / 16280
------------------
     c_bands:  3 eigenvalues not converged
     c_bands:  2 eigenvalues not converged
     ethr =  4.70E-05,  avg # of iterations =  9.9
     Minimization algorithm failed to find Fermi energy: reverting to bisection
     Possible cause: smearing is larger than the electronic band-gap.

     total cpu time spent up to now is      211.2 secs

     total energy              =   -1692.64672209 Ry
     estimated scf accuracy    <       0.01502204 Ry

     total magnetization       =    36.02 Bohr mag/cell
     absolute magnetization    =    39.10 Bohr mag/cell
[tb_dev] Currently allocated     1.54E+01 Mbytes, locked:    0 /   8
[tb_pin] Currently allocated     0.00E+00 Mbytes, locked:    0 /   0

     iteration # 19     ecut=    35.00 Ry     beta= 0.40
     Davidson diagonalization with overlap

---- Real-time Memory Report at c_bands before calling an iterative solver
          3813 MiB given to the printing process from OS
          -566 MiB allocation reported by mallinfo(arena+hblkhd)
         56044 MiB available memory on the node where the printing process lives
     GPU memory used/free/total (MiB): 5170 / 11110 / 16280
------------------
     c_bands:  2 eigenvalues not converged
     c_bands:  1 eigenvalues not converged
     c_bands:  5 eigenvalues not converged
     c_bands:  4 eigenvalues not converged
     c_bands:  3 eigenvalues not converged
     c_bands:  1 eigenvalues not converged
     c_bands:  2 eigenvalues not converged
     c_bands:  1 eigenvalues not converged
     c_bands:  1 eigenvalues not converged
     c_bands:  3 eigenvalues not converged
     c_bands:  3 eigenvalues not converged
     ethr =  8.35E-06,  avg # of iterations = 15.7

     total cpu time spent up to now is      230.0 secs

     total energy              =   -1692.65947926 Ry
     estimated scf accuracy    <       0.02068884 Ry

     total magnetization       =    36.00 Bohr mag/cell
     absolute magnetization    =    39.52 Bohr mag/cell
[tb_dev] Currently allocated     1.54E+01 Mbytes, locked:    0 /   8
[tb_pin] Currently allocated     0.00E+00 Mbytes, locked:    0 /   0

     iteration # 20     ecut=    35.00 Ry     beta= 0.40
     Davidson diagonalization with overlap

---- Real-time Memory Report at c_bands before calling an iterative solver
          3813 MiB given to the printing process from OS
          -566 MiB allocation reported by mallinfo(arena+hblkhd)
         56043 MiB available memory on the node where the printing process lives
     GPU memory used/free/total (MiB): 5170 / 11110 / 16280
------------------
     c_bands:  1 eigenvalues not converged
     c_bands:  1 eigenvalues not converged
     ethr =  8.35E-06,  avg # of iterations =  6.0
     Minimization algorithm failed to find Fermi energy: reverting to bisection
     Possible cause: smearing is larger than the electronic band-gap.

     total cpu time spent up to now is      241.5 secs

     total energy              =   -1692.64350063 Ry
     estimated scf accuracy    <       0.02099843 Ry

     total magnetization       =    36.00 Bohr mag/cell
     absolute magnetization    =    39.32 Bohr mag/cell
[tb_dev] Currently allocated     1.54E+01 Mbytes, locked:    0 /   8
[tb_pin] Currently allocated     0.00E+00 Mbytes, locked:    0 /   0

     iteration # 21     ecut=    35.00 Ry     beta= 0.40
     Davidson diagonalization with overlap

---- Real-time Memory Report at c_bands before calling an iterative solver
          3813 MiB given to the printing process from OS
          -566 MiB allocation reported by mallinfo(arena+hblkhd)
         56045 MiB available memory on the node where the printing process lives
     GPU memory used/free/total (MiB): 5170 / 11110 / 16280
------------------
     c_bands:  1 eigenvalues not converged
     ethr =  8.35E-06,  avg # of iterations =  5.8

     total cpu time spent up to now is      253.8 secs

     total energy              =   -1692.64454275 Ry
     estimated scf accuracy    <       0.05369574 Ry

     total magnetization       =    36.00 Bohr mag/cell
     absolute magnetization    =    38.79 Bohr mag/cell
[tb_dev] Currently allocated     1.54E+01 Mbytes, locked:    0 /   8
[tb_pin] Currently allocated     0.00E+00 Mbytes, locked:    0 /   0

     iteration # 22     ecut=    35.00 Ry     beta= 0.40
     Davidson diagonalization with overlap

---- Real-time Memory Report at c_bands before calling an iterative solver
          3813 MiB given to the printing process from OS
          -566 MiB allocation reported by mallinfo(arena+hblkhd)
         56045 MiB available memory on the node where the printing process lives
     GPU memory used/free/total (MiB): 5170 / 11110 / 16280
------------------
     ethr =  8.35E-06,  avg # of iterations =  2.9

     total cpu time spent up to now is      263.5 secs

     total energy              =   -1692.64315615 Ry
     estimated scf accuracy    <       0.03482168 Ry

     total magnetization       =    36.00 Bohr mag/cell
     absolute magnetization    =    38.70 Bohr mag/cell
[tb_dev] Currently allocated     1.54E+01 Mbytes, locked:    0 /   8
[tb_pin] Currently allocated     0.00E+00 Mbytes, locked:    0 /   0

     iteration # 23     ecut=    35.00 Ry     beta= 0.40
     Davidson diagonalization with overlap

---- Real-time Memory Report at c_bands before calling an iterative solver
          3813 MiB given to the printing process from OS
          -566 MiB allocation reported by mallinfo(arena+hblkhd)
         56045 MiB available memory on the node where the printing process lives
     GPU memory used/free/total (MiB): 5170 / 11110 / 16280
------------------
     c_bands:  1 eigenvalues not converged
     c_bands:  2 eigenvalues not converged
     c_bands:  1 eigenvalues not converged
     c_bands:  1 eigenvalues not converged
     c_bands:  1 eigenvalues not converged
     c_bands:  1 eigenvalues not converged
     c_bands:  1 eigenvalues not converged
     c_bands:  1 eigenvalues not converged
     ethr =  8.35E-06,  avg # of iterations = 14.3

     total cpu time spent up to now is      281.6 secs

     total energy              =   -1692.69141374 Ry
     estimated scf accuracy    <       0.15136263 Ry

     total magnetization       =    36.00 Bohr mag/cell
     absolute magnetization    =    39.21 Bohr mag/cell
[tb_dev] Currently allocated     1.54E+01 Mbytes, locked:    0 /   8
[tb_pin] Currently allocated     0.00E+00 Mbytes, locked:    0 /   0

     iteration # 24     ecut=    35.00 Ry     beta= 0.40
     Davidson diagonalization with overlap

---- Real-time Memory Report at c_bands before calling an iterative solver
          3813 MiB given to the printing process from OS
          -566 MiB allocation reported by mallinfo(arena+hblkhd)
         56045 MiB available memory on the node where the printing process lives
     GPU memory used/free/total (MiB): 5170 / 11110 / 16280
------------------
     c_bands:  1 eigenvalues not converged
     c_bands:  1 eigenvalues not converged
     c_bands:  2 eigenvalues not converged
     c_bands:  2 eigenvalues not converged
     c_bands:  2 eigenvalues not converged
     c_bands:  1 eigenvalues not converged
     c_bands:  3 eigenvalues not converged
     c_bands:  2 eigenvalues not converged
     c_bands:  1 eigenvalues not converged
     c_bands:  2 eigenvalues not converged
     c_bands:  2 eigenvalues not converged
     c_bands:  2 eigenvalues not converged
     c_bands:  1 eigenvalues not converged
     c_bands:  2 eigenvalues not converged
     c_bands:  2 eigenvalues not converged
     c_bands:  1 eigenvalues not converged
     c_bands:  3 eigenvalues not converged
     c_bands:  1 eigenvalues not converged
     c_bands:  1 eigenvalues not converged
     c_bands:  1 eigenvalues not converged
     c_bands:  1 eigenvalues not converged
     c_bands:  1 eigenvalues not converged
     c_bands:  3 eigenvalues not converged
     c_bands:  3 eigenvalues not converged
     c_bands:  1 eigenvalues not converged
     ethr =  8.35E-06,  avg # of iterations = 19.4

     total cpu time spent up to now is      304.7 secs

     total energy              =   -1692.71267680 Ry
     estimated scf accuracy    <       0.93587480 Ry

     total magnetization       =    36.00 Bohr mag/cell
     absolute magnetization    =    40.16 Bohr mag/cell
[tb_dev] Currently allocated     1.54E+01 Mbytes, locked:    0 /   8
[tb_pin] Currently allocated     0.00E+00 Mbytes, locked:    0 /   0

     iteration # 25     ecut=    35.00 Ry     beta= 0.40
     Davidson diagonalization with overlap

---- Real-time Memory Report at c_bands before calling an iterative solver
          3813 MiB given to the printing process from OS
          -566 MiB allocation reported by mallinfo(arena+hblkhd)
         56046 MiB available memory on the node where the printing process lives
     GPU memory used/free/total (MiB): 5170 / 11110 / 16280
------------------
     ethr =  8.35E-06,  avg # of iterations =  4.9

     total cpu time spent up to now is      315.7 secs

     total energy              =   -1692.72427583 Ry
     estimated scf accuracy    <       0.79349707 Ry

     total magnetization       =    36.00 Bohr mag/cell
     absolute magnetization    =    40.42 Bohr mag/cell
[tb_dev] Currently allocated     1.54E+01 Mbytes, locked:    0 /   8
[tb_pin] Currently allocated     0.00E+00 Mbytes, locked:    0 /   0

     iteration # 26     ecut=    35.00 Ry     beta= 0.40
     Davidson diagonalization with overlap

---- Real-time Memory Report at c_bands before calling an iterative solver
          3813 MiB given to the printing process from OS
          -566 MiB allocation reported by mallinfo(arena+hblkhd)
         56046 MiB available memory on the node where the printing process lives
     GPU memory used/free/total (MiB): 5170 / 11110 / 16280
------------------
     c_bands:  1 eigenvalues not converged
     ethr =  8.35E-06,  avg # of iterations = 10.4

     total cpu time spent up to now is      329.8 secs

     total energy              =   -1692.71492329 Ry
     estimated scf accuracy    <       0.77184688 Ry

     total magnetization       =    36.00 Bohr mag/cell
     absolute magnetization    =    41.11 Bohr mag/cell
[tb_dev] Currently allocated     1.54E+01 Mbytes, locked:    0 /   8
[tb_pin] Currently allocated     0.00E+00 Mbytes, locked:    0 /   0

     iteration # 27     ecut=    35.00 Ry     beta= 0.40
     Davidson diagonalization with overlap

---- Real-time Memory Report at c_bands before calling an iterative solver
          3813 MiB given to the printing process from OS
          -566 MiB allocation reported by mallinfo(arena+hblkhd)
         56046 MiB available memory on the node where the printing process lives
     GPU memory used/free/total (MiB): 5170 / 11110 / 16280
------------------
     ethr =  8.35E-06,  avg # of iterations =  1.9

     total cpu time spent up to now is      339.2 secs

     total energy              =   -1692.74929322 Ry
     estimated scf accuracy    <       0.74476513 Ry

     total magnetization       =    36.00 Bohr mag/cell
     absolute magnetization    =    41.06 Bohr mag/cell
[tb_dev] Currently allocated     1.54E+01 Mbytes, locked:    0 /   8
[tb_pin] Currently allocated     0.00E+00 Mbytes, locked:    0 /   0

     iteration # 28     ecut=    35.00 Ry     beta= 0.40
     Davidson diagonalization with overlap

---- Real-time Memory Report at c_bands before calling an iterative solver
          3813 MiB given to the printing process from OS
          -566 MiB allocation reported by mallinfo(arena+hblkhd)
         56018 MiB available memory on the node where the printing process lives
     GPU memory used/free/total (MiB): 5170 / 11110 / 16280
------------------
     c_bands:  2 eigenvalues not converged
     ethr =  8.35E-06,  avg # of iterations =  8.2

     total cpu time spent up to now is      353.1 secs

     total energy              =   -1692.68646302 Ry
     estimated scf accuracy    <       0.95054012 Ry

     total magnetization       =    36.00 Bohr mag/cell
     absolute magnetization    =    41.53 Bohr mag/cell
[tb_dev] Currently allocated     1.54E+01 Mbytes, locked:    0 /   8
[tb_pin] Currently allocated     0.00E+00 Mbytes, locked:    0 /   0

     iteration # 29     ecut=    35.00 Ry     beta= 0.40
     Davidson diagonalization with overlap

---- Real-time Memory Report at c_bands before calling an iterative solver
          3813 MiB given to the printing process from OS
          -566 MiB allocation reported by mallinfo(arena+hblkhd)
         56034 MiB available memory on the node where the printing process lives
     GPU memory used/free/total (MiB): 5170 / 11110 / 16280
------------------
     c_bands:  1 eigenvalues not converged
     c_bands:  1 eigenvalues not converged
     ethr =  8.35E-06,  avg # of iterations = 12.2

     total cpu time spent up to now is      369.8 secs

     total energy              =   -1692.65107803 Ry
     estimated scf accuracy    <       0.98324071 Ry

     total magnetization       =    36.00 Bohr mag/cell
     absolute magnetization    =    40.33 Bohr mag/cell
[tb_dev] Currently allocated     1.54E+01 Mbytes, locked:    0 /   8
[tb_pin] Currently allocated     0.00E+00 Mbytes, locked:    0 /   0

     iteration # 30     ecut=    35.00 Ry     beta= 0.40
     Davidson diagonalization with overlap

---- Real-time Memory Report at c_bands before calling an iterative solver
          3813 MiB given to the printing process from OS
          -566 MiB allocation reported by mallinfo(arena+hblkhd)
         56037 MiB available memory on the node where the printing process lives
     GPU memory used/free/total (MiB): 5170 / 11110 / 16280
------------------
     c_bands:  2 eigenvalues not converged
     c_bands:  1 eigenvalues not converged
     c_bands:  1 eigenvalues not converged
     c_bands:  2 eigenvalues not converged
     c_bands:  1 eigenvalues not converged
     c_bands:  1 eigenvalues not converged
     c_bands:  1 eigenvalues not converged
     c_bands:  1 eigenvalues not converged
     c_bands:  1 eigenvalues not converged
     c_bands:  1 eigenvalues not converged
     c_bands:  2 eigenvalues not converged
     ethr =  8.35E-06,  avg # of iterations = 15.1

     total cpu time spent up to now is      388.4 secs

     total energy              =   -1692.54493224 Ry
     estimated scf accuracy    <       1.21167283 Ry

     total magnetization       =    36.00 Bohr mag/cell
     absolute magnetization    =    39.08 Bohr mag/cell
[tb_dev] Currently allocated     1.54E+01 Mbytes, locked:    0 /   8
[tb_pin] Currently allocated     0.00E+00 Mbytes, locked:    0 /   0

     iteration # 31     ecut=    35.00 Ry     beta= 0.40
     Davidson diagonalization with overlap

---- Real-time Memory Report at c_bands before calling an iterative solver
          3813 MiB given to the printing process from OS
          -566 MiB allocation reported by mallinfo(arena+hblkhd)
         56039 MiB available memory on the node where the printing process lives
     GPU memory used/free/total (MiB): 5170 / 11110 / 16280
------------------
     c_bands:  1 eigenvalues not converged
     c_bands:  2 eigenvalues not converged
     c_bands:  3 eigenvalues not converged
     c_bands:  2 eigenvalues not converged
     c_bands:  3 eigenvalues not converged
     c_bands:  1 eigenvalues not converged
     c_bands:  2 eigenvalues not converged
     c_bands:  2 eigenvalues not converged
     c_bands:  2 eigenvalues not converged
     c_bands:  2 eigenvalues not converged
     c_bands:  1 eigenvalues not converged
     c_bands:  1 eigenvalues not converged
     c_bands:  2 eigenvalues not converged
     c_bands:  1 eigenvalues not converged
     c_bands:  2 eigenvalues not converged
     c_bands:  1 eigenvalues not converged
     ethr =  8.35E-06,  avg # of iterations = 15.9

     total cpu time spent up to now is      410.3 secs

     total energy              =   -1692.61736786 Ry
     estimated scf accuracy    <       0.15935021 Ry

     total magnetization       =    36.00 Bohr mag/cell
     absolute magnetization    =    37.74 Bohr mag/cell
[tb_dev] Currently allocated     1.54E+01 Mbytes, locked:    0 /   8
[tb_pin] Currently allocated     0.00E+00 Mbytes, locked:    0 /   0

     iteration # 32     ecut=    35.00 Ry     beta= 0.40
     Davidson diagonalization with overlap

---- Real-time Memory Report at c_bands before calling an iterative solver
          3813 MiB given to the printing process from OS
          -566 MiB allocation reported by mallinfo(arena+hblkhd)
         56040 MiB available memory on the node where the printing process lives
     GPU memory used/free/total (MiB): 5170 / 11110 / 16280
------------------
     c_bands:  1 eigenvalues not converged
     c_bands:  1 eigenvalues not converged
     c_bands:  1 eigenvalues not converged
     c_bands:  2 eigenvalues not converged
     c_bands:  2 eigenvalues not converged
     c_bands:  2 eigenvalues not converged
     c_bands:  1 eigenvalues not converged
     ethr =  8.35E-06,  avg # of iterations = 15.0

     total cpu time spent up to now is      430.3 secs

     total energy              =   -1692.65041627 Ry
     estimated scf accuracy    <       0.18434832 Ry

     total magnetization       =    36.00 Bohr mag/cell
     absolute magnetization    =    38.53 Bohr mag/cell
[tb_dev] Currently allocated     1.54E+01 Mbytes, locked:    0 /   8
[tb_pin] Currently allocated     0.00E+00 Mbytes, locked:    0 /   0

     iteration # 33     ecut=    35.00 Ry     beta= 0.40
     Davidson diagonalization with overlap

---- Real-time Memory Report at c_bands before calling an iterative solver
          3813 MiB given to the printing process from OS
          -566 MiB allocation reported by mallinfo(arena+hblkhd)
         56041 MiB available memory on the node where the printing process lives
     GPU memory used/free/total (MiB): 5170 / 11110 / 16280
------------------
     ethr =  8.35E-06,  avg # of iterations =  1.2

     total cpu time spent up to now is      439.3 secs

     total energy              =   -1692.64662209 Ry
     estimated scf accuracy    <       0.16897277 Ry

     total magnetization       =    36.00 Bohr mag/cell
     absolute magnetization    =    38.61 Bohr mag/cell
[tb_dev] Currently allocated     1.54E+01 Mbytes, locked:    0 /   8
[tb_pin] Currently allocated     0.00E+00 Mbytes, locked:    0 /   0

     iteration # 34     ecut=    35.00 Ry     beta= 0.40
     Davidson diagonalization with overlap

---- Real-time Memory Report at c_bands before calling an iterative solver
          3813 MiB given to the printing process from OS
          -566 MiB allocation reported by mallinfo(arena+hblkhd)
         56042 MiB available memory on the node where the printing process lives
     GPU memory used/free/total (MiB): 5170 / 11110 / 16280
------------------
     ethr =  8.35E-06,  avg # of iterations =  1.0

     total cpu time spent up to now is      448.3 secs

     total energy              =   -1692.64220261 Ry
     estimated scf accuracy    <       0.19612018 Ry

     total magnetization       =    36.00 Bohr mag/cell
     absolute magnetization    =    38.53 Bohr mag/cell
[tb_dev] Currently allocated     1.54E+01 Mbytes, locked:    0 /   8
[tb_pin] Currently allocated     0.00E+00 Mbytes, locked:    0 /   0

     iteration # 35     ecut=    35.00 Ry     beta= 0.40
     Davidson diagonalization with overlap

---- Real-time Memory Report at c_bands before calling an iterative solver
          3813 MiB given to the printing process from OS
          -566 MiB allocation reported by mallinfo(arena+hblkhd)
         56042 MiB available memory on the node where the printing process lives
     GPU memory used/free/total (MiB): 5170 / 11110 / 16280
------------------
     ethr =  8.35E-06,  avg # of iterations =  1.0

     total cpu time spent up to now is      457.2 secs

     total energy              =   -1692.66497177 Ry
     estimated scf accuracy    <       0.23187011 Ry

     total magnetization       =    36.00 Bohr mag/cell
     absolute magnetization    =    38.45 Bohr mag/cell
[tb_dev] Currently allocated     1.54E+01 Mbytes, locked:    0 /   8
[tb_pin] Currently allocated     0.00E+00 Mbytes, locked:    0 /   0

     iteration # 36     ecut=    35.00 Ry     beta= 0.40
     Davidson diagonalization with overlap

---- Real-time Memory Report at c_bands before calling an iterative solver
          3813 MiB given to the printing process from OS
          -566 MiB allocation reported by mallinfo(arena+hblkhd)
         56043 MiB available memory on the node where the printing process lives
     GPU memory used/free/total (MiB): 5170 / 11110 / 16280
------------------
     c_bands:  1 eigenvalues not converged
     c_bands:  1 eigenvalues not converged
     c_bands:  2 eigenvalues not converged
     c_bands:  1 eigenvalues not converged
     c_bands:  1 eigenvalues not converged
     c_bands:  1 eigenvalues not converged
     c_bands:  2 eigenvalues not converged
     c_bands:  2 eigenvalues not converged
     c_bands:  1 eigenvalues not converged
     c_bands:  2 eigenvalues not converged
     c_bands:  1 eigenvalues not converged
     c_bands:  1 eigenvalues not converged
     c_bands:  2 eigenvalues not converged
     c_bands:  1 eigenvalues not converged
     c_bands:  3 eigenvalues not converged
     c_bands:  4 eigenvalues not converged
     c_bands:  1 eigenvalues not converged
     c_bands:  2 eigenvalues not converged
     c_bands:  1 eigenvalues not converged
     c_bands:  2 eigenvalues not converged
     ethr =  8.35E-06,  avg # of iterations = 17.3

     total cpu time spent up to now is      478.6 secs

     total energy              =   -1692.67971833 Ry
     estimated scf accuracy    <       0.20041291 Ry

     total magnetization       =    36.00 Bohr mag/cell
     absolute magnetization    =    40.37 Bohr mag/cell
[tb_dev] Currently allocated     1.54E+01 Mbytes, locked:    0 /   8
[tb_pin] Currently allocated     0.00E+00 Mbytes, locked:    0 /   0

     iteration # 37     ecut=    35.00 Ry     beta= 0.40
     Davidson diagonalization with overlap

---- Real-time Memory Report at c_bands before calling an iterative solver
          3813 MiB given to the printing process from OS
          -566 MiB allocation reported by mallinfo(arena+hblkhd)
         56044 MiB available memory on the node where the printing process lives
     GPU memory used/free/total (MiB): 5170 / 11110 / 16280
------------------
     c_bands:  1 eigenvalues not converged
     c_bands:  2 eigenvalues not converged
     c_bands:  1 eigenvalues not converged
     c_bands:  1 eigenvalues not converged
     c_bands:  2 eigenvalues not converged
     c_bands:  1 eigenvalues not converged
     c_bands:  4 eigenvalues not converged
     ethr =  8.35E-06,  avg # of iterations = 10.4

     total cpu time spent up to now is      492.0 secs

     total energy              =   -1692.65379351 Ry
     estimated scf accuracy    <       0.09542335 Ry

     total magnetization       =    36.00 Bohr mag/cell
     absolute magnetization    =    40.07 Bohr mag/cell
[tb_dev] Currently allocated     1.54E+01 Mbytes, locked:    0 /   8
[tb_pin] Currently allocated     0.00E+00 Mbytes, locked:    0 /   0

     iteration # 38     ecut=    35.00 Ry     beta= 0.40
     Davidson diagonalization with overlap

---- Real-time Memory Report at c_bands before calling an iterative solver
          3813 MiB given to the printing process from OS
          -566 MiB allocation reported by mallinfo(arena+hblkhd)
         56043 MiB available memory on the node where the printing process lives
     GPU memory used/free/total (MiB): 5170 / 11110 / 16280
------------------
     ethr =  8.35E-06,  avg # of iterations =  7.8

     total cpu time spent up to now is      505.4 secs

     total energy              =   -1692.68214523 Ry
     estimated scf accuracy    <       0.06459361 Ry

     total magnetization       =    36.00 Bohr mag/cell
     absolute magnetization    =    39.21 Bohr mag/cell
[tb_dev] Currently allocated     1.54E+01 Mbytes, locked:    0 /   8
[tb_pin] Currently allocated     0.00E+00 Mbytes, locked:    0 /   0

     iteration # 39     ecut=    35.00 Ry     beta= 0.40
     Davidson diagonalization with overlap

---- Real-time Memory Report at c_bands before calling an iterative solver
          3813 MiB given to the printing process from OS
          -566 MiB allocation reported by mallinfo(arena+hblkhd)
         56044 MiB available memory on the node where the printing process lives
     GPU memory used/free/total (MiB): 5170 / 11110 / 16280
------------------
     c_bands:  1 eigenvalues not converged
     c_bands:  1 eigenvalues not converged
     c_bands:  2 eigenvalues not converged
     c_bands:  3 eigenvalues not converged
     c_bands:  1 eigenvalues not converged
     c_bands:  2 eigenvalues not converged
     c_bands:  1 eigenvalues not converged
     ethr =  8.35E-06,  avg # of iterations = 11.2
     Minimization algorithm failed to find Fermi energy: reverting to bisection
     Possible cause: smearing is larger than the electronic band-gap.

     total cpu time spent up to now is      521.4 secs

     total energy              =   -1692.70867820 Ry
     estimated scf accuracy    <       0.01616333 Ry

     total magnetization       =    36.00 Bohr mag/cell
     absolute magnetization    =    40.05 Bohr mag/cell
[tb_dev] Currently allocated     1.54E+01 Mbytes, locked:    0 /   8
[tb_pin] Currently allocated     0.00E+00 Mbytes, locked:    0 /   0

     iteration # 40     ecut=    35.00 Ry     beta= 0.40
     Davidson diagonalization with overlap

---- Real-time Memory Report at c_bands before calling an iterative solver
          3813 MiB given to the printing process from OS
          -566 MiB allocation reported by mallinfo(arena+hblkhd)
         56044 MiB available memory on the node where the printing process lives
     GPU memory used/free/total (MiB): 5170 / 11110 / 16280
------------------
     c_bands:  1 eigenvalues not converged
     c_bands:  1 eigenvalues not converged
     c_bands:  2 eigenvalues not converged
     c_bands:  1 eigenvalues not converged
     c_bands:  1 eigenvalues not converged
     c_bands:  1 eigenvalues not converged
     c_bands:  1 eigenvalues not converged
     ethr =  8.35E-06,  avg # of iterations = 14.1
     Minimization algorithm failed to find Fermi energy: reverting to bisection
     Possible cause: smearing is larger than the electronic band-gap.

     total cpu time spent up to now is      539.4 secs

     total energy              =   -1692.71933726 Ry
     estimated scf accuracy    <       0.02268059 Ry

     total magnetization       =    36.00 Bohr mag/cell
     absolute magnetization    =    41.35 Bohr mag/cell
[tb_dev] Currently allocated     1.54E+01 Mbytes, locked:    0 /   8
[tb_pin] Currently allocated     0.00E+00 Mbytes, locked:    0 /   0

     iteration # 41     ecut=    35.00 Ry     beta= 0.40
     Davidson diagonalization with overlap

---- Real-time Memory Report at c_bands before calling an iterative solver
          3813 MiB given to the printing process from OS
          -566 MiB allocation reported by mallinfo(arena+hblkhd)
         56044 MiB available memory on the node where the printing process lives
     GPU memory used/free/total (MiB): 5170 / 11110 / 16280
------------------
     c_bands:  1 eigenvalues not converged
     c_bands:  1 eigenvalues not converged
     ethr =  8.35E-06,  avg # of iterations =  6.1
     Minimization algorithm failed to find Fermi energy: reverting to bisection
     Possible cause: smearing is larger than the electronic band-gap.

     total cpu time spent up to now is      550.5 secs

     total energy              =   -1692.69995058 Ry
     estimated scf accuracy    <       0.06465515 Ry

     total magnetization       =    36.01 Bohr mag/cell
     absolute magnetization    =    41.41 Bohr mag/cell
[tb_dev] Currently allocated     1.54E+01 Mbytes, locked:    0 /   8
[tb_pin] Currently allocated     0.00E+00 Mbytes, locked:    0 /   0

     iteration # 42     ecut=    35.00 Ry     beta= 0.40
     Davidson diagonalization with overlap

---- Real-time Memory Report at c_bands before calling an iterative solver
          3813 MiB given to the printing process from OS
          -566 MiB allocation reported by mallinfo(arena+hblkhd)
         56043 MiB available memory on the node where the printing process lives
     GPU memory used/free/total (MiB): 5170 / 11110 / 16280
------------------
     ethr =  8.35E-06,  avg # of iterations =  5.1
     Minimization algorithm failed to find Fermi energy: reverting to bisection
     Possible cause: smearing is larger than the electronic band-gap.

     total cpu time spent up to now is      561.5 secs

     total energy              =   -1692.69391850 Ry
     estimated scf accuracy    <       0.09062322 Ry

     total magnetization       =    36.00 Bohr mag/cell
     absolute magnetization    =    40.96 Bohr mag/cell
[tb_dev] Currently allocated     1.54E+01 Mbytes, locked:    0 /   8
[tb_pin] Currently allocated     0.00E+00 Mbytes, locked:    0 /   0

     iteration # 43     ecut=    35.00 Ry     beta= 0.40
     Davidson diagonalization with overlap

---- Real-time Memory Report at c_bands before calling an iterative solver
          3813 MiB given to the printing process from OS
          -566 MiB allocation reported by mallinfo(arena+hblkhd)
         56044 MiB available memory on the node where the printing process lives
     GPU memory used/free/total (MiB): 5170 / 11110 / 16280
------------------
     ethr =  8.35E-06,  avg # of iterations =  2.6

     total cpu time spent up to now is      571.3 secs

     total energy              =   -1692.70332034 Ry
     estimated scf accuracy    <       0.12568748 Ry

     total magnetization       =    36.00 Bohr mag/cell
     absolute magnetization    =    40.74 Bohr mag/cell
[tb_dev] Currently allocated     1.54E+01 Mbytes, locked:    0 /   8
[tb_pin] Currently allocated     0.00E+00 Mbytes, locked:    0 /   0

     iteration # 44     ecut=    35.00 Ry     beta= 0.40
     Davidson diagonalization with overlap

---- Real-time Memory Report at c_bands before calling an iterative solver
          3813 MiB given to the printing process from OS
          -566 MiB allocation reported by mallinfo(arena+hblkhd)
         56045 MiB available memory on the node where the printing process lives
     GPU memory used/free/total (MiB): 5170 / 11110 / 16280
------------------
     ethr =  8.35E-06,  avg # of iterations =  1.2
     Minimization algorithm failed to find Fermi energy: reverting to bisection
     Possible cause: smearing is larger than the electronic band-gap.

     total cpu time spent up to now is      580.3 secs

     total energy              =   -1692.67020491 Ry
     estimated scf accuracy    <       0.11443017 Ry

     total magnetization       =    36.00 Bohr mag/cell
     absolute magnetization    =    40.81 Bohr mag/cell
[tb_dev] Currently allocated     1.54E+01 Mbytes, locked:    0 /   8
[tb_pin] Currently allocated     0.00E+00 Mbytes, locked:    0 /   0

     iteration # 45     ecut=    35.00 Ry     beta= 0.40
     Davidson diagonalization with overlap

---- Real-time Memory Report at c_bands before calling an iterative solver
          3813 MiB given to the printing process from OS
          -566 MiB allocation reported by mallinfo(arena+hblkhd)
         56011 MiB available memory on the node where the printing process lives
     GPU memory used/free/total (MiB): 5170 / 11110 / 16280
------------------
     c_bands:  1 eigenvalues not converged
     c_bands:  2 eigenvalues not converged
     c_bands:  2 eigenvalues not converged
     c_bands:  1 eigenvalues not converged
     c_bands:  1 eigenvalues not converged
     c_bands:  1 eigenvalues not converged
     c_bands:  1 eigenvalues not converged
     c_bands:  1 eigenvalues not converged
     c_bands:  1 eigenvalues not converged
     c_bands:  1 eigenvalues not converged
     c_bands:  1 eigenvalues not converged
     ethr =  8.35E-06,  avg # of iterations = 13.6

     total cpu time spent up to now is      598.0 secs

     total energy              =   -1692.69304633 Ry
     estimated scf accuracy    <       0.12202864 Ry

     total magnetization       =    36.00 Bohr mag/cell
     absolute magnetization    =    39.80 Bohr mag/cell
[tb_dev] Currently allocated     1.54E+01 Mbytes, locked:    0 /   8
[tb_pin] Currently allocated     0.00E+00 Mbytes, locked:    0 /   0

     iteration # 46     ecut=    35.00 Ry     beta= 0.40
     Davidson diagonalization with overlap

---- Real-time Memory Report at c_bands before calling an iterative solver
          3813 MiB given to the printing process from OS
          -566 MiB allocation reported by mallinfo(arena+hblkhd)
         56031 MiB available memory on the node where the printing process lives
     GPU memory used/free/total (MiB): 5170 / 11110 / 16280
------------------
     c_bands:  1 eigenvalues not converged
     ethr =  8.35E-06,  avg # of iterations =  7.1
     Minimization algorithm failed to find Fermi energy: reverting to bisection
     Possible cause: smearing is larger than the electronic band-gap.

     total cpu time spent up to now is      611.4 secs

     total energy              =   -1692.69388005 Ry
     estimated scf accuracy    <       0.01258617 Ry

     total magnetization       =    36.00 Bohr mag/cell
     absolute magnetization    =    40.62 Bohr mag/cell
[tb_dev] Currently allocated     1.54E+01 Mbytes, locked:    0 /   8
[tb_pin] Currently allocated     0.00E+00 Mbytes, locked:    0 /   0

     iteration # 47     ecut=    35.00 Ry     beta= 0.40
     Davidson diagonalization with overlap

---- Real-time Memory Report at c_bands before calling an iterative solver
          3813 MiB given to the printing process from OS
          -566 MiB allocation reported by mallinfo(arena+hblkhd)
         56036 MiB available memory on the node where the printing process lives
     GPU memory used/free/total (MiB): 5170 / 11110 / 16280
------------------
     ethr =  6.99E-06,  avg # of iterations =  3.9
     Minimization algorithm failed to find Fermi energy: reverting to bisection
     Possible cause: smearing is larger than the electronic band-gap.

     total cpu time spent up to now is      621.7 secs

     total energy              =   -1692.71393453 Ry
     estimated scf accuracy    <       0.02063287 Ry

     total magnetization       =    36.00 Bohr mag/cell
     absolute magnetization    =    40.30 Bohr mag/cell
[tb_dev] Currently allocated     1.54E+01 Mbytes, locked:    0 /   8
[tb_pin] Currently allocated     0.00E+00 Mbytes, locked:    0 /   0

     iteration # 48     ecut=    35.00 Ry     beta= 0.40
     Davidson diagonalization with overlap

---- Real-time Memory Report at c_bands before calling an iterative solver
          3813 MiB given to the printing process from OS
          -566 MiB allocation reported by mallinfo(arena+hblkhd)
         56036 MiB available memory on the node where the printing process lives
     GPU memory used/free/total (MiB): 5170 / 11110 / 16280
------------------
     c_bands:  1 eigenvalues not converged
     c_bands:  1 eigenvalues not converged
     c_bands:  1 eigenvalues not converged
     c_bands:  2 eigenvalues not converged
     c_bands:  3 eigenvalues not converged
     c_bands:  1 eigenvalues not converged
     c_bands:  1 eigenvalues not converged
     c_bands:  1 eigenvalues not converged
     c_bands:  2 eigenvalues not converged
     c_bands:  1 eigenvalues not converged
     ethr =  6.99E-06,  avg # of iterations = 15.7
     Minimization algorithm failed to find Fermi energy: reverting to bisection
     Possible cause: smearing is larger than the electronic band-gap.

     total cpu time spent up to now is      642.4 secs

     total energy              =   -1692.74471083 Ry
     estimated scf accuracy    <       0.01804112 Ry

     total magnetization       =    36.00 Bohr mag/cell
     absolute magnetization    =    42.25 Bohr mag/cell
[tb_dev] Currently allocated     1.54E+01 Mbytes, locked:    0 /   8
[tb_pin] Currently allocated     0.00E+00 Mbytes, locked:    0 /   0

     iteration # 49     ecut=    35.00 Ry     beta= 0.40
     Davidson diagonalization with overlap

---- Real-time Memory Report at c_bands before calling an iterative solver
          3813 MiB given to the printing process from OS
          -566 MiB allocation reported by mallinfo(arena+hblkhd)
         56038 MiB available memory on the node where the printing process lives
     GPU memory used/free/total (MiB): 5170 / 11110 / 16280
------------------
     c_bands:  1 eigenvalues not converged
     c_bands:  1 eigenvalues not converged
     c_bands:  1 eigenvalues not converged
     ethr =  6.99E-06,  avg # of iterations =  6.8
     Minimization algorithm failed to find Fermi energy: reverting to bisection
     Possible cause: smearing is larger than the electronic band-gap.

     total cpu time spent up to now is      654.1 secs

     total energy              =   -1692.74809378 Ry
     estimated scf accuracy    <       0.01285735 Ry

     total magnetization       =    36.00 Bohr mag/cell
     absolute magnetization    =    42.43 Bohr mag/cell
[tb_dev] Currently allocated     1.54E+01 Mbytes, locked:    0 /   8
[tb_pin] Currently allocated     0.00E+00 Mbytes, locked:    0 /   0

     iteration # 50     ecut=    35.00 Ry     beta= 0.40
     Davidson diagonalization with overlap

---- Real-time Memory Report at c_bands before calling an iterative solver
          3813 MiB given to the printing process from OS
          -566 MiB allocation reported by mallinfo(arena+hblkhd)
         56038 MiB available memory on the node where the printing process lives
     GPU memory used/free/total (MiB): 5170 / 11110 / 16280
------------------
     c_bands:  1 eigenvalues not converged
     c_bands:  3 eigenvalues not converged
     c_bands:  3 eigenvalues not converged
     c_bands:  1 eigenvalues not converged
     c_bands:  2 eigenvalues not converged
     c_bands:  1 eigenvalues not converged
     c_bands:  1 eigenvalues not converged
     c_bands:  1 eigenvalues not converged
     ethr =  6.99E-06,  avg # of iterations = 14.4

     total cpu time spent up to now is      674.0 secs

     total energy              =   -1692.76205184 Ry
     estimated scf accuracy    <       0.04876111 Ry

     total magnetization       =    36.00 Bohr mag/cell
     absolute magnetization    =    43.67 Bohr mag/cell
[tb_dev] Currently allocated     1.54E+01 Mbytes, locked:    0 /   8
[tb_pin] Currently allocated     0.00E+00 Mbytes, locked:    0 /   0

     iteration # 51     ecut=    35.00 Ry     beta= 0.40
     Davidson diagonalization with overlap

---- Real-time Memory Report at c_bands before calling an iterative solver
          3813 MiB given to the printing process from OS
          -566 MiB allocation reported by mallinfo(arena+hblkhd)
         56041 MiB available memory on the node where the printing process lives
     GPU memory used/free/total (MiB): 5170 / 11110 / 16280
------------------
     c_bands:  1 eigenvalues not converged
     c_bands:  2 eigenvalues not converged
     ethr =  6.99E-06,  avg # of iterations =  5.0

     total cpu time spent up to now is      684.9 secs

     total energy              =   -1692.75840013 Ry
     estimated scf accuracy    <       0.02955345 Ry

     total magnetization       =    36.00 Bohr mag/cell
     absolute magnetization    =    43.88 Bohr mag/cell
[tb_dev] Currently allocated     1.54E+01 Mbytes, locked:    0 /   8
[tb_pin] Currently allocated     0.00E+00 Mbytes, locked:    0 /   0

     iteration # 52     ecut=    35.00 Ry     beta= 0.40
     Davidson diagonalization with overlap

---- Real-time Memory Report at c_bands before calling an iterative solver
          3813 MiB given to the printing process from OS
          -566 MiB allocation reported by mallinfo(arena+hblkhd)
         56041 MiB available memory on the node where the printing process lives
     GPU memory used/free/total (MiB): 5170 / 11110 / 16280
------------------
     c_bands:  1 eigenvalues not converged
     ethr =  6.99E-06,  avg # of iterations =  2.8

     total cpu time spent up to now is      694.7 secs

     total energy              =   -1692.76065386 Ry
     estimated scf accuracy    <       0.02432052 Ry

     total magnetization       =    36.00 Bohr mag/cell
     absolute magnetization    =    43.75 Bohr mag/cell
[tb_dev] Currently allocated     1.54E+01 Mbytes, locked:    0 /   8
[tb_pin] Currently allocated     0.00E+00 Mbytes, locked:    0 /   0

     iteration # 53     ecut=    35.00 Ry     beta= 0.40
     Davidson diagonalization with overlap

---- Real-time Memory Report at c_bands before calling an iterative solver
          3813 MiB given to the printing process from OS
          -566 MiB allocation reported by mallinfo(arena+hblkhd)
         56042 MiB available memory on the node where the printing process lives
     GPU memory used/free/total (MiB): 5170 / 11110 / 16280
------------------
     c_bands:  2 eigenvalues not converged
     c_bands:  3 eigenvalues not converged
     c_bands:  1 eigenvalues not converged
     ethr =  6.99E-06,  avg # of iterations =  5.5

     total cpu time spent up to now is      706.1 secs

     total energy              =   -1692.76174374 Ry
     estimated scf accuracy    <       0.00792234 Ry

     total magnetization       =    36.00 Bohr mag/cell
     absolute magnetization    =    43.97 Bohr mag/cell
[tb_dev] Currently allocated     1.54E+01 Mbytes, locked:    0 /   8
[tb_pin] Currently allocated     0.00E+00 Mbytes, locked:    0 /   0

     iteration # 54     ecut=    35.00 Ry     beta= 0.40
     Davidson diagonalization with overlap

---- Real-time Memory Report at c_bands before calling an iterative solver
          3813 MiB given to the printing process from OS
          -566 MiB allocation reported by mallinfo(arena+hblkhd)
         56041 MiB available memory on the node where the printing process lives
     GPU memory used/free/total (MiB): 5170 / 11110 / 16280
------------------
     c_bands:  1 eigenvalues not converged
     c_bands:  1 eigenvalues not converged
     c_bands:  2 eigenvalues not converged
     c_bands:  3 eigenvalues not converged
     ethr =  4.40E-06,  avg # of iterations =  8.5

     total cpu time spent up to now is      719.8 secs

     total energy              =   -1692.76322462 Ry
     estimated scf accuracy    <       0.00047717 Ry

     total magnetization       =    36.00 Bohr mag/cell
     absolute magnetization    =    44.11 Bohr mag/cell
[tb_dev] Currently allocated     1.54E+01 Mbytes, locked:    0 /   8
[tb_pin] Currently allocated     0.00E+00 Mbytes, locked:    0 /   0

     iteration # 55     ecut=    35.00 Ry     beta= 0.40
     Davidson diagonalization with overlap

---- Real-time Memory Report at c_bands before calling an iterative solver
          3813 MiB given to the printing process from OS
          -566 MiB allocation reported by mallinfo(arena+hblkhd)
         56043 MiB available memory on the node where the printing process lives
     GPU memory used/free/total (MiB): 5170 / 11110 / 16280
------------------
     c_bands:  4 eigenvalues not converged
     c_bands:  3 eigenvalues not converged
     c_bands:  1 eigenvalues not converged
     c_bands:  1 eigenvalues not converged
     c_bands:  2 eigenvalues not converged
     c_bands:  2 eigenvalues not converged
     c_bands:  1 eigenvalues not converged
     c_bands:  1 eigenvalues not converged
     c_bands:  2 eigenvalues not converged
     c_bands:  2 eigenvalues not converged
     c_bands:  1 eigenvalues not converged
     c_bands:  1 eigenvalues not converged
     c_bands:  3 eigenvalues not converged
     c_bands:  1 eigenvalues not converged
     c_bands:  2 eigenvalues not converged
     c_bands:  1 eigenvalues not converged
     c_bands:  1 eigenvalues not converged
     ethr =  2.65E-07,  avg # of iterations = 17.7

     total cpu time spent up to now is      741.1 secs

     total energy              =   -1692.76434917 Ry
     estimated scf accuracy    <       0.00571545 Ry

     total magnetization       =    36.00 Bohr mag/cell
     absolute magnetization    =    44.31 Bohr mag/cell
[tb_dev] Currently allocated     1.54E+01 Mbytes, locked:    0 /   8
[tb_pin] Currently allocated     0.00E+00 Mbytes, locked:    0 /   0

     iteration # 56     ecut=    35.00 Ry     beta= 0.40
     Davidson diagonalization with overlap

---- Real-time Memory Report at c_bands before calling an iterative solver
          3813 MiB given to the printing process from OS
          -566 MiB allocation reported by mallinfo(arena+hblkhd)
         56043 MiB available memory on the node where the printing process lives
     GPU memory used/free/total (MiB): 5170 / 11110 / 16280
------------------
     c_bands:  2 eigenvalues not converged
     c_bands:  3 eigenvalues not converged
     c_bands:  1 eigenvalues not converged
     ethr =  2.65E-07,  avg # of iterations =  5.6

     total cpu time spent up to now is      752.4 secs

     total energy              =   -1692.76439842 Ry
     estimated scf accuracy    <       0.00377091 Ry

     total magnetization       =    36.00 Bohr mag/cell
     absolute magnetization    =    44.39 Bohr mag/cell
[tb_dev] Currently allocated     1.54E+01 Mbytes, locked:    0 /   8
[tb_pin] Currently allocated     0.00E+00 Mbytes, locked:    0 /   0

     iteration # 57     ecut=    35.00 Ry     beta= 0.40
     Davidson diagonalization with overlap

---- Real-time Memory Report at c_bands before calling an iterative solver
          3813 MiB given to the printing process from OS
          -566 MiB allocation reported by mallinfo(arena+hblkhd)
         56043 MiB available memory on the node where the printing process lives
     GPU memory used/free/total (MiB): 5170 / 11110 / 16280
------------------
     c_bands:  1 eigenvalues not converged
     c_bands:  1 eigenvalues not converged
     c_bands:  2 eigenvalues not converged
     c_bands:  1 eigenvalues not converged
     c_bands:  2 eigenvalues not converged
     c_bands:  1 eigenvalues not converged
     c_bands:  1 eigenvalues not converged
     c_bands:  2 eigenvalues not converged
     ethr =  2.65E-07,  avg # of iterations = 10.9

     total cpu time spent up to now is      767.7 secs

     total energy              =   -1692.76466920 Ry
     estimated scf accuracy    <       0.00029115 Ry

     total magnetization       =    36.00 Bohr mag/cell
     absolute magnetization    =    44.34 Bohr mag/cell
[tb_dev] Currently allocated     1.54E+01 Mbytes, locked:    0 /   8
[tb_pin] Currently allocated     0.00E+00 Mbytes, locked:    0 /   0

     iteration # 58     ecut=    35.00 Ry     beta= 0.40
     Davidson diagonalization with overlap

---- Real-time Memory Report at c_bands before calling an iterative solver
          3813 MiB given to the printing process from OS
          -566 MiB allocation reported by mallinfo(arena+hblkhd)
         56043 MiB available memory on the node where the printing process lives
     GPU memory used/free/total (MiB): 5170 / 11110 / 16280
------------------
     c_bands:  1 eigenvalues not converged
     c_bands:  2 eigenvalues not converged
     c_bands:  1 eigenvalues not converged
     c_bands:  2 eigenvalues not converged
     ethr =  1.62E-07,  avg # of iterations = 10.9

     total cpu time spent up to now is      783.9 secs

     total energy              =   -1692.76489470 Ry
     estimated scf accuracy    <       0.00084531 Ry

     total magnetization       =    36.00 Bohr mag/cell
     absolute magnetization    =    44.45 Bohr mag/cell
[tb_dev] Currently allocated     1.54E+01 Mbytes, locked:    0 /   8
[tb_pin] Currently allocated     0.00E+00 Mbytes, locked:    0 /   0

     iteration # 59     ecut=    35.00 Ry     beta= 0.40
[...]
     Davidson diagonalization with overlap

---- Real-time Memory Report at c_bands before calling an iterative solver
          3813 MiB given to the printing process from OS
          -566 MiB allocation reported by mallinfo(arena+hblkhd)
         56046 MiB available memory on the node where the printing process lives
     GPU memory used/free/total (MiB): 5170 / 11110 / 16280
------------------
     ethr =  4.54E-08,  avg # of iterations =  2.7
     Minimization algorithm failed to find Fermi energy: reverting to bisection
     Possible cause: smearing is larger than the electronic band-gap.

     total cpu time spent up to now is      906.4 secs

     total energy              =   -1692.76548256 Ry
     estimated scf accuracy    <       0.00219040 Ry

     total magnetization       =    36.00 Bohr mag/cell
     absolute magnetization    =    44.64 Bohr mag/cell
[tb_dev] Currently allocated     1.54E+01 Mbytes, locked:    0 /   8
[tb_pin] Currently allocated     0.00E+00 Mbytes, locked:    0 /   0

     iteration # 70     ecut=    35.00 Ry     beta= 0.40
     Davidson diagonalization with overlap

---- Real-time Memory Report at c_bands before calling an iterative solver
          3813 MiB given to the printing process from OS
          -566 MiB allocation reported by mallinfo(arena+hblkhd)
         56046 MiB available memory on the node where the printing process lives
     GPU memory used/free/total (MiB): 5170 / 11110 / 16280
------------------
     ethr =  4.54E-08,  avg # of iterations =  4.6

     total cpu time spent up to now is      917.3 secs

     total energy              =   -1692.76537079 Ry
     estimated scf accuracy    <       0.00227660 Ry

     total magnetization       =    36.00 Bohr mag/cell
     absolute magnetization    =    44.64 Bohr mag/cell
[tb_dev] Currently allocated     1.54E+01 Mbytes, locked:    0 /   8
[tb_pin] Currently allocated     0.00E+00 Mbytes, locked:    0 /   0

     iteration # 71     ecut=    35.00 Ry     beta= 0.40
     Davidson diagonalization with overlap

---- Real-time Memory Report at c_bands before calling an iterative solver
          3813 MiB given to the printing process from OS
          -566 MiB allocation reported by mallinfo(arena+hblkhd)
         56046 MiB available memory on the node where the printing process lives
     GPU memory used/free/total (MiB): 5170 / 11110 / 16280
------------------
     c_bands:  1 eigenvalues not converged
     ethr =  4.54E-08,  avg # of iterations =  4.6
     Minimization algorithm failed to find Fermi energy: reverting to bisection
     Possible cause: smearing is larger than the electronic band-gap.

     total cpu time spent up to now is      928.4 secs

     total energy              =   -1692.76491511 Ry
     estimated scf accuracy    <       0.00254149 Ry

     total magnetization       =    36.00 Bohr mag/cell
     absolute magnetization    =    44.64 Bohr mag/cell
[tb_dev] Currently allocated     1.54E+01 Mbytes, locked:    0 /   8
[tb_pin] Currently allocated     0.00E+00 Mbytes, locked:    0 /   0

     iteration # 72     ecut=    35.00 Ry     beta= 0.40
     Davidson diagonalization with overlap

---- Real-time Memory Report at c_bands before calling an iterative solver
          3813 MiB given to the printing process from OS
          -566 MiB allocation reported by mallinfo(arena+hblkhd)
         56045 MiB available memory on the node where the printing process lives
     GPU memory used/free/total (MiB): 5170 / 11110 / 16280
------------------
     c_bands:  1 eigenvalues not converged
     c_bands:  3 eigenvalues not converged
     c_bands:  2 eigenvalues not converged
     c_bands:  3 eigenvalues not converged
     c_bands:  2 eigenvalues not converged
     c_bands:  1 eigenvalues not converged
     c_bands:  1 eigenvalues not converged
     c_bands:  3 eigenvalues not converged
     c_bands:  1 eigenvalues not converged
     c_bands:  3 eigenvalues not converged
     c_bands:  2 eigenvalues not converged
     c_bands:  1 eigenvalues not converged
     c_bands:  3 eigenvalues not converged
     c_bands:  2 eigenvalues not converged
     ethr =  4.54E-08,  avg # of iterations = 12.7

     total cpu time spent up to now is      946.3 secs

     total energy              =   -1692.76465753 Ry
     estimated scf accuracy    <       0.00329993 Ry

     total magnetization       =    36.00 Bohr mag/cell
     absolute magnetization    =    44.61 Bohr mag/cell
[tb_dev] Currently allocated     1.54E+01 Mbytes, locked:    0 /   8
[tb_pin] Currently allocated     0.00E+00 Mbytes, locked:    0 /   0

     iteration # 73     ecut=    35.00 Ry     beta= 0.40
     Davidson diagonalization with overlap

---- Real-time Memory Report at c_bands before calling an iterative solver
          3813 MiB given to the printing process from OS
          -566 MiB allocation reported by mallinfo(arena+hblkhd)
         56046 MiB available memory on the node where the printing process lives
     GPU memory used/free/total (MiB): 5170 / 11110 / 16280
------------------
     c_bands:  4 eigenvalues not converged
     c_bands:  2 eigenvalues not converged
     c_bands:  4 eigenvalues not converged
     c_bands:  2 eigenvalues not converged
     c_bands:  3 eigenvalues not converged
     c_bands:  1 eigenvalues not converged
     c_bands:  2 eigenvalues not converged
     c_bands:  2 eigenvalues not converged
     c_bands:  5 eigenvalues not converged
     c_bands:  3 eigenvalues not converged
     c_bands:  1 eigenvalues not converged
     c_bands:  2 eigenvalues not converged
     c_bands:  1 eigenvalues not converged
     c_bands:  2 eigenvalues not converged
     c_bands:  1 eigenvalues not converged
     c_bands:  2 eigenvalues not converged
     ethr =  4.54E-08,  avg # of iterations = 14.6

     total cpu time spent up to now is      967.3 secs

     total energy              =   -1692.76551877 Ry
     estimated scf accuracy    <       0.00009939 Ry

     total magnetization       =    36.00 Bohr mag/cell
     absolute magnetization    =    44.70 Bohr mag/cell
[tb_dev] Currently allocated     1.54E+01 Mbytes, locked:    0 /   8
[tb_pin] Currently allocated     0.00E+00 Mbytes, locked:    0 /   0

     iteration # 74     ecut=    35.00 Ry     beta= 0.40
     Davidson diagonalization with overlap

---- Real-time Memory Report at c_bands before calling an iterative solver
          3813 MiB given to the printing process from OS
          -566 MiB allocation reported by mallinfo(arena+hblkhd)
         56046 MiB available memory on the node where the printing process lives
     GPU memory used/free/total (MiB): 5170 / 11110 / 16280
------------------
     c_bands:  1 eigenvalues not converged
     c_bands:  1 eigenvalues not converged
     c_bands:  1 eigenvalues not converged
     c_bands:  2 eigenvalues not converged
     c_bands:  2 eigenvalues not converged
     c_bands:  1 eigenvalues not converged
     c_bands:  2 eigenvalues not converged
     c_bands:  1 eigenvalues not converged
     c_bands:  2 eigenvalues not converged
     c_bands:  1 eigenvalues not converged
     c_bands:  2 eigenvalues not converged
     c_bands:  1 eigenvalues not converged
     c_bands:  3 eigenvalues not converged
     c_bands:  1 eigenvalues not converged
     ethr =  4.54E-08,  avg # of iterations = 12.2

     total cpu time spent up to now is      984.1 secs

     total energy              =   -1692.76563631 Ry
     estimated scf accuracy    <       0.00050294 Ry

     total magnetization       =    36.00 Bohr mag/cell
     absolute magnetization    =    44.72 Bohr mag/cell
[tb_dev] Currently allocated     1.54E+01 Mbytes, locked:    0 /   8
[tb_pin] Currently allocated     0.00E+00 Mbytes, locked:    0 /   0

     iteration # 75     ecut=    35.00 Ry     beta= 0.40
     Davidson diagonalization with overlap

---- Real-time Memory Report at c_bands before calling an iterative solver
          3813 MiB given to the printing process from OS
          -566 MiB allocation reported by mallinfo(arena+hblkhd)
         56046 MiB available memory on the node where the printing process lives
     GPU memory used/free/total (MiB): 5170 / 11110 / 16280
------------------
     c_bands:  2 eigenvalues not converged
     c_bands:  2 eigenvalues not converged
     c_bands:  1 eigenvalues not converged
     c_bands:  2 eigenvalues not converged
     c_bands:  3 eigenvalues not converged
     c_bands:  1 eigenvalues not converged
     c_bands:  2 eigenvalues not converged
     c_bands:  1 eigenvalues not converged
     ethr =  4.54E-08,  avg # of iterations =  7.4

     total cpu time spent up to now is      996.0 secs

     total energy              =   -1692.76580795 Ry
     estimated scf accuracy    <       0.00126752 Ry

     total magnetization       =    36.00 Bohr mag/cell
     absolute magnetization    =    44.68 Bohr mag/cell
[tb_dev] Currently allocated     1.54E+01 Mbytes, locked:    0 /   8
[tb_pin] Currently allocated     0.00E+00 Mbytes, locked:    0 /   0

     iteration # 76     ecut=    35.00 Ry     beta= 0.40
     Davidson diagonalization with overlap

---- Real-time Memory Report at c_bands before calling an iterative solver
          3813 MiB given to the printing process from OS
          -566 MiB allocation reported by mallinfo(arena+hblkhd)
         56046 MiB available memory on the node where the printing process lives
     GPU memory used/free/total (MiB): 5170 / 11110 / 16280
------------------
     c_bands:  1 eigenvalues not converged
     c_bands:  1 eigenvalues not converged
     c_bands:  1 eigenvalues not converged
     c_bands:  1 eigenvalues not converged
     c_bands:  1 eigenvalues not converged
     c_bands:  1 eigenvalues not converged
     c_bands:  1 eigenvalues not converged
     c_bands:  1 eigenvalues not converged
     ethr =  4.54E-08,  avg # of iterations =  9.8

     total cpu time spent up to now is     1010.4 secs

     total energy              =   -1692.76544114 Ry
     estimated scf accuracy    <       0.00475125 Ry

     total magnetization       =    36.00 Bohr mag/cell
     absolute magnetization    =    44.65 Bohr mag/cell
[tb_dev] Currently allocated     1.54E+01 Mbytes, locked:    0 /   8
[tb_pin] Currently allocated     0.00E+00 Mbytes, locked:    0 /   0

     iteration # 77     ecut=    35.00 Ry     beta= 0.40
     Davidson diagonalization with overlap

---- Real-time Memory Report at c_bands before calling an iterative solver
          3813 MiB given to the printing process from OS
          -566 MiB allocation reported by mallinfo(arena+hblkhd)
         56046 MiB available memory on the node where the printing process lives
     GPU memory used/free/total (MiB): 5170 / 11110 / 16280
------------------
     c_bands:  1 eigenvalues not converged
     c_bands:  1 eigenvalues not converged
     c_bands:  1 eigenvalues not converged
     c_bands:  1 eigenvalues not converged
     c_bands:  2 eigenvalues not converged
     c_bands:  2 eigenvalues not converged
     c_bands:  1 eigenvalues not converged
     c_bands:  1 eigenvalues not converged
     c_bands:  3 eigenvalues not converged
     c_bands:  2 eigenvalues not converged
     c_bands:  1 eigenvalues not converged
     c_bands:  3 eigenvalues not converged
     ethr =  4.54E-08,  avg # of iterations = 12.0

     total cpu time spent up to now is     1026.8 secs

     total energy              =   -1692.76555139 Ry
     estimated scf accuracy    <       0.00232476 Ry

     total magnetization       =    36.00 Bohr mag/cell
     absolute magnetization    =    44.62 Bohr mag/cell
[tb_dev] Currently allocated     1.54E+01 Mbytes, locked:    0 /   8
[tb_pin] Currently allocated     0.00E+00 Mbytes, locked:    0 /   0

     iteration # 78     ecut=    35.00 Ry     beta= 0.40
     Davidson diagonalization with overlap

---- Real-time Memory Report at c_bands before calling an iterative solver
          3813 MiB given to the printing process from OS
          -566 MiB allocation reported by mallinfo(arena+hblkhd)
         56045 MiB available memory on the node where the printing process lives
     GPU memory used/free/total (MiB): 5170 / 11110 / 16280
------------------
     c_bands:  1 eigenvalues not converged
     c_bands:  2 eigenvalues not converged
     c_bands:  1 eigenvalues not converged
     c_bands:  1 eigenvalues not converged
     c_bands:  1 eigenvalues not converged
     c_bands:  2 eigenvalues not converged
     ethr =  4.54E-08,  avg # of iterations =  4.7

     total cpu time spent up to now is     1037.2 secs

     total energy              =   -1692.76555732 Ry
     estimated scf accuracy    <       0.00145052 Ry

     total magnetization       =    36.00 Bohr mag/cell
     absolute magnetization    =    44.63 Bohr mag/cell
[tb_dev] Currently allocated     1.54E+01 Mbytes, locked:    0 /   8
[tb_pin] Currently allocated     0.00E+00 Mbytes, locked:    0 /   0

     iteration # 79     ecut=    35.00 Ry     beta= 0.40
     Davidson diagonalization with overlap

---- Real-time Memory Report at c_bands before calling an iterative solver
          3813 MiB given to the printing process from OS
          -566 MiB allocation reported by mallinfo(arena+hblkhd)
         56045 MiB available memory on the node where the printing process lives
     GPU memory used/free/total (MiB): 5170 / 11110 / 16280
------------------
     c_bands:  1 eigenvalues not converged
     ethr =  4.54E-08,  avg # of iterations =  3.7

     total cpu time spent up to now is     1047.3 secs

     total energy              =   -1692.76536245 Ry
     estimated scf accuracy    <       0.00176860 Ry

     total magnetization       =    36.00 Bohr mag/cell
     absolute magnetization    =    44.62 Bohr mag/cell
[tb_dev] Currently allocated     1.54E+01 Mbytes, locked:    0 /   8
[tb_pin] Currently allocated     0.00E+00 Mbytes, locked:    0 /   0

     iteration # 80     ecut=    35.00 Ry     beta= 0.40
     Davidson diagonalization with overlap

---- Real-time Memory Report at c_bands before calling an iterative solver
          3813 MiB given to the printing process from OS
          -566 MiB allocation reported by mallinfo(arena+hblkhd)
         56045 MiB available memory on the node where the printing process lives
     GPU memory used/free/total (MiB): 5170 / 11110 / 16280
------------------
     c_bands:  1 eigenvalues not converged
     c_bands:  1 eigenvalues not converged
     c_bands:  1 eigenvalues not converged
     c_bands:  1 eigenvalues not converged
     c_bands:  2 eigenvalues not converged
     c_bands:  1 eigenvalues not converged
     c_bands:  1 eigenvalues not converged
     c_bands:  2 eigenvalues not converged
     c_bands:  1 eigenvalues not converged
     ethr =  4.54E-08,  avg # of iterations = 10.6

     total cpu time spent up to now is     1062.4 secs

     total energy              =   -1692.76568341 Ry
     estimated scf accuracy    <       0.00111693 Ry

     total magnetization       =    36.00 Bohr mag/cell
     absolute magnetization    =    44.65 Bohr mag/cell

     End of self-consistent calculation

     convergence NOT achieved after  80 iterations: stopping

     Writing config to output data dir ./out/aiida.save/
 
     init_run     :     20.02s CPU     12.00s WALL (       1 calls)
     electrons    :   1388.29s CPU   1050.26s WALL (       1 calls)

     Called by init_run:
     wfcinit      :      6.82s CPU      8.87s WALL (       1 calls)
                                        8.87s GPU  (       1 calls)
     wfcinit:atom :      0.03s CPU      0.08s WALL (      36 calls)
                                        0.08s GPU  (      36 calls)
     wfcinit:wfcr :      3.34s CPU      3.87s WALL (      36 calls)
                                        3.87s GPU  (      36 calls)
     potinit      :      4.26s CPU      0.37s WALL (       1 calls)
     hinit0       :      6.47s CPU      1.84s WALL (       1 calls)

     Called by electrons:
     c_bands      :    930.60s CPU    867.56s WALL (      80 calls)
     sum_band     :    146.51s CPU    149.98s WALL (      80 calls)
     v_of_rho     :     59.90s CPU      8.34s WALL (      81 calls)
     v_h          :     13.27s CPU      1.25s WALL (      81 calls)
     v_xc         :     46.61s CPU      7.09s WALL (      81 calls)
     newd         :     52.91s CPU      5.02s WALL (      81 calls)
                                        5.02s GPU  (      81 calls)
     mix_rho      :    154.38s CPU     15.12s WALL (      80 calls)

     Called by c_bands:
     init_us_2    :     14.44s CPU     16.39s WALL (    5796 calls)
     init_us_2:gp :     14.30s CPU     16.27s WALL (    5796 calls)
     cegterg      :    782.57s CPU    739.75s WALL (    2884 calls)

     Called by sum_band:
     sum_band:wei :      0.55s CPU      0.55s WALL (      80 calls)
                                        0.55s GPU  (      80 calls)
     sum_band:loo :    134.44s CPU    137.85s WALL (      80 calls)
                                      137.85s GPU  (      80 calls)
     sum_band:buf :     56.44s CPU     56.63s WALL (    2880 calls)
                                       56.61s GPU  (    2880 calls)
     sum_band:ini :      5.48s CPU      7.04s WALL (    2880 calls)
                                        7.03s GPU  (    2880 calls)
     sum_band:cal :      0.13s CPU      7.95s WALL (    2880 calls)
                                        6.58s GPU  (    2880 calls)
     sum_band:bec :      0.39s CPU      0.43s WALL (    2880 calls)
                                        0.41s GPU  (    2880 calls)
     addusdens    :      4.13s CPU      4.16s WALL (      80 calls)
                                        4.16s GPU  (      80 calls)
     addusd:skk   :      0.01s CPU      0.01s WALL (      80 calls)
                                        0.01s GPU  (      80 calls)

     Called by *egterg:
     cdiaghg      :    199.95s CPU    219.02s WALL (   23813 calls)
                                      218.85s GPU  (   23813 calls)
     cegterg:over :     26.29s CPU     26.85s WALL (   20929 calls)
     cegterg:upda :     28.18s CPU     25.99s WALL (   20929 calls)
     cegterg:last :     25.21s CPU     25.38s WALL (    6183 calls)
     h_psi        :    450.99s CPU    396.48s WALL (   23849 calls)
                                      395.59s GPU  (   23849 calls)
     s_psi        :      5.03s CPU     27.51s WALL (   23849 calls)
                                       25.47s GPU  (   23849 calls)
     g_psi        :      0.17s CPU      2.25s WALL (   20929 calls)
                                        2.12s GPU  (   20929 calls)

     Called by h_psi:
     h_psi:calbec :      0.91s CPU     26.04s WALL (   23849 calls)
                                       25.89s GPU  (   23849 calls)
     vloc_psi     :    384.74s CPU    335.28s WALL (   23849 calls)
                                      335.10s GPU  (   23849 calls)
     add_vuspsi   :      8.33s CPU     30.92s WALL (   23849 calls)
                                       30.75s GPU  (   23849 calls)

     General routines
     calbec       :      0.77s CPU      0.77s WALL (   26729 calls)
     fft          :      3.99s CPU      1.02s WALL (    2023 calls)
                                        0.77s GPU  (    1861 calls)
     ffts         :      0.46s CPU      0.14s WALL (     322 calls)
                                        0.03s GPU  (     160 calls)
     fftw         :      3.44s CPU    283.68s WALL (  148482 calls)
                                      282.15s GPU  (  148482 calls)
     interpolate  :     18.21s CPU      1.59s WALL (     162 calls)
     davcio       :      0.33s CPU      1.66s WALL (      54 calls)
 
     Parallel routines
 
     PWSCF        :  23m30.93s CPU  17m44.80s WALL

 
   This run was terminated on:  23:54:43  22Oct2023            

=------------------------------------------------------------------------------=
   JOB DONE.
=------------------------------------------------------------------------------=
