
     Program PWSCF v.7.2 starts on 22Oct2023 at 18:28:11 

     This program is part of the open-source Quantum ESPRESSO suite
     for quantum simulation of materials; please cite
         "P. Giannozzi et al., J. Phys.:Condens. Matter 21 395502 (2009);
         "P. Giannozzi et al., J. Phys.:Condens. Matter 29 465901 (2017);
         "P. Giannozzi et al., J. Chem. Phys. 152 154105 (2020);
          URL http://www.quantum-espresso.org", 
     in publications or presentations arising from this work. More details at
     http://www.quantum-espresso.org/quote

     Parallel version (MPI & OpenMP), running on      12 processor cores
     Number of MPI processes:                 1
     Threads/MPI process:                    12

     MPI processes distributed on     1 nodes
     55920 MiB available memory on the printing compute node when the environment starts
 
     Reading input from aiida.in

     Current dimensions of program PWSCF are:
     Max number of different atomic species (ntypx) = 10
     Max number of k-points (npk) =  40000
     Max angular momentum in pseudopotentials (lmaxx) =  4
     Message from routine setup:
     using ibrav=0 with symmetry is DISCOURAGED, use correct ibrav instead
 
     Subspace diagonalization in iterative solution of the eigenvalue problem:
     a serial algorithm will be used

 
     G-vector sticks info
     --------------------
     sticks:   dense  smooth     PW     G-vecs:    dense   smooth      PW
     Sum        4315    2173    595               184785    65349    9665
 
     Using Slab Decomposition
 


     bravais-lattice index     =            0
     lattice parameter (alat)  =      11.4517  a.u.
     unit-cell volume          =    1040.9125 (a.u.)^3
     number of atoms/cell      =            9
     number of atomic types    =            3
     number of electrons       =        66.00
     number of Kohn-Sham states=           40
     kinetic-energy cutoff     =      60.0000  Ry
     charge density cutoff     =     480.0000  Ry
     scf convergence threshold =      1.8E-09
     mixing beta               =       0.4000
     number of iterations used =            8  plain     mixing
     Exchange-correlation= SLA  PW   PSX  PSC
                           (   1   4  10   8   0   0   0)

     GPU acceleration is ACTIVE.


     GPU used by master process:

        Device Number: 0
        Device name: Tesla P100-PCIE-16GB
        Compute capability : 60
        Ratio of single to double precision performance  : 2
        Memory Clock Rate (KHz): 715000
        Memory Bus Width (bits): 4096
        Peak Memory Bandwidth (GB/s): 732.16

     celldm(1)=  11.451740  celldm(2)=   0.000000  celldm(3)=   0.000000
     celldm(4)=   0.000000  celldm(5)=   0.000000  celldm(6)=   0.000000

     crystal axes: (cart. coord. in units of alat)
               a(1) = (   1.000000   0.000000   0.000000 )  
               a(2) = (  -0.500000   0.866025   0.000000 )  
               a(3) = (   0.000000   0.000000   0.800330 )  

     reciprocal axes: (cart. coord. in units 2 pi/alat)
               b(1) = (  1.000000  0.577350 -0.000000 )  
               b(2) = (  0.000000  1.154701  0.000000 )  
               b(3) = (  0.000000 -0.000000  1.249485 )  


     PseudoPot. # 1 for F  read from file:
     ./pseudo/f_pbesol_v1.4.uspp.F.UPF
     MD5 check sum: d2815ecb49b17b99c5724ffd2f9bbd8d
     Pseudo is Ultrasoft, Zval =  7.0
     Generated by new atomic code, or converted to UPF format
     Using radial grid of  799 points,  4 beta functions with: 
                l(1) =   0
                l(2) =   0
                l(3) =   1
                l(4) =   1
     Q(r) pseudized with  8 coefficients,  rinner =    0.950   0.950   0.950


     PseudoPot. # 2 for N  read from file:
     ./pseudo/N.pbesol-theos.UPF
     MD5 check sum: 1b64827339d390a5a22afef3ff345c9d
     Pseudo is Ultrasoft + core correction, Zval =  5.0
     Generated using "atomic" code by A. Dal Corso  v.5.1
     Using radial grid of 1085 points,  4 beta functions with: 
                l(1) =   0
                l(2) =   0
                l(3) =   1
                l(4) =   1
     Q(r) pseudized with 0 coefficients 


     PseudoPot. # 3 for Sn read from file:
     ./pseudo/sn_pbesol_v1.4.uspp.F.UPF
     MD5 check sum: 463fec1d5456f1e96ec1bfcad4b7b038
     Pseudo is Ultrasoft + core correction, Zval = 14.0
     Generated by new atomic code, or converted to UPF format
     Using radial grid of  891 points,  6 beta functions with: 
                l(1) =   0
                l(2) =   0
                l(3) =   1
                l(4) =   1
                l(5) =   2
                l(6) =   2
     Q(r) pseudized with  8 coefficients,  rinner =    1.350   1.350   1.350
                                                       1.350   1.350

     atomic species   valence    mass     pseudopotential
        F              7.00    18.99840     F ( 1.00)
        N              5.00    14.00670     N ( 1.00)
        Sn            14.00   118.71000     Sn( 1.00)

     Starting magnetic structure 
     atomic species   magnetization
        F            0.100
        N            0.100
        Sn           0.100

     12 Sym. Ops., with inversion, found


                                    s                        frac. trans.

      isym =  1     identity                                     

 cryst.   s( 1) = (     1          0          0      )
                  (     0          1          0      )
                  (     0          0          1      )

 cart.    s( 1) = (  1.0000000  0.0000000  0.0000000 )
                  (  0.0000000  1.0000000  0.0000000 )
                  (  0.0000000  0.0000000  1.0000000 )


      isym =  2     180 deg rotation - cart. axis [1,0,0]        

 cryst.   s( 2) = (     1          0          0      )
                  (    -1         -1          0      )
                  (     0          0         -1      )

 cart.    s( 2) = (  1.0000000  0.0000000  0.0000000 )
                  (  0.0000000 -1.0000000  0.0000000 )
                  (  0.0000000  0.0000000 -1.0000000 )


      isym =  3     120 deg rotation - cryst. axis [0,0,1]       

 cryst.   s( 3) = (     0          1          0      )
                  (    -1         -1          0      )
                  (     0          0          1      )

 cart.    s( 3) = ( -0.5000000 -0.8660254  0.0000000 )
                  (  0.8660254 -0.5000000  0.0000000 )
                  (  0.0000000  0.0000000  1.0000000 )


      isym =  4     120 deg rotation - cryst. axis [0,0,-1]      

 cryst.   s( 4) = (    -1         -1          0      )
                  (     1          0          0      )
                  (     0          0          1      )

 cart.    s( 4) = ( -0.5000000  0.8660254  0.0000000 )
                  ( -0.8660254 -0.5000000  0.0000000 )
                  (  0.0000000  0.0000000  1.0000000 )


      isym =  5     180 deg rotation - cryst. axis [0,1,0]       

 cryst.   s( 5) = (    -1         -1          0      )
                  (     0          1          0      )
                  (     0          0         -1      )

 cart.    s( 5) = ( -0.5000000 -0.8660254  0.0000000 )
                  ( -0.8660254  0.5000000  0.0000000 )
                  (  0.0000000  0.0000000 -1.0000000 )


      isym =  6     180 deg rotation - cryst. axis [1,1,0]       

 cryst.   s( 6) = (     0          1          0      )
                  (     1          0          0      )
                  (     0          0         -1      )

 cart.    s( 6) = ( -0.5000000  0.8660254  0.0000000 )
                  (  0.8660254  0.5000000  0.0000000 )
                  (  0.0000000  0.0000000 -1.0000000 )


      isym =  7     inversion                                    

 cryst.   s( 7) = (    -1          0          0      )
                  (     0         -1          0      )
                  (     0          0         -1      )

 cart.    s( 7) = ( -1.0000000  0.0000000  0.0000000 )
                  (  0.0000000 -1.0000000  0.0000000 )
                  (  0.0000000  0.0000000 -1.0000000 )


      isym =  8     inv. 180 deg rotation - cart. axis [1,0,0]   

 cryst.   s( 8) = (    -1          0          0      )
                  (     1          1          0      )
                  (     0          0          1      )

 cart.    s( 8) = ( -1.0000000  0.0000000  0.0000000 )
                  (  0.0000000  1.0000000  0.0000000 )
                  (  0.0000000  0.0000000  1.0000000 )


      isym =  9     inv. 120 deg rotation - cryst. axis [0,0,1]  

 cryst.   s( 9) = (     0         -1          0      )
                  (     1          1          0      )
                  (     0          0         -1      )

 cart.    s( 9) = (  0.5000000  0.8660254  0.0000000 )
                  ( -0.8660254  0.5000000  0.0000000 )
                  (  0.0000000  0.0000000 -1.0000000 )


      isym = 10     inv. 120 deg rotation - cryst. axis [0,0,-1] 

 cryst.   s(10) = (     1          1          0      )
                  (    -1          0          0      )
                  (     0          0         -1      )

 cart.    s(10) = (  0.5000000 -0.8660254  0.0000000 )
                  (  0.8660254  0.5000000  0.0000000 )
                  (  0.0000000  0.0000000 -1.0000000 )


      isym = 11     inv. 180 deg rotation - cryst. axis [0,1,0]  

 cryst.   s(11) = (     1          1          0      )
                  (     0         -1          0      )
                  (     0          0          1      )

 cart.    s(11) = (  0.5000000  0.8660254  0.0000000 )
                  (  0.8660254 -0.5000000  0.0000000 )
                  (  0.0000000  0.0000000  1.0000000 )


      isym = 12     inv. 180 deg rotation - cryst. axis [1,1,0]  

 cryst.   s(12) = (     0         -1          0      )
                  (    -1          0          0      )
                  (     0          0          1      )

 cart.    s(12) = (  0.5000000 -0.8660254  0.0000000 )
                  ( -0.8660254 -0.5000000  0.0000000 )
                  (  0.0000000  0.0000000  1.0000000 )


   Cartesian axes

     site n.     atom                  positions (alat units)
         1           Sn  tau(   1) = (   0.0000000   0.0000000   0.0000000  )
         2           N   tau(   2) = (  -0.0000000   0.5773503   0.2641089  )
         3           N   tau(   3) = (   0.5000000   0.2886751   0.5362211  )
         4           F   tau(   4) = (   0.2085000   0.1203775   0.1608663  )
         5           F   tau(   5) = (   0.0000000   0.2407551   0.6394637  )
         6           F   tau(   6) = (  -0.2915000   0.7456479   0.6394637  )
         7           F   tau(   7) = (   0.7915000   0.1203775   0.1608663  )
         8           F   tau(   8) = (   0.5000000   0.6252703   0.1608663  )
         9           F   tau(   9) = (   0.2915000   0.7456479   0.6394637  )

   Crystallographic axes

     site n.     atom                  positions (cryst. coord.)
         1           Sn  tau(   1) = (  0.0000000  0.0000000  0.0000000  )
         2           N   tau(   2) = (  0.3333333  0.6666667  0.3300000  )
         3           N   tau(   3) = (  0.6666667  0.3333333  0.6700000  )
         4           F   tau(   4) = (  0.2780000  0.1390000  0.2010000  )
         5           F   tau(   5) = (  0.1390000  0.2780000  0.7990000  )
         6           F   tau(   6) = (  0.1390000  0.8610000  0.7990000  )
         7           F   tau(   7) = (  0.8610000  0.1390000  0.2010000  )
         8           F   tau(   8) = (  0.8610000  0.7220000  0.2010000  )
         9           F   tau(   9) = (  0.7220000  0.8610000  0.7990000  )

     number of k points=    70  Marzari-Vanderbilt smearing, width (Ry)=  0.0100
                       cart. coord. in units 2pi/alat
        k(    1) = (   0.0000000   0.0000000   0.0000000), wk =   0.0017361
        k(    2) = (   0.0000000   0.0000000   0.1388316), wk =   0.0034722
        k(    3) = (   0.0000000   0.0000000   0.2776632), wk =   0.0034722
        k(    4) = (   0.0000000   0.0000000   0.4164948), wk =   0.0034722
        k(    5) = (   0.0000000   0.0000000   0.5553265), wk =   0.0034722
        k(    6) = (   0.0000000   0.1443376   0.0000000), wk =   0.0104167
        k(    7) = (   0.0000000   0.1443376   0.1388316), wk =   0.0104167
        k(    8) = (   0.0000000   0.1443376   0.2776632), wk =   0.0104167
        k(    9) = (   0.0000000   0.1443376   0.4164948), wk =   0.0104167
        k(   10) = (   0.0000000   0.1443376   0.5553265), wk =   0.0104167
        k(   11) = (   0.0000000   0.2886751   0.0000000), wk =   0.0104167
        k(   12) = (   0.0000000   0.2886751   0.1388316), wk =   0.0104167
        k(   13) = (   0.0000000   0.2886751   0.2776632), wk =   0.0104167
        k(   14) = (   0.0000000   0.2886751   0.4164948), wk =   0.0104167
        k(   15) = (   0.0000000   0.2886751   0.5553265), wk =   0.0104167
        k(   16) = (   0.0000000   0.4330127   0.0000000), wk =   0.0104167
        k(   17) = (   0.0000000   0.4330127   0.1388316), wk =   0.0104167
        k(   18) = (   0.0000000   0.4330127   0.2776632), wk =   0.0104167
        k(   19) = (   0.0000000   0.4330127   0.4164948), wk =   0.0104167
        k(   20) = (   0.0000000   0.4330127   0.5553265), wk =   0.0104167
        k(   21) = (   0.0000000  -0.5773503   0.0000000), wk =   0.0052083
        k(   22) = (   0.0000000  -0.5773503   0.1388316), wk =   0.0104167
        k(   23) = (   0.0000000  -0.5773503   0.2776632), wk =   0.0104167
        k(   24) = (   0.0000000  -0.5773503   0.4164948), wk =   0.0104167
        k(   25) = (   0.0000000  -0.5773503   0.5553265), wk =   0.0104167
        k(   26) = (   0.1250000   0.2165064   0.0000000), wk =   0.0104167
        k(   27) = (   0.1250000   0.2165064   0.1388316), wk =   0.0208333
        k(   28) = (   0.1250000   0.2165064   0.2776632), wk =   0.0208333
        k(   29) = (   0.1250000   0.2165064   0.4164948), wk =   0.0208333
        k(   30) = (   0.1250000   0.2165064   0.5553265), wk =   0.0208333
        k(   31) = (   0.1250000   0.3608439   0.0000000), wk =   0.0208333
        k(   32) = (   0.1250000   0.3608439   0.1388316), wk =   0.0208333
        k(   33) = (   0.1250000   0.3608439   0.2776632), wk =   0.0208333
        k(   34) = (   0.1250000   0.3608439   0.4164948), wk =   0.0208333
        k(   35) = (   0.1250000   0.3608439   0.5553265), wk =   0.0208333
        k(   36) = (   0.1250000   0.5051815   0.0000000), wk =   0.0208333
        k(   37) = (   0.1250000   0.5051815   0.1388316), wk =   0.0208333
        k(   38) = (   0.1250000   0.5051815   0.2776632), wk =   0.0208333
        k(   39) = (   0.1250000   0.5051815   0.4164948), wk =   0.0208333
        k(   40) = (   0.1250000   0.5051815   0.5553265), wk =   0.0208333
        k(   41) = (   0.2500000   0.4330127   0.0000000), wk =   0.0104167
        k(   42) = (   0.2500000   0.4330127   0.1388316), wk =   0.0208333
        k(   43) = (   0.2500000   0.4330127   0.2776632), wk =   0.0208333
        k(   44) = (   0.2500000   0.4330127   0.4164948), wk =   0.0208333
        k(   45) = (   0.2500000   0.4330127   0.5553265), wk =   0.0208333
        k(   46) = (   0.2500000   0.5773503   0.0000000), wk =   0.0104167
        k(   47) = (   0.2500000   0.5773503   0.1388316), wk =   0.0208333
        k(   48) = (   0.2500000   0.5773503   0.2776632), wk =   0.0208333
        k(   49) = (   0.2500000   0.5773503   0.4164948), wk =   0.0208333
        k(   50) = (   0.2500000   0.5773503   0.5553265), wk =   0.0208333
        k(   51) = (   0.0000000   0.1443376  -0.1388316), wk =   0.0104167
        k(   52) = (   0.0000000   0.1443376  -0.2776632), wk =   0.0104167
        k(   53) = (   0.0000000   0.1443376  -0.4164948), wk =   0.0104167
        k(   54) = (   0.0000000   0.1443376  -0.5553265), wk =   0.0104167
        k(   55) = (   0.0000000   0.2886751  -0.1388316), wk =   0.0104167
        k(   56) = (   0.0000000   0.2886751  -0.2776632), wk =   0.0104167
        k(   57) = (   0.0000000   0.2886751  -0.4164948), wk =   0.0104167
        k(   58) = (   0.0000000   0.2886751  -0.5553265), wk =   0.0104167
        k(   59) = (   0.0000000   0.4330127  -0.1388316), wk =   0.0104167
        k(   60) = (   0.0000000   0.4330127  -0.2776632), wk =   0.0104167
        k(   61) = (   0.0000000   0.4330127  -0.4164948), wk =   0.0104167
        k(   62) = (   0.0000000   0.4330127  -0.5553265), wk =   0.0104167
        k(   63) = (  -0.1250000   0.3608439  -0.1388316), wk =   0.0208333
        k(   64) = (  -0.1250000   0.3608439  -0.2776632), wk =   0.0208333
        k(   65) = (  -0.1250000   0.3608439  -0.4164948), wk =   0.0208333
        k(   66) = (  -0.1250000   0.3608439  -0.5553265), wk =   0.0208333
        k(   67) = (  -0.1250000   0.5051815  -0.1388316), wk =   0.0208333
        k(   68) = (  -0.1250000   0.5051815  -0.2776632), wk =   0.0208333
        k(   69) = (  -0.1250000   0.5051815  -0.4164948), wk =   0.0208333
        k(   70) = (  -0.1250000   0.5051815  -0.5553265), wk =   0.0208333

                       cryst. coord.
        k(    1) = (   0.0000000   0.0000000   0.0000000), wk =   0.0017361
        k(    2) = (   0.0000000   0.0000000   0.1111111), wk =   0.0034722
        k(    3) = (   0.0000000   0.0000000   0.2222222), wk =   0.0034722
        k(    4) = (   0.0000000   0.0000000   0.3333333), wk =   0.0034722
        k(    5) = (   0.0000000   0.0000000   0.4444444), wk =   0.0034722
        k(    6) = (   0.0000000   0.1250000   0.0000000), wk =   0.0104167
        k(    7) = (   0.0000000   0.1250000   0.1111111), wk =   0.0104167
        k(    8) = (   0.0000000   0.1250000   0.2222222), wk =   0.0104167
        k(    9) = (   0.0000000   0.1250000   0.3333333), wk =   0.0104167
        k(   10) = (   0.0000000   0.1250000   0.4444444), wk =   0.0104167
        k(   11) = (   0.0000000   0.2500000   0.0000000), wk =   0.0104167
        k(   12) = (   0.0000000   0.2500000   0.1111111), wk =   0.0104167
        k(   13) = (   0.0000000   0.2500000   0.2222222), wk =   0.0104167
        k(   14) = (   0.0000000   0.2500000   0.3333333), wk =   0.0104167
        k(   15) = (   0.0000000   0.2500000   0.4444444), wk =   0.0104167
        k(   16) = (   0.0000000   0.3750000   0.0000000), wk =   0.0104167
        k(   17) = (   0.0000000   0.3750000   0.1111111), wk =   0.0104167
        k(   18) = (   0.0000000   0.3750000   0.2222222), wk =   0.0104167
        k(   19) = (   0.0000000   0.3750000   0.3333333), wk =   0.0104167
        k(   20) = (   0.0000000   0.3750000   0.4444444), wk =   0.0104167
        k(   21) = (   0.0000000  -0.5000000   0.0000000), wk =   0.0052083
        k(   22) = (   0.0000000  -0.5000000   0.1111111), wk =   0.0104167
        k(   23) = (   0.0000000  -0.5000000   0.2222222), wk =   0.0104167
        k(   24) = (   0.0000000  -0.5000000   0.3333333), wk =   0.0104167
        k(   25) = (   0.0000000  -0.5000000   0.4444444), wk =   0.0104167
        k(   26) = (   0.1250000   0.1250000   0.0000000), wk =   0.0104167
        k(   27) = (   0.1250000   0.1250000   0.1111111), wk =   0.0208333
        k(   28) = (   0.1250000   0.1250000   0.2222222), wk =   0.0208333
        k(   29) = (   0.1250000   0.1250000   0.3333333), wk =   0.0208333
        k(   30) = (   0.1250000   0.1250000   0.4444444), wk =   0.0208333
        k(   31) = (   0.1250000   0.2500000   0.0000000), wk =   0.0208333
        k(   32) = (   0.1250000   0.2500000   0.1111111), wk =   0.0208333
        k(   33) = (   0.1250000   0.2500000   0.2222222), wk =   0.0208333
        k(   34) = (   0.1250000   0.2500000   0.3333333), wk =   0.0208333
        k(   35) = (   0.1250000   0.2500000   0.4444444), wk =   0.0208333
        k(   36) = (   0.1250000   0.3750000   0.0000000), wk =   0.0208333
        k(   37) = (   0.1250000   0.3750000   0.1111111), wk =   0.0208333
        k(   38) = (   0.1250000   0.3750000   0.2222222), wk =   0.0208333
        k(   39) = (   0.1250000   0.3750000   0.3333333), wk =   0.0208333
        k(   40) = (   0.1250000   0.3750000   0.4444444), wk =   0.0208333
        k(   41) = (   0.2500000   0.2500000   0.0000000), wk =   0.0104167
        k(   42) = (   0.2500000   0.2500000   0.1111111), wk =   0.0208333
        k(   43) = (   0.2500000   0.2500000   0.2222222), wk =   0.0208333
        k(   44) = (   0.2500000   0.2500000   0.3333333), wk =   0.0208333
        k(   45) = (   0.2500000   0.2500000   0.4444444), wk =   0.0208333
        k(   46) = (   0.2500000   0.3750000   0.0000000), wk =   0.0104167
        k(   47) = (   0.2500000   0.3750000   0.1111111), wk =   0.0208333
        k(   48) = (   0.2500000   0.3750000   0.2222222), wk =   0.0208333
        k(   49) = (   0.2500000   0.3750000   0.3333333), wk =   0.0208333
        k(   50) = (   0.2500000   0.3750000   0.4444444), wk =   0.0208333
        k(   51) = (   0.0000000   0.1250000  -0.1111111), wk =   0.0104167
        k(   52) = (   0.0000000   0.1250000  -0.2222222), wk =   0.0104167
        k(   53) = (   0.0000000   0.1250000  -0.3333333), wk =   0.0104167
        k(   54) = (   0.0000000   0.1250000  -0.4444444), wk =   0.0104167
        k(   55) = (   0.0000000   0.2500000  -0.1111111), wk =   0.0104167
        k(   56) = (   0.0000000   0.2500000  -0.2222222), wk =   0.0104167
        k(   57) = (   0.0000000   0.2500000  -0.3333333), wk =   0.0104167
        k(   58) = (   0.0000000   0.2500000  -0.4444444), wk =   0.0104167
        k(   59) = (   0.0000000   0.3750000  -0.1111111), wk =   0.0104167
        k(   60) = (   0.0000000   0.3750000  -0.2222222), wk =   0.0104167
        k(   61) = (   0.0000000   0.3750000  -0.3333333), wk =   0.0104167
        k(   62) = (   0.0000000   0.3750000  -0.4444444), wk =   0.0104167
        k(   63) = (  -0.1250000   0.3750000  -0.1111111), wk =   0.0208333
        k(   64) = (  -0.1250000   0.3750000  -0.2222222), wk =   0.0208333
        k(   65) = (  -0.1250000   0.3750000  -0.3333333), wk =   0.0208333
        k(   66) = (  -0.1250000   0.3750000  -0.4444444), wk =   0.0208333
        k(   67) = (  -0.1250000   0.5000000  -0.1111111), wk =   0.0208333
        k(   68) = (  -0.1250000   0.5000000  -0.2222222), wk =   0.0208333
        k(   69) = (  -0.1250000   0.5000000  -0.3333333), wk =   0.0208333
        k(   70) = (  -0.1250000   0.5000000  -0.4444444), wk =   0.0208333

     Dense  grid:   184785 G-vectors     FFT dimensions: (  80,  80,  64)

     Smooth grid:    65349 G-vectors     FFT dimensions: (  60,  60,  45)

     Dynamical RAM for                 wfc:       4.99 MB

     Dynamical RAM for     wfc (w. buffer):     703.02 MB

     Dynamical RAM for           str. fact:       8.46 MB

     Dynamical RAM for           local pot:       0.00 MB

     Dynamical RAM for          nlocal pot:      10.22 MB

     Dynamical RAM for                qrad:       5.27 MB

     Dynamical RAM for          rho,v,vnew:      35.67 MB

     Dynamical RAM for               rhoin:      11.89 MB

     Dynamical RAM for            rho*nmix:      90.23 MB

     Dynamical RAM for           G-vectors:      11.07 MB

     Dynamical RAM for          h,s,v(r/c):       0.29 MB

     Dynamical RAM for          <psi|beta>:       0.05 MB

     Dynamical RAM for                 psi:       9.97 MB

     Dynamical RAM for                hpsi:       9.97 MB

     Dynamical RAM for                spsi:       9.97 MB

     Dynamical RAM for      wfcinit/wfcrot:      10.26 MB

     Dynamical RAM for           addusdens:     544.18 MB

     Dynamical RAM for          addusforce:     572.42 MB

     Dynamical RAM for         addusstress:     570.97 MB

     Estimated static dynamical RAM per process >     815.63 MB

     Estimated max dynamical RAM per process >       1.44 GB
     Generating pointlists ...
     new r_m :   0.1194 (alat units)  1.3678 (a.u.) for type    1
     new r_m :   0.2080 (alat units)  2.3816 (a.u.) for type    2
     new r_m :   0.1194 (alat units)  1.3678 (a.u.) for type    3

     Initial potential from superposition of free atoms

     starting charge      64.9999, renormalised to      66.0000
     Starting wfcs are   41 randomized atomic wfcs

     total cpu time spent up to now is        5.9 secs

     per-process dynamical memory:  1470.3 Mb

     Self-consistent Calculation
[tb_dev] Currently allocated     5.68E+00 Mbytes, locked:    0 /  12
[tb_pin] Currently allocated     0.00E+00 Mbytes, locked:    0 /   0

     iteration #  1     ecut=    60.00 Ry     beta= 0.40
     Davidson diagonalization with overlap

---- Real-time Memory Report at c_bands before calling an iterative solver
          1649 MiB given to the printing process from OS
          1449 MiB allocation reported by mallinfo(arena+hblkhd)
         53796 MiB available memory on the node where the printing process lives
     GPU memory used/free/total (MiB): 1082 / 15198 / 16280
------------------
     ethr =  1.00E-02,  avg # of iterations =  5.0

     total cpu time spent up to now is       12.9 secs

     total energy              =    -488.27463707 Ry
     estimated scf accuracy    <       2.01611640 Ry

     total magnetization       =     4.00 Bohr mag/cell
     absolute magnetization    =     4.32 Bohr mag/cell
[tb_dev] Currently allocated     5.68E+00 Mbytes, locked:    0 /  10
[tb_pin] Currently allocated     0.00E+00 Mbytes, locked:    0 /   0

     iteration #  2     ecut=    60.00 Ry     beta= 0.40
     Davidson diagonalization with overlap

---- Real-time Memory Report at c_bands before calling an iterative solver
          1709 MiB given to the printing process from OS
          1489 MiB allocation reported by mallinfo(arena+hblkhd)
         53764 MiB available memory on the node where the printing process lives
     GPU memory used/free/total (MiB): 1834 / 14446 / 16280
------------------
     ethr =  3.05E-03,  avg # of iterations =  2.3

     total cpu time spent up to now is       18.5 secs

     total energy              =    -486.83860499 Ry
     estimated scf accuracy    <      16.82680154 Ry

     total magnetization       =     4.12 Bohr mag/cell
     absolute magnetization    =     4.29 Bohr mag/cell
[tb_dev] Currently allocated     5.68E+00 Mbytes, locked:    0 /  10
[tb_pin] Currently allocated     0.00E+00 Mbytes, locked:    0 /   0

     iteration #  3     ecut=    60.00 Ry     beta= 0.40
     Davidson diagonalization with overlap

---- Real-time Memory Report at c_bands before calling an iterative solver
          1715 MiB given to the printing process from OS
          1495 MiB allocation reported by mallinfo(arena+hblkhd)
         53760 MiB available memory on the node where the printing process lives
     GPU memory used/free/total (MiB): 1958 / 14322 / 16280
------------------
     ethr =  3.05E-03,  avg # of iterations =  1.9

     total cpu time spent up to now is       23.2 secs

     total energy              =    -488.96323506 Ry
     estimated scf accuracy    <       1.09522612 Ry

     total magnetization       =     4.00 Bohr mag/cell
     absolute magnetization    =     4.26 Bohr mag/cell
[tb_dev] Currently allocated     5.68E+00 Mbytes, locked:    0 /  10
[tb_pin] Currently allocated     0.00E+00 Mbytes, locked:    0 /   0

     iteration #  4     ecut=    60.00 Ry     beta= 0.40
     Davidson diagonalization with overlap

---- Real-time Memory Report at c_bands before calling an iterative solver
          1721 MiB given to the printing process from OS
          1501 MiB allocation reported by mallinfo(arena+hblkhd)
         53756 MiB available memory on the node where the printing process lives
     GPU memory used/free/total (MiB): 1958 / 14322 / 16280
------------------
     ethr =  1.66E-03,  avg # of iterations =  1.0

     total cpu time spent up to now is       27.4 secs

     total energy              =    -488.77580267 Ry
     estimated scf accuracy    <       0.73419781 Ry

     total magnetization       =     4.00 Bohr mag/cell
     absolute magnetization    =     4.22 Bohr mag/cell
[tb_dev] Currently allocated     5.68E+00 Mbytes, locked:    0 /  10
[tb_pin] Currently allocated     0.00E+00 Mbytes, locked:    0 /   0

     iteration #  5     ecut=    60.00 Ry     beta= 0.40
     Davidson diagonalization with overlap

---- Real-time Memory Report at c_bands before calling an iterative solver
          1723 MiB given to the printing process from OS
          1503 MiB allocation reported by mallinfo(arena+hblkhd)
         53753 MiB available memory on the node where the printing process lives
     GPU memory used/free/total (MiB): 1958 / 14322 / 16280
------------------
     ethr =  1.11E-03,  avg # of iterations =  1.7

     total cpu time spent up to now is       32.0 secs

     total energy              =    -489.03553409 Ry
     estimated scf accuracy    <       0.57272788 Ry

     total magnetization       =     6.80 Bohr mag/cell
     absolute magnetization    =     6.82 Bohr mag/cell
[tb_dev] Currently allocated     5.68E+00 Mbytes, locked:    0 /  10
[tb_pin] Currently allocated     0.00E+00 Mbytes, locked:    0 /   0

     iteration #  6     ecut=    60.00 Ry     beta= 0.40
     Davidson diagonalization with overlap

---- Real-time Memory Report at c_bands before calling an iterative solver
          1727 MiB given to the printing process from OS
          1507 MiB allocation reported by mallinfo(arena+hblkhd)
         53750 MiB available memory on the node where the printing process lives
     GPU memory used/free/total (MiB): 1976 / 14304 / 16280
------------------
     ethr =  8.68E-04,  avg # of iterations =  1.0

     total cpu time spent up to now is       36.2 secs

     total energy              =    -489.04252875 Ry
     estimated scf accuracy    <       0.59034675 Ry

     total magnetization       =     6.81 Bohr mag/cell
     absolute magnetization    =     6.82 Bohr mag/cell
[tb_dev] Currently allocated     5.68E+00 Mbytes, locked:    0 /  10
[tb_pin] Currently allocated     0.00E+00 Mbytes, locked:    0 /   0

     iteration #  7     ecut=    60.00 Ry     beta= 0.40
     Davidson diagonalization with overlap

---- Real-time Memory Report at c_bands before calling an iterative solver
          1735 MiB given to the printing process from OS
          1515 MiB allocation reported by mallinfo(arena+hblkhd)
         53742 MiB available memory on the node where the printing process lives
     GPU memory used/free/total (MiB): 1976 / 14304 / 16280
------------------
     ethr =  8.68E-04,  avg # of iterations =  1.1

     total cpu time spent up to now is       40.4 secs

     total energy              =    -489.04788213 Ry
     estimated scf accuracy    <       0.57494603 Ry

     total magnetization       =     6.80 Bohr mag/cell
     absolute magnetization    =     6.82 Bohr mag/cell
[tb_dev] Currently allocated     5.68E+00 Mbytes, locked:    0 /  10
[tb_pin] Currently allocated     0.00E+00 Mbytes, locked:    0 /   0

     iteration #  8     ecut=    60.00 Ry     beta= 0.40
     Davidson diagonalization with overlap

---- Real-time Memory Report at c_bands before calling an iterative solver
          1737 MiB given to the printing process from OS
          1517 MiB allocation reported by mallinfo(arena+hblkhd)
         53741 MiB available memory on the node where the printing process lives
     GPU memory used/free/total (MiB): 1976 / 14304 / 16280
------------------
     ethr =  8.68E-04,  avg # of iterations =  1.1

     total cpu time spent up to now is       44.7 secs

     total energy              =    -489.05497761 Ry
     estimated scf accuracy    <       0.46929369 Ry

     total magnetization       =     6.66 Bohr mag/cell
     absolute magnetization    =     6.70 Bohr mag/cell
[tb_dev] Currently allocated     5.68E+00 Mbytes, locked:    0 /  10
[tb_pin] Currently allocated     0.00E+00 Mbytes, locked:    0 /   0

     iteration #  9     ecut=    60.00 Ry     beta= 0.40
     Davidson diagonalization with overlap

---- Real-time Memory Report at c_bands before calling an iterative solver
          1741 MiB given to the printing process from OS
          1521 MiB allocation reported by mallinfo(arena+hblkhd)
         53737 MiB available memory on the node where the printing process lives
     GPU memory used/free/total (MiB): 1976 / 14304 / 16280
------------------
     ethr =  7.11E-04,  avg # of iterations =  1.0

     total cpu time spent up to now is       48.9 secs

     total energy              =    -489.04211083 Ry
     estimated scf accuracy    <       0.42752296 Ry

     total magnetization       =     6.34 Bohr mag/cell
     absolute magnetization    =     6.64 Bohr mag/cell
[tb_dev] Currently allocated     5.68E+00 Mbytes, locked:    0 /  10
[tb_pin] Currently allocated     0.00E+00 Mbytes, locked:    0 /   0

     iteration # 10     ecut=    60.00 Ry     beta= 0.40
     Davidson diagonalization with overlap

---- Real-time Memory Report at c_bands before calling an iterative solver
          1745 MiB given to the printing process from OS
          1525 MiB allocation reported by mallinfo(arena+hblkhd)
         53733 MiB available memory on the node where the printing process lives
     GPU memory used/free/total (MiB): 1976 / 14304 / 16280
------------------
     ethr =  6.48E-04,  avg # of iterations =  1.1

     total cpu time spent up to now is       53.2 secs

     total energy              =    -489.00530872 Ry
     estimated scf accuracy    <       0.38680788 Ry

     total magnetization       =     7.10 Bohr mag/cell
     absolute magnetization    =     7.11 Bohr mag/cell
[tb_dev] Currently allocated     5.68E+00 Mbytes, locked:    0 /  10
[tb_pin] Currently allocated     0.00E+00 Mbytes, locked:    0 /   0

     iteration # 11     ecut=    60.00 Ry     beta= 0.40
     Davidson diagonalization with overlap

---- Real-time Memory Report at c_bands before calling an iterative solver
          1745 MiB given to the printing process from OS
          1525 MiB allocation reported by mallinfo(arena+hblkhd)
         53734 MiB available memory on the node where the printing process lives
     GPU memory used/free/total (MiB): 1976 / 14304 / 16280
------------------
     ethr =  5.86E-04,  avg # of iterations =  1.0

     total cpu time spent up to now is       57.4 secs

     total energy              =    -489.00687612 Ry
     estimated scf accuracy    <       0.18299442 Ry

     total magnetization       =     6.18 Bohr mag/cell
     absolute magnetization    =     6.65 Bohr mag/cell
[tb_dev] Currently allocated     5.68E+00 Mbytes, locked:    0 /  10
[tb_pin] Currently allocated     0.00E+00 Mbytes, locked:    0 /   0

     iteration # 12     ecut=    60.00 Ry     beta= 0.40
     Davidson diagonalization with overlap

---- Real-time Memory Report at c_bands before calling an iterative solver
          1747 MiB given to the printing process from OS
          1525 MiB allocation reported by mallinfo(arena+hblkhd)
         53734 MiB available memory on the node where the printing process lives
     GPU memory used/free/total (MiB): 1976 / 14304 / 16280
------------------
     ethr =  2.77E-04,  avg # of iterations =  1.1

     total cpu time spent up to now is       61.6 secs

     total energy              =    -488.99561021 Ry
     estimated scf accuracy    <       0.17272824 Ry

     total magnetization       =     6.91 Bohr mag/cell
     absolute magnetization    =     6.93 Bohr mag/cell
[tb_dev] Currently allocated     5.68E+00 Mbytes, locked:    0 /  10
[tb_pin] Currently allocated     0.00E+00 Mbytes, locked:    0 /   0

     iteration # 13     ecut=    60.00 Ry     beta= 0.40
     Davidson diagonalization with overlap

---- Real-time Memory Report at c_bands before calling an iterative solver
          1747 MiB given to the printing process from OS
          1525 MiB allocation reported by mallinfo(arena+hblkhd)
         53734 MiB available memory on the node where the printing process lives
     GPU memory used/free/total (MiB): 1976 / 14304 / 16280
------------------
     ethr =  2.62E-04,  avg # of iterations =  1.0

     total cpu time spent up to now is       65.8 secs

     total energy              =    -488.99500803 Ry
     estimated scf accuracy    <       0.10142012 Ry

     total magnetization       =     6.60 Bohr mag/cell
     absolute magnetization    =     6.63 Bohr mag/cell
[tb_dev] Currently allocated     5.68E+00 Mbytes, locked:    0 /  10
[tb_pin] Currently allocated     0.00E+00 Mbytes, locked:    0 /   0

     iteration # 14     ecut=    60.00 Ry     beta= 0.40
     Davidson diagonalization with overlap

---- Real-time Memory Report at c_bands before calling an iterative solver
          1747 MiB given to the printing process from OS
          1525 MiB allocation reported by mallinfo(arena+hblkhd)
         53734 MiB available memory on the node where the printing process lives
     GPU memory used/free/total (MiB): 1976 / 14304 / 16280
------------------
     ethr =  1.54E-04,  avg # of iterations =  1.0

     total cpu time spent up to now is       70.1 secs

     total energy              =    -488.95571728 Ry
     estimated scf accuracy    <       0.09244159 Ry

     total magnetization       =     6.89 Bohr mag/cell
     absolute magnetization    =     6.91 Bohr mag/cell
[tb_dev] Currently allocated     5.68E+00 Mbytes, locked:    0 /  10
[tb_pin] Currently allocated     0.00E+00 Mbytes, locked:    0 /   0

     iteration # 15     ecut=    60.00 Ry     beta= 0.40
     Davidson diagonalization with overlap

---- Real-time Memory Report at c_bands before calling an iterative solver
          1747 MiB given to the printing process from OS
          1525 MiB allocation reported by mallinfo(arena+hblkhd)
         53734 MiB available memory on the node where the printing process lives
     GPU memory used/free/total (MiB): 1976 / 14304 / 16280
------------------
     ethr =  1.40E-04,  avg # of iterations =  2.4

     total cpu time spent up to now is       75.2 secs

     total energy              =    -489.03887502 Ry
     estimated scf accuracy    <       0.74581304 Ry

     total magnetization       =     4.00 Bohr mag/cell
     absolute magnetization    =     4.24 Bohr mag/cell
[tb_dev] Currently allocated     5.68E+00 Mbytes, locked:    0 /  10
[tb_pin] Currently allocated     0.00E+00 Mbytes, locked:    0 /   0

     iteration # 16     ecut=    60.00 Ry     beta= 0.40
     Davidson diagonalization with overlap

---- Real-time Memory Report at c_bands before calling an iterative solver
          1747 MiB given to the printing process from OS
          1525 MiB allocation reported by mallinfo(arena+hblkhd)
         53735 MiB available memory on the node where the printing process lives
     GPU memory used/free/total (MiB): 1976 / 14304 / 16280
------------------
     ethr =  1.40E-04,  avg # of iterations =  1.0

     total cpu time spent up to now is       79.4 secs

     total energy              =    -488.98682298 Ry
     estimated scf accuracy    <       0.67806146 Ry

     total magnetization       =     4.00 Bohr mag/cell
     absolute magnetization    =     4.25 Bohr mag/cell
[tb_dev] Currently allocated     5.68E+00 Mbytes, locked:    0 /  10
[tb_pin] Currently allocated     0.00E+00 Mbytes, locked:    0 /   0

     iteration # 17     ecut=    60.00 Ry     beta= 0.40
     Davidson diagonalization with overlap

---- Real-time Memory Report at c_bands before calling an iterative solver
          1749 MiB given to the printing process from OS
          1525 MiB allocation reported by mallinfo(arena+hblkhd)
         53734 MiB available memory on the node where the printing process lives
     GPU memory used/free/total (MiB): 1976 / 14304 / 16280
------------------
     ethr =  1.40E-04,  avg # of iterations =  1.0

     total cpu time spent up to now is       83.7 secs

     total energy              =    -488.98237474 Ry
     estimated scf accuracy    <       0.22868470 Ry

     total magnetization       =     4.44 Bohr mag/cell
     absolute magnetization    =     4.83 Bohr mag/cell
[tb_dev] Currently allocated     5.68E+00 Mbytes, locked:    0 /  10
[tb_pin] Currently allocated     0.00E+00 Mbytes, locked:    0 /   0

     iteration # 18     ecut=    60.00 Ry     beta= 0.40
     Davidson diagonalization with overlap

---- Real-time Memory Report at c_bands before calling an iterative solver
          1749 MiB given to the printing process from OS
          1525 MiB allocation reported by mallinfo(arena+hblkhd)
         53727 MiB available memory on the node where the printing process lives
     GPU memory used/free/total (MiB): 1976 / 14304 / 16280
------------------
     ethr =  1.40E-04,  avg # of iterations =  1.0

     total cpu time spent up to now is       88.0 secs

     total energy              =    -488.98702615 Ry
     estimated scf accuracy    <       0.00318402 Ry

     total magnetization       =     6.19 Bohr mag/cell
     absolute magnetization    =     6.25 Bohr mag/cell
[tb_dev] Currently allocated     5.68E+00 Mbytes, locked:    0 /  10
[tb_pin] Currently allocated     0.00E+00 Mbytes, locked:    0 /   0

     iteration # 19     ecut=    60.00 Ry     beta= 0.40
     Davidson diagonalization with overlap

---- Real-time Memory Report at c_bands before calling an iterative solver
          1749 MiB given to the printing process from OS
          1525 MiB allocation reported by mallinfo(arena+hblkhd)
         53729 MiB available memory on the node where the printing process lives
     GPU memory used/free/total (MiB): 1976 / 14304 / 16280
------------------
     ethr =  4.82E-06,  avg # of iterations =  4.2

     total cpu time spent up to now is       93.9 secs

     total energy              =    -488.98607546 Ry
     estimated scf accuracy    <       0.01345667 Ry

     total magnetization       =     5.78 Bohr mag/cell
     absolute magnetization    =     5.91 Bohr mag/cell
[tb_dev] Currently allocated     5.68E+00 Mbytes, locked:    0 /  10
[tb_pin] Currently allocated     0.00E+00 Mbytes, locked:    0 /   0

     iteration # 20     ecut=    60.00 Ry     beta= 0.40
     Davidson diagonalization with overlap

---- Real-time Memory Report at c_bands before calling an iterative solver
          1749 MiB given to the printing process from OS
          1525 MiB allocation reported by mallinfo(arena+hblkhd)
         53732 MiB available memory on the node where the printing process lives
     GPU memory used/free/total (MiB): 1976 / 14304 / 16280
------------------
     ethr =  4.82E-06,  avg # of iterations =  1.2

     total cpu time spent up to now is       98.3 secs

     total energy              =    -488.98524057 Ry
     estimated scf accuracy    <       0.03291405 Ry

     total magnetization       =     6.92 Bohr mag/cell
     absolute magnetization    =     6.97 Bohr mag/cell
[tb_dev] Currently allocated     5.68E+00 Mbytes, locked:    0 /  10
[tb_pin] Currently allocated     0.00E+00 Mbytes, locked:    0 /   0

     iteration # 21     ecut=    60.00 Ry     beta= 0.40
     Davidson diagonalization with overlap

---- Real-time Memory Report at c_bands before calling an iterative solver
          1749 MiB given to the printing process from OS
          1525 MiB allocation reported by mallinfo(arena+hblkhd)
         53733 MiB available memory on the node where the printing process lives
     GPU memory used/free/total (MiB): 1976 / 14304 / 16280
------------------
     ethr =  4.82E-06,  avg # of iterations =  1.3

     total cpu time spent up to now is      102.6 secs

     total energy              =    -488.98240131 Ry
     estimated scf accuracy    <       0.03215823 Ry

     total magnetization       =     5.69 Bohr mag/cell
     absolute magnetization    =     5.88 Bohr mag/cell
[tb_dev] Currently allocated     5.68E+00 Mbytes, locked:    0 /  10
[tb_pin] Currently allocated     0.00E+00 Mbytes, locked:    0 /   0

     iteration # 22     ecut=    60.00 Ry     beta= 0.40
     Davidson diagonalization with overlap

---- Real-time Memory Report at c_bands before calling an iterative solver
          1749 MiB given to the printing process from OS
          1525 MiB allocation reported by mallinfo(arena+hblkhd)
         53734 MiB available memory on the node where the printing process lives
     GPU memory used/free/total (MiB): 1976 / 14304 / 16280
------------------
     ethr =  4.82E-06,  avg # of iterations =  2.2

     total cpu time spent up to now is      107.8 secs

     total energy              =    -488.98221006 Ry
     estimated scf accuracy    <       0.16988590 Ry

     total magnetization       =     8.09 Bohr mag/cell
     absolute magnetization    =     8.12 Bohr mag/cell
[tb_dev] Currently allocated     5.68E+00 Mbytes, locked:    0 /  10
[tb_pin] Currently allocated     0.00E+00 Mbytes, locked:    0 /   0

     iteration # 23     ecut=    60.00 Ry     beta= 0.40
     Davidson diagonalization with overlap

---- Real-time Memory Report at c_bands before calling an iterative solver
          1749 MiB given to the printing process from OS
          1525 MiB allocation reported by mallinfo(arena+hblkhd)
         53735 MiB available memory on the node where the printing process lives
     GPU memory used/free/total (MiB): 1976 / 14304 / 16280
------------------
     ethr =  4.82E-06,  avg # of iterations =  2.0

     total cpu time spent up to now is      112.7 secs

     total energy              =    -488.98710405 Ry
     estimated scf accuracy    <       0.00239486 Ry

     total magnetization       =     6.13 Bohr mag/cell
     absolute magnetization    =     6.22 Bohr mag/cell
[tb_dev] Currently allocated     5.68E+00 Mbytes, locked:    0 /  10
[tb_pin] Currently allocated     0.00E+00 Mbytes, locked:    0 /   0

     iteration # 24     ecut=    60.00 Ry     beta= 0.40
     Davidson diagonalization with overlap

---- Real-time Memory Report at c_bands before calling an iterative solver
          1749 MiB given to the printing process from OS
          1525 MiB allocation reported by mallinfo(arena+hblkhd)
         53735 MiB available memory on the node where the printing process lives
     GPU memory used/free/total (MiB): 1976 / 14304 / 16280
------------------
     ethr =  3.63E-06,  avg # of iterations =  2.0

     total cpu time spent up to now is      117.6 secs

     total energy              =    -488.98972569 Ry
     estimated scf accuracy    <       0.22040700 Ry

     total magnetization       =     4.38 Bohr mag/cell
     absolute magnetization    =     4.85 Bohr mag/cell
[tb_dev] Currently allocated     5.68E+00 Mbytes, locked:    0 /  10
[tb_pin] Currently allocated     0.00E+00 Mbytes, locked:    0 /   0

     iteration # 25     ecut=    60.00 Ry     beta= 0.40
     Davidson diagonalization with overlap

---- Real-time Memory Report at c_bands before calling an iterative solver
          1749 MiB given to the printing process from OS
          1525 MiB allocation reported by mallinfo(arena+hblkhd)
         53735 MiB available memory on the node where the printing process lives
     GPU memory used/free/total (MiB): 1976 / 14304 / 16280
------------------
     ethr =  3.63E-06,  avg # of iterations =  1.0

     total cpu time spent up to now is      121.8 secs

     total energy              =    -488.98202771 Ry
     estimated scf accuracy    <       0.15164657 Ry

     total magnetization       =     4.65 Bohr mag/cell
     absolute magnetization    =     5.01 Bohr mag/cell
[tb_dev] Currently allocated     5.68E+00 Mbytes, locked:    0 /  10
[tb_pin] Currently allocated     0.00E+00 Mbytes, locked:    0 /   0

     iteration # 26     ecut=    60.00 Ry     beta= 0.40
     Davidson diagonalization with overlap

---- Real-time Memory Report at c_bands before calling an iterative solver
          1749 MiB given to the printing process from OS
          1525 MiB allocation reported by mallinfo(arena+hblkhd)
         53734 MiB available memory on the node where the printing process lives
     GPU memory used/free/total (MiB): 1976 / 14304 / 16280
------------------
     ethr =  3.63E-06,  avg # of iterations =  2.1

     total cpu time spent up to now is      126.7 secs

     total energy              =    -488.98743832 Ry
     estimated scf accuracy    <       0.01274107 Ry

     total magnetization       =     6.46 Bohr mag/cell
     absolute magnetization    =     6.50 Bohr mag/cell
[tb_dev] Currently allocated     5.68E+00 Mbytes, locked:    0 /  10
[tb_pin] Currently allocated     0.00E+00 Mbytes, locked:    0 /   0

     iteration # 27     ecut=    60.00 Ry     beta= 0.40
     Davidson diagonalization with overlap

---- Real-time Memory Report at c_bands before calling an iterative solver
          1749 MiB given to the printing process from OS
          1525 MiB allocation reported by mallinfo(arena+hblkhd)
         53733 MiB available memory on the node where the printing process lives
     GPU memory used/free/total (MiB): 1976 / 14304 / 16280
------------------
     ethr =  3.63E-06,  avg # of iterations =  1.1

     total cpu time spent up to now is      131.0 secs

     total energy              =    -488.98740601 Ry
     estimated scf accuracy    <       0.01157855 Ry

     total magnetization       =     6.47 Bohr mag/cell
     absolute magnetization    =     6.50 Bohr mag/cell
[tb_dev] Currently allocated     5.68E+00 Mbytes, locked:    0 /  10
[tb_pin] Currently allocated     0.00E+00 Mbytes, locked:    0 /   0

     iteration # 28     ecut=    60.00 Ry     beta= 0.40
     Davidson diagonalization with overlap

---- Real-time Memory Report at c_bands before calling an iterative solver
          1749 MiB given to the printing process from OS
          1525 MiB allocation reported by mallinfo(arena+hblkhd)
         53732 MiB available memory on the node where the printing process lives
     GPU memory used/free/total (MiB): 1976 / 14304 / 16280
------------------
     ethr =  3.63E-06,  avg # of iterations =  1.0

     total cpu time spent up to now is      135.3 secs

     total energy              =    -488.98726024 Ry
     estimated scf accuracy    <       0.00960388 Ry

     total magnetization       =     6.42 Bohr mag/cell
     absolute magnetization    =     6.46 Bohr mag/cell
[tb_dev] Currently allocated     5.68E+00 Mbytes, locked:    0 /  10
[tb_pin] Currently allocated     0.00E+00 Mbytes, locked:    0 /   0

     iteration # 29     ecut=    60.00 Ry     beta= 0.40
     Davidson diagonalization with overlap

---- Real-time Memory Report at c_bands before calling an iterative solver
          1749 MiB given to the printing process from OS
          1525 MiB allocation reported by mallinfo(arena+hblkhd)
         53733 MiB available memory on the node where the printing process lives
     GPU memory used/free/total (MiB): 1976 / 14304 / 16280
------------------
     ethr =  3.63E-06,  avg # of iterations =  1.0

     total cpu time spent up to now is      139.5 secs

     total energy              =    -488.98721613 Ry
     estimated scf accuracy    <       0.00662801 Ry

     total magnetization       =     6.36 Bohr mag/cell
     absolute magnetization    =     6.40 Bohr mag/cell
[tb_dev] Currently allocated     5.68E+00 Mbytes, locked:    0 /  10
[tb_pin] Currently allocated     0.00E+00 Mbytes, locked:    0 /   0

     iteration # 30     ecut=    60.00 Ry     beta= 0.40
     Davidson diagonalization with overlap

---- Real-time Memory Report at c_bands before calling an iterative solver
          1749 MiB given to the printing process from OS
          1525 MiB allocation reported by mallinfo(arena+hblkhd)
         53734 MiB available memory on the node where the printing process lives
     GPU memory used/free/total (MiB): 1976 / 14304 / 16280
------------------
     ethr =  3.63E-06,  avg # of iterations =  1.0

     total cpu time spent up to now is      143.7 secs

     total energy              =    -488.98729188 Ry
     estimated scf accuracy    <       0.00735688 Ry

     total magnetization       =     6.38 Bohr mag/cell
     absolute magnetization    =     6.42 Bohr mag/cell
[tb_dev] Currently allocated     5.68E+00 Mbytes, locked:    0 /  10
[tb_pin] Currently allocated     0.00E+00 Mbytes, locked:    0 /   0

     iteration # 31     ecut=    60.00 Ry     beta= 0.40
     Davidson diagonalization with overlap

---- Real-time Memory Report at c_bands before calling an iterative solver
          1749 MiB given to the printing process from OS
          1525 MiB allocation reported by mallinfo(arena+hblkhd)
         53734 MiB available memory on the node where the printing process lives
     GPU memory used/free/total (MiB): 1976 / 14304 / 16280
------------------
     ethr =  3.63E-06,  avg # of iterations =  1.0

     total cpu time spent up to now is      148.0 secs

     total energy              =    -488.98716337 Ry
     estimated scf accuracy    <       0.00609096 Ry

     total magnetization       =     6.35 Bohr mag/cell
     absolute magnetization    =     6.39 Bohr mag/cell
[tb_dev] Currently allocated     5.68E+00 Mbytes, locked:    0 /  10
[tb_pin] Currently allocated     0.00E+00 Mbytes, locked:    0 /   0

     iteration # 32     ecut=    60.00 Ry     beta= 0.40
     Davidson diagonalization with overlap

---- Real-time Memory Report at c_bands before calling an iterative solver
          1749 MiB given to the printing process from OS
          1525 MiB allocation reported by mallinfo(arena+hblkhd)
         53735 MiB available memory on the node where the printing process lives
     GPU memory used/free/total (MiB): 1976 / 14304 / 16280
------------------
     ethr =  3.63E-06,  avg # of iterations =  1.0

     total cpu time spent up to now is      152.2 secs

     total energy              =    -488.98720524 Ry
     estimated scf accuracy    <       0.00108276 Ry

     total magnetization       =     6.17 Bohr mag/cell
     absolute magnetization    =     6.23 Bohr mag/cell
[tb_dev] Currently allocated     5.68E+00 Mbytes, locked:    0 /  10
[tb_pin] Currently allocated     0.00E+00 Mbytes, locked:    0 /   0

     iteration # 33     ecut=    60.00 Ry     beta= 0.40
     Davidson diagonalization with overlap

---- Real-time Memory Report at c_bands before calling an iterative solver
          1749 MiB given to the printing process from OS
          1525 MiB allocation reported by mallinfo(arena+hblkhd)
         53735 MiB available memory on the node where the printing process lives
     GPU memory used/free/total (MiB): 1976 / 14304 / 16280
------------------
     ethr =  1.64E-06,  avg # of iterations =  1.0

     total cpu time spent up to now is      156.5 secs

     total energy              =    -488.98727726 Ry
     estimated scf accuracy    <       0.00026899 Ry

     total magnetization       =     6.12 Bohr mag/cell
     absolute magnetization    =     6.20 Bohr mag/cell
[tb_dev] Currently allocated     5.68E+00 Mbytes, locked:    0 /  10
[tb_pin] Currently allocated     0.00E+00 Mbytes, locked:    0 /   0

     iteration # 34     ecut=    60.00 Ry     beta= 0.40
     Davidson diagonalization with overlap

---- Real-time Memory Report at c_bands before calling an iterative solver
          1749 MiB given to the printing process from OS
          1525 MiB allocation reported by mallinfo(arena+hblkhd)
         53735 MiB available memory on the node where the printing process lives
     GPU memory used/free/total (MiB): 1976 / 14304 / 16280
------------------
     ethr =  4.08E-07,  avg # of iterations =  1.0

     total cpu time spent up to now is      160.7 secs

     total energy              =    -488.98725911 Ry
     estimated scf accuracy    <       0.00021866 Ry

     total magnetization       =     6.11 Bohr mag/cell
     absolute magnetization    =     6.19 Bohr mag/cell
[tb_dev] Currently allocated     5.68E+00 Mbytes, locked:    0 /  10
[tb_pin] Currently allocated     0.00E+00 Mbytes, locked:    0 /   0

     iteration # 35     ecut=    60.00 Ry     beta= 0.40
     Davidson diagonalization with overlap

---- Real-time Memory Report at c_bands before calling an iterative solver
          1749 MiB given to the printing process from OS
          1525 MiB allocation reported by mallinfo(arena+hblkhd)
         53735 MiB available memory on the node where the printing process lives
     GPU memory used/free/total (MiB): 1976 / 14304 / 16280
------------------
     ethr =  3.31E-07,  avg # of iterations =  1.1

     total cpu time spent up to now is      165.1 secs

     total energy              =    -488.98727237 Ry
     estimated scf accuracy    <       0.00016101 Ry

     total magnetization       =     5.99 Bohr mag/cell
     absolute magnetization    =     6.12 Bohr mag/cell
[tb_dev] Currently allocated     5.68E+00 Mbytes, locked:    0 /  10
[tb_pin] Currently allocated     0.00E+00 Mbytes, locked:    0 /   0

     iteration # 36     ecut=    60.00 Ry     beta= 0.40
     Davidson diagonalization with overlap

---- Real-time Memory Report at c_bands before calling an iterative solver
          1749 MiB given to the printing process from OS
          1525 MiB allocation reported by mallinfo(arena+hblkhd)
         53734 MiB available memory on the node where the printing process lives
     GPU memory used/free/total (MiB): 1976 / 14304 / 16280
------------------
     ethr =  2.44E-07,  avg # of iterations =  1.0

     total cpu time spent up to now is      169.5 secs

     total energy              =    -488.98729396 Ry
     estimated scf accuracy    <       0.00007041 Ry

     total magnetization       =     6.08 Bohr mag/cell
     absolute magnetization    =     6.19 Bohr mag/cell
[tb_dev] Currently allocated     5.68E+00 Mbytes, locked:    0 /  10
[tb_pin] Currently allocated     0.00E+00 Mbytes, locked:    0 /   0

     iteration # 37     ecut=    60.00 Ry     beta= 0.40
     Davidson diagonalization with overlap

---- Real-time Memory Report at c_bands before calling an iterative solver
          1749 MiB given to the printing process from OS
          1525 MiB allocation reported by mallinfo(arena+hblkhd)
         53735 MiB available memory on the node where the printing process lives
     GPU memory used/free/total (MiB): 1976 / 14304 / 16280
------------------
     ethr =  1.07E-07,  avg # of iterations =  1.0

     total cpu time spent up to now is      173.7 secs

     total energy              =    -488.98730046 Ry
     estimated scf accuracy    <       0.00005842 Ry

     total magnetization       =     6.06 Bohr mag/cell
     absolute magnetization    =     6.18 Bohr mag/cell
[tb_dev] Currently allocated     5.68E+00 Mbytes, locked:    0 /  10
[tb_pin] Currently allocated     0.00E+00 Mbytes, locked:    0 /   0

     iteration # 38     ecut=    60.00 Ry     beta= 0.40
     Davidson diagonalization with overlap

---- Real-time Memory Report at c_bands before calling an iterative solver
          1749 MiB given to the printing process from OS
          1525 MiB allocation reported by mallinfo(arena+hblkhd)
         53734 MiB available memory on the node where the printing process lives
     GPU memory used/free/total (MiB): 1976 / 14304 / 16280
------------------
     ethr =  8.85E-08,  avg # of iterations =  1.2

     total cpu time spent up to now is      178.0 secs

     total energy              =    -488.98731216 Ry
     estimated scf accuracy    <       0.00006213 Ry

     total magnetization       =     6.02 Bohr mag/cell
     absolute magnetization    =     6.16 Bohr mag/cell
[tb_dev] Currently allocated     5.68E+00 Mbytes, locked:    0 /  10
[tb_pin] Currently allocated     0.00E+00 Mbytes, locked:    0 /   0

     iteration # 39     ecut=    60.00 Ry     beta= 0.40
     Davidson diagonalization with overlap

---- Real-time Memory Report at c_bands before calling an iterative solver
          1749 MiB given to the printing process from OS
          1525 MiB allocation reported by mallinfo(arena+hblkhd)
         53735 MiB available memory on the node where the printing process lives
     GPU memory used/free/total (MiB): 1976 / 14304 / 16280
------------------
     ethr =  8.85E-08,  avg # of iterations =  1.0

     total cpu time spent up to now is      182.2 secs

     total energy              =    -488.98730642 Ry
     estimated scf accuracy    <       0.00007230 Ry

     total magnetization       =     6.02 Bohr mag/cell
     absolute magnetization    =     6.15 Bohr mag/cell
[tb_dev] Currently allocated     5.68E+00 Mbytes, locked:    0 /  10
[tb_pin] Currently allocated     0.00E+00 Mbytes, locked:    0 /   0

     iteration # 40     ecut=    60.00 Ry     beta= 0.40
     Davidson diagonalization with overlap

---- Real-time Memory Report at c_bands before calling an iterative solver
          1749 MiB given to the printing process from OS
          1525 MiB allocation reported by mallinfo(arena+hblkhd)
         53735 MiB available memory on the node where the printing process lives
     GPU memory used/free/total (MiB): 1976 / 14304 / 16280
------------------
     ethr =  8.85E-08,  avg # of iterations =  1.0

     total cpu time spent up to now is      186.5 secs

     total energy              =    -488.98722785 Ry
     estimated scf accuracy    <       0.00008559 Ry

     total magnetization       =     6.02 Bohr mag/cell
     absolute magnetization    =     6.15 Bohr mag/cell
[tb_dev] Currently allocated     5.68E+00 Mbytes, locked:    0 /  10
[tb_pin] Currently allocated     0.00E+00 Mbytes, locked:    0 /   0

     iteration # 41     ecut=    60.00 Ry     beta= 0.40
     Davidson diagonalization with overlap

---- Real-time Memory Report at c_bands before calling an iterative solver
          1749 MiB given to the printing process from OS
          1525 MiB allocation reported by mallinfo(arena+hblkhd)
         53736 MiB available memory on the node where the printing process lives
     GPU memory used/free/total (MiB): 1976 / 14304 / 16280
------------------
     ethr =  8.85E-08,  avg # of iterations =  2.0

     total cpu time spent up to now is      191.3 secs

     total energy              =    -488.98711413 Ry
     estimated scf accuracy    <       0.00004045 Ry

     total magnetization       =     6.08 Bohr mag/cell
     absolute magnetization    =     6.21 Bohr mag/cell
[tb_dev] Currently allocated     5.68E+00 Mbytes, locked:    0 /  10
[tb_pin] Currently allocated     0.00E+00 Mbytes, locked:    0 /   0

     iteration # 42     ecut=    60.00 Ry     beta= 0.40
     Davidson diagonalization with overlap

---- Real-time Memory Report at c_bands before calling an iterative solver
          1749 MiB given to the printing process from OS
          1525 MiB allocation reported by mallinfo(arena+hblkhd)
         53736 MiB available memory on the node where the printing process lives
     GPU memory used/free/total (MiB): 1976 / 14304 / 16280
------------------
     ethr =  6.13E-08,  avg # of iterations =  2.0

     total cpu time spent up to now is      196.7 secs

     total energy              =    -488.98704199 Ry
     estimated scf accuracy    <       0.00005876 Ry

     total magnetization       =     6.15 Bohr mag/cell
     absolute magnetization    =     6.27 Bohr mag/cell
[tb_dev] Currently allocated     5.68E+00 Mbytes, locked:    0 /  10
[tb_pin] Currently allocated     0.00E+00 Mbytes, locked:    0 /   0

     iteration # 43     ecut=    60.00 Ry     beta= 0.40
     Davidson diagonalization with overlap

---- Real-time Memory Report at c_bands before calling an iterative solver
          1749 MiB given to the printing process from OS
          1525 MiB allocation reported by mallinfo(arena+hblkhd)
         53737 MiB available memory on the node where the printing process lives
     GPU memory used/free/total (MiB): 1976 / 14304 / 16280
------------------
     ethr =  6.13E-08,  avg # of iterations =  2.2

     total cpu time spent up to now is      202.3 secs

     total energy              =    -488.98707765 Ry
     estimated scf accuracy    <       0.00003336 Ry

     total magnetization       =     6.24 Bohr mag/cell
     absolute magnetization    =     6.36 Bohr mag/cell
[tb_dev] Currently allocated     5.68E+00 Mbytes, locked:    0 /  10
[tb_pin] Currently allocated     0.00E+00 Mbytes, locked:    0 /   0

     iteration # 44     ecut=    60.00 Ry     beta= 0.40
     Davidson diagonalization with overlap

---- Real-time Memory Report at c_bands before calling an iterative solver
          1749 MiB given to the printing process from OS
          1525 MiB allocation reported by mallinfo(arena+hblkhd)
         53735 MiB available memory on the node where the printing process lives
     GPU memory used/free/total (MiB): 1976 / 14304 / 16280
------------------
     ethr =  5.05E-08,  avg # of iterations =  2.0

     total cpu time spent up to now is      207.6 secs

     total energy              =    -488.98614336 Ry
     estimated scf accuracy    <       0.00004379 Ry

     total magnetization       =     6.28 Bohr mag/cell
     absolute magnetization    =     6.41 Bohr mag/cell
[tb_dev] Currently allocated     5.68E+00 Mbytes, locked:    0 /  10
[tb_pin] Currently allocated     0.00E+00 Mbytes, locked:    0 /   0

     iteration # 45     ecut=    60.00 Ry     beta= 0.40
     Davidson diagonalization with overlap

---- Real-time Memory Report at c_bands before calling an iterative solver
          1749 MiB given to the printing process from OS
          1525 MiB allocation reported by mallinfo(arena+hblkhd)
         53735 MiB available memory on the node where the printing process lives
     GPU memory used/free/total (MiB): 1976 / 14304 / 16280
------------------
     ethr =  5.05E-08,  avg # of iterations =  4.2

     total cpu time spent up to now is      215.1 secs

     total energy              =    -488.98727285 Ry
     estimated scf accuracy    <       0.00006046 Ry

     total magnetization       =     5.97 Bohr mag/cell
     absolute magnetization    =     6.10 Bohr mag/cell
[tb_dev] Currently allocated     5.68E+00 Mbytes, locked:    0 /  10
[tb_pin] Currently allocated     0.00E+00 Mbytes, locked:    0 /   0

     iteration # 46     ecut=    60.00 Ry     beta= 0.40
     Davidson diagonalization with overlap

---- Real-time Memory Report at c_bands before calling an iterative solver
          1749 MiB given to the printing process from OS
          1525 MiB allocation reported by mallinfo(arena+hblkhd)
         53737 MiB available memory on the node where the printing process lives
     GPU memory used/free/total (MiB): 1976 / 14304 / 16280
------------------
     ethr =  5.05E-08,  avg # of iterations =  2.1

     total cpu time spent up to now is      220.3 secs

     total energy              =    -488.98709063 Ry
     estimated scf accuracy    <       0.00003185 Ry

     total magnetization       =     6.03 Bohr mag/cell
     absolute magnetization    =     6.15 Bohr mag/cell
[tb_dev] Currently allocated     5.68E+00 Mbytes, locked:    0 /  10
[tb_pin] Currently allocated     0.00E+00 Mbytes, locked:    0 /   0

     iteration # 47     ecut=    60.00 Ry     beta= 0.40
     Davidson diagonalization with overlap

---- Real-time Memory Report at c_bands before calling an iterative solver
          1749 MiB given to the printing process from OS
          1525 MiB allocation reported by mallinfo(arena+hblkhd)
         53736 MiB available memory on the node where the printing process lives
     GPU memory used/free/total (MiB): 1976 / 14304 / 16280
------------------
     ethr =  4.83E-08,  avg # of iterations =  2.6

     total cpu time spent up to now is      226.3 secs

     total energy              =    -488.98657810 Ry
     estimated scf accuracy    <       0.00002049 Ry

     total magnetization       =     6.16 Bohr mag/cell
     absolute magnetization    =     6.27 Bohr mag/cell
[tb_dev] Currently allocated     5.68E+00 Mbytes, locked:    0 /  10
[tb_pin] Currently allocated     0.00E+00 Mbytes, locked:    0 /   0

     iteration # 48     ecut=    60.00 Ry     beta= 0.40
     Davidson diagonalization with overlap

---- Real-time Memory Report at c_bands before calling an iterative solver
          1749 MiB given to the printing process from OS
          1525 MiB allocation reported by mallinfo(arena+hblkhd)
         53737 MiB available memory on the node where the printing process lives
     GPU memory used/free/total (MiB): 1976 / 14304 / 16280
------------------
     ethr =  3.10E-08,  avg # of iterations =  4.1

     total cpu time spent up to now is      233.8 secs

     total energy              =    -488.98443610 Ry
     estimated scf accuracy    <       0.00002568 Ry

     total magnetization       =     6.33 Bohr mag/cell
     absolute magnetization    =     6.45 Bohr mag/cell
[tb_dev] Currently allocated     5.68E+00 Mbytes, locked:    0 /  10
[tb_pin] Currently allocated     0.00E+00 Mbytes, locked:    0 /   0

     iteration # 49     ecut=    60.00 Ry     beta= 0.40
     Davidson diagonalization with overlap

---- Real-time Memory Report at c_bands before calling an iterative solver
          1749 MiB given to the printing process from OS
          1525 MiB allocation reported by mallinfo(arena+hblkhd)
         53736 MiB available memory on the node where the printing process lives
     GPU memory used/free/total (MiB): 1976 / 14304 / 16280
------------------
     ethr =  3.10E-08,  avg # of iterations =  5.1

     total cpu time spent up to now is      242.7 secs

     total energy              =    -488.98334244 Ry
     estimated scf accuracy    <       0.00050322 Ry

     total magnetization       =     5.72 Bohr mag/cell
     absolute magnetization    =     5.90 Bohr mag/cell
[tb_dev] Currently allocated     5.68E+00 Mbytes, locked:    0 /  10
[tb_pin] Currently allocated     0.00E+00 Mbytes, locked:    0 /   0

     iteration # 50     ecut=    60.00 Ry     beta= 0.40
     Davidson diagonalization with overlap

---- Real-time Memory Report at c_bands before calling an iterative solver
          1749 MiB given to the printing process from OS
          1525 MiB allocation reported by mallinfo(arena+hblkhd)
         53735 MiB available memory on the node where the printing process lives
     GPU memory used/free/total (MiB): 1976 / 14304 / 16280
------------------
     ethr =  3.10E-08,  avg # of iterations =  5.0

     total cpu time spent up to now is      251.3 secs

     total energy              =    -488.98687374 Ry
     estimated scf accuracy    <       0.00005337 Ry

     total magnetization       =     6.31 Bohr mag/cell
     absolute magnetization    =     6.43 Bohr mag/cell
[tb_dev] Currently allocated     5.68E+00 Mbytes, locked:    0 /  10
[tb_pin] Currently allocated     0.00E+00 Mbytes, locked:    0 /   0

     iteration # 51     ecut=    60.00 Ry     beta= 0.40
     Davidson diagonalization with overlap

---- Real-time Memory Report at c_bands before calling an iterative solver
          1750 MiB given to the printing process from OS
          1525 MiB allocation reported by mallinfo(arena+hblkhd)
         53713 MiB available memory on the node where the printing process lives
     GPU memory used/free/total (MiB): 1976 / 14304 / 16280
------------------
     ethr =  3.10E-08,  avg # of iterations =  3.2

     total cpu time spent up to now is      257.9 secs

     total energy              =    -488.98620943 Ry
     estimated scf accuracy    <       0.00004657 Ry

     total magnetization       =     6.38 Bohr mag/cell
     absolute magnetization    =     6.51 Bohr mag/cell
[tb_dev] Currently allocated     5.68E+00 Mbytes, locked:    0 /  10
[tb_pin] Currently allocated     0.00E+00 Mbytes, locked:    0 /   0

     iteration # 52     ecut=    60.00 Ry     beta= 0.40
     Davidson diagonalization with overlap

---- Real-time Memory Report at c_bands before calling an iterative solver
          1750 MiB given to the printing process from OS
          1525 MiB allocation reported by mallinfo(arena+hblkhd)
         53720 MiB available memory on the node where the printing process lives
     GPU memory used/free/total (MiB): 1976 / 14304 / 16280
------------------
     ethr =  3.10E-08,  avg # of iterations =  4.3

     total cpu time spent up to now is      265.4 secs

     total energy              =    -488.98672149 Ry
     estimated scf accuracy    <       0.00022095 Ry

     total magnetization       =     6.51 Bohr mag/cell
     absolute magnetization    =     6.66 Bohr mag/cell
[tb_dev] Currently allocated     5.68E+00 Mbytes, locked:    0 /  10
[tb_pin] Currently allocated     0.00E+00 Mbytes, locked:    0 /   0

     iteration # 53     ecut=    60.00 Ry     beta= 0.40
     Davidson diagonalization with overlap

---- Real-time Memory Report at c_bands before calling an iterative solver
          1750 MiB given to the printing process from OS
          1525 MiB allocation reported by mallinfo(arena+hblkhd)
         53725 MiB available memory on the node where the printing process lives
     GPU memory used/free/total (MiB): 1976 / 14304 / 16280
------------------
     ethr =  3.10E-08,  avg # of iterations =  2.0

     total cpu time spent up to now is      270.9 secs

     total energy              =    -488.98677228 Ry
     estimated scf accuracy    <       0.00013559 Ry

     total magnetization       =     6.47 Bohr mag/cell
     absolute magnetization    =     6.62 Bohr mag/cell
[tb_dev] Currently allocated     5.68E+00 Mbytes, locked:    0 /  10
[tb_pin] Currently allocated     0.00E+00 Mbytes, locked:    0 /   0

     iteration # 54     ecut=    60.00 Ry     beta= 0.40
     Davidson diagonalization with overlap

---- Real-time Memory Report at c_bands before calling an iterative solver
          1750 MiB given to the printing process from OS
          1525 MiB allocation reported by mallinfo(arena+hblkhd)
         53727 MiB available memory on the node where the printing process lives
     GPU memory used/free/total (MiB): 1976 / 14304 / 16280
------------------
     ethr =  3.10E-08,  avg # of iterations =  1.0

     total cpu time spent up to now is      275.1 secs

     total energy              =    -488.98681297 Ry
     estimated scf accuracy    <       0.00012609 Ry

     total magnetization       =     6.46 Bohr mag/cell
     absolute magnetization    =     6.61 Bohr mag/cell
[tb_dev] Currently allocated     5.68E+00 Mbytes, locked:    0 /  10
[tb_pin] Currently allocated     0.00E+00 Mbytes, locked:    0 /   0

     iteration # 55     ecut=    60.00 Ry     beta= 0.40
     Davidson diagonalization with overlap

---- Real-time Memory Report at c_bands before calling an iterative solver
          1750 MiB given to the printing process from OS
          1525 MiB allocation reported by mallinfo(arena+hblkhd)
         53728 MiB available memory on the node where the printing process lives
     GPU memory used/free/total (MiB): 1976 / 14304 / 16280
------------------
     ethr =  3.10E-08,  avg # of iterations =  1.1

     total cpu time spent up to now is      279.4 secs

     total energy              =    -488.98679013 Ry
     estimated scf accuracy    <       0.00010354 Ry

     total magnetization       =     6.45 Bohr mag/cell
     absolute magnetization    =     6.59 Bohr mag/cell
[tb_dev] Currently allocated     5.68E+00 Mbytes, locked:    0 /  10
[tb_pin] Currently allocated     0.00E+00 Mbytes, locked:    0 /   0

     iteration # 56     ecut=    60.00 Ry     beta= 0.40
     Davidson diagonalization with overlap

---- Real-time Memory Report at c_bands before calling an iterative solver
          1750 MiB given to the printing process from OS
          1525 MiB allocation reported by mallinfo(arena+hblkhd)
         53728 MiB available memory on the node where the printing process lives
     GPU memory used/free/total (MiB): 1976 / 14304 / 16280
------------------
     ethr =  3.10E-08,  avg # of iterations =  3.9

     total cpu time spent up to now is      286.6 secs

     total energy              =    -488.98711986 Ry
     estimated scf accuracy    <       0.00001596 Ry

     total magnetization       =     6.31 Bohr mag/cell
     absolute magnetization    =     6.44 Bohr mag/cell
[tb_dev] Currently allocated     5.68E+00 Mbytes, locked:    0 /  10
[tb_pin] Currently allocated     0.00E+00 Mbytes, locked:    0 /   0

     iteration # 57     ecut=    60.00 Ry     beta= 0.40
     Davidson diagonalization with overlap

---- Real-time Memory Report at c_bands before calling an iterative solver
          1750 MiB given to the printing process from OS
          1525 MiB allocation reported by mallinfo(arena+hblkhd)
         53728 MiB available memory on the node where the printing process lives
     GPU memory used/free/total (MiB): 1976 / 14304 / 16280
------------------
     ethr =  2.42E-08,  avg # of iterations =  2.0

     total cpu time spent up to now is      291.5 secs

     total energy              =    -488.98711331 Ry
     estimated scf accuracy    <       0.00001287 Ry

     total magnetization       =     6.30 Bohr mag/cell
     absolute magnetization    =     6.42 Bohr mag/cell
[tb_dev] Currently allocated     5.68E+00 Mbytes, locked:    0 /  10
[tb_pin] Currently allocated     0.00E+00 Mbytes, locked:    0 /   0

     iteration # 58     ecut=    60.00 Ry     beta= 0.40
     Davidson diagonalization with overlap

---- Real-time Memory Report at c_bands before calling an iterative solver
          1750 MiB given to the printing process from OS
          1525 MiB allocation reported by mallinfo(arena+hblkhd)
         53728 MiB available memory on the node where the printing process lives
     GPU memory used/free/total (MiB): 1976 / 14304 / 16280
------------------
     ethr =  1.95E-08,  avg # of iterations =  3.0

     total cpu time spent up to now is      297.9 secs

     total energy              =    -488.98716829 Ry
     estimated scf accuracy    <       0.00000738 Ry

     total magnetization       =     6.23 Bohr mag/cell
     absolute magnetization    =     6.35 Bohr mag/cell
[tb_dev] Currently allocated     5.68E+00 Mbytes, locked:    0 /  10
[tb_pin] Currently allocated     0.00E+00 Mbytes, locked:    0 /   0

     iteration # 59     ecut=    60.00 Ry     beta= 0.40
     Davidson diagonalization with overlap

---- Real-time Memory Report at c_bands before calling an iterative solver
          1750 MiB given to the printing process from OS
          1525 MiB allocation reported by mallinfo(arena+hblkhd)
         53729 MiB available memory on the node where the printing process lives
     GPU memory used/free/total (MiB): 1976 / 14304 / 16280
------------------
     ethr =  1.12E-08,  avg # of iterations =  3.1

     total cpu time spent up to now is      304.4 secs

     total energy              =    -488.98720373 Ry
     estimated scf accuracy    <       0.00000795 Ry

     total magnetization       =     6.17 Bohr mag/cell
     absolute magnetization    =     6.29 Bohr mag/cell
[tb_dev] Currently allocated     5.68E+00 Mbytes, locked:    0 /  10
[tb_pin] Currently allocated     0.00E+00 Mbytes, locked:    0 /   0

     iteration # 60     ecut=    60.00 Ry     beta= 0.40
     Davidson diagonalization with overlap

---- Real-time Memory Report at c_bands before calling an iterative solver
          1750 MiB given to the printing process from OS
          1525 MiB allocation reported by mallinfo(arena+hblkhd)
         53729 MiB available memory on the node where the printing process lives
     GPU memory used/free/total (MiB): 1976 / 14304 / 16280
------------------
     ethr =  1.12E-08,  avg # of iterations =  2.0

     total cpu time spent up to now is      309.4 secs

     total energy              =    -488.98721605 Ry
     estimated scf accuracy    <       0.00000773 Ry

     total magnetization       =     6.19 Bohr mag/cell
     absolute magnetization    =     6.31 Bohr mag/cell
[tb_dev] Currently allocated     5.68E+00 Mbytes, locked:    0 /  10
[tb_pin] Currently allocated     0.00E+00 Mbytes, locked:    0 /   0

[...]

     total energy              =    -488.98691152 Ry
     estimated scf accuracy    <       0.00000842 Ry

     total magnetization       =     6.16 Bohr mag/cell
     absolute magnetization    =     6.28 Bohr mag/cell
[tb_dev] Currently allocated     5.68E+00 Mbytes, locked:    0 /  10
[tb_pin] Currently allocated     0.00E+00 Mbytes, locked:    0 /   0

     iteration # 65     ecut=    60.00 Ry     beta= 0.40
     Davidson diagonalization with overlap

---- Real-time Memory Report at c_bands before calling an iterative solver
          1750 MiB given to the printing process from OS
          1525 MiB allocation reported by mallinfo(arena+hblkhd)
         53732 MiB available memory on the node where the printing process lives
     GPU memory used/free/total (MiB): 1976 / 14304 / 16280
------------------
     ethr =  1.12E-08,  avg # of iterations =  4.5

     total cpu time spent up to now is      335.1 secs

     total energy              =    -488.98585703 Ry
     estimated scf accuracy    <       0.00009516 Ry

     total magnetization       =     5.93 Bohr mag/cell
     absolute magnetization    =     6.07 Bohr mag/cell
[tb_dev] Currently allocated     5.68E+00 Mbytes, locked:    0 /  10
[tb_pin] Currently allocated     0.00E+00 Mbytes, locked:    0 /   0

     iteration # 66     ecut=    60.00 Ry     beta= 0.40
     Davidson diagonalization with overlap

---- Real-time Memory Report at c_bands before calling an iterative solver
          1750 MiB given to the printing process from OS
          1525 MiB allocation reported by mallinfo(arena+hblkhd)
         53732 MiB available memory on the node where the printing process lives
     GPU memory used/free/total (MiB): 1976 / 14304 / 16280
------------------
     ethr =  1.12E-08,  avg # of iterations =  5.0

     total cpu time spent up to now is      343.7 secs

     total energy              =    -488.98693977 Ry
     estimated scf accuracy    <       0.00001180 Ry

     total magnetization       =     6.26 Bohr mag/cell
     absolute magnetization    =     6.38 Bohr mag/cell
[tb_dev] Currently allocated     5.68E+00 Mbytes, locked:    0 /  10
[tb_pin] Currently allocated     0.00E+00 Mbytes, locked:    0 /   0

     iteration # 67     ecut=    60.00 Ry     beta= 0.40
     Davidson diagonalization with overlap

---- Real-time Memory Report at c_bands before calling an iterative solver
          1750 MiB given to the printing process from OS
          1525 MiB allocation reported by mallinfo(arena+hblkhd)
         53732 MiB available memory on the node where the printing process lives
     GPU memory used/free/total (MiB): 1976 / 14304 / 16280
------------------
     ethr =  1.12E-08,  avg # of iterations =  3.8

     total cpu time spent up to now is      350.8 secs

     total energy              =    -488.98705230 Ry
     estimated scf accuracy    <       0.00002851 Ry

     total magnetization       =     6.35 Bohr mag/cell
     absolute magnetization    =     6.47 Bohr mag/cell
[tb_dev] Currently allocated     5.68E+00 Mbytes, locked:    0 /  10
[tb_pin] Currently allocated     0.00E+00 Mbytes, locked:    0 /   0

     iteration # 68     ecut=    60.00 Ry     beta= 0.40
     Davidson diagonalization with overlap

---- Real-time Memory Report at c_bands before calling an iterative solver
          1750 MiB given to the printing process from OS
          1525 MiB allocation reported by mallinfo(arena+hblkhd)
         53732 MiB available memory on the node where the printing process lives
     GPU memory used/free/total (MiB): 1976 / 14304 / 16280
------------------
     ethr =  1.12E-08,  avg # of iterations =  2.0

     total cpu time spent up to now is      355.7 secs

     total energy              =    -488.98701783 Ry
     estimated scf accuracy    <       0.00003289 Ry

     total magnetization       =     6.36 Bohr mag/cell
     absolute magnetization    =     6.49 Bohr mag/cell
[tb_dev] Currently allocated     5.68E+00 Mbytes, locked:    0 /  10
[tb_pin] Currently allocated     0.00E+00 Mbytes, locked:    0 /   0

     iteration # 69     ecut=    60.00 Ry     beta= 0.40
     Davidson diagonalization with overlap

---- Real-time Memory Report at c_bands before calling an iterative solver
          1750 MiB given to the printing process from OS
          1525 MiB allocation reported by mallinfo(arena+hblkhd)
         53733 MiB available memory on the node where the printing process lives
     GPU memory used/free/total (MiB): 1976 / 14304 / 16280
------------------
     ethr =  1.12E-08,  avg # of iterations =  3.9

     total cpu time spent up to now is      362.8 secs

     total energy              =    -488.98701314 Ry
     estimated scf accuracy    <       0.00001069 Ry

     total magnetization       =     6.26 Bohr mag/cell
     absolute magnetization    =     6.38 Bohr mag/cell
[tb_dev] Currently allocated     5.68E+00 Mbytes, locked:    0 /  10
[tb_pin] Currently allocated     0.00E+00 Mbytes, locked:    0 /   0

     iteration # 70     ecut=    60.00 Ry     beta= 0.40
     Davidson diagonalization with overlap

---- Real-time Memory Report at c_bands before calling an iterative solver
          1750 MiB given to the printing process from OS
          1525 MiB allocation reported by mallinfo(arena+hblkhd)
         53732 MiB available memory on the node where the printing process lives
     GPU memory used/free/total (MiB): 1976 / 14304 / 16280
------------------
     ethr =  1.12E-08,  avg # of iterations =  4.5

     total cpu time spent up to now is      370.4 secs

     total energy              =    -488.98723577 Ry
     estimated scf accuracy    <       0.00001190 Ry

     total magnetization       =     6.12 Bohr mag/cell
     absolute magnetization    =     6.25 Bohr mag/cell
[tb_dev] Currently allocated     5.68E+00 Mbytes, locked:    0 /  10
[tb_pin] Currently allocated     0.00E+00 Mbytes, locked:    0 /   0

     iteration # 71     ecut=    60.00 Ry     beta= 0.40
     Davidson diagonalization with overlap

---- Real-time Memory Report at c_bands before calling an iterative solver
          1750 MiB given to the printing process from OS
          1525 MiB allocation reported by mallinfo(arena+hblkhd)
         53733 MiB available memory on the node where the printing process lives
     GPU memory used/free/total (MiB): 1976 / 14304 / 16280
------------------
     ethr =  1.12E-08,  avg # of iterations =  2.0

     total cpu time spent up to now is      375.3 secs

     total energy              =    -488.98724119 Ry
     estimated scf accuracy    <       0.00001004 Ry

     total magnetization       =     6.14 Bohr mag/cell
     absolute magnetization    =     6.26 Bohr mag/cell
[tb_dev] Currently allocated     5.68E+00 Mbytes, locked:    0 /  10
[tb_pin] Currently allocated     0.00E+00 Mbytes, locked:    0 /   0

     iteration # 72     ecut=    60.00 Ry     beta= 0.40
     Davidson diagonalization with overlap

---- Real-time Memory Report at c_bands before calling an iterative solver
          1750 MiB given to the printing process from OS
          1525 MiB allocation reported by mallinfo(arena+hblkhd)
         53734 MiB available memory on the node where the printing process lives
     GPU memory used/free/total (MiB): 1976 / 14304 / 16280
------------------
     ethr =  1.12E-08,  avg # of iterations =  1.0

     total cpu time spent up to now is      379.5 secs

     total energy              =    -488.98701584 Ry
     estimated scf accuracy    <       0.00001072 Ry

     total magnetization       =     6.14 Bohr mag/cell
     absolute magnetization    =     6.26 Bohr mag/cell
[tb_dev] Currently allocated     5.68E+00 Mbytes, locked:    0 /  10
[tb_pin] Currently allocated     0.00E+00 Mbytes, locked:    0 /   0

     iteration # 73     ecut=    60.00 Ry     beta= 0.40
     Davidson diagonalization with overlap

---- Real-time Memory Report at c_bands before calling an iterative solver
          1750 MiB given to the printing process from OS
          1525 MiB allocation reported by mallinfo(arena+hblkhd)
         53733 MiB available memory on the node where the printing process lives
     GPU memory used/free/total (MiB): 1976 / 14304 / 16280
------------------
     ethr =  1.12E-08,  avg # of iterations =  3.8

     total cpu time spent up to now is      386.5 secs

     total energy              =    -488.98664021 Ry
     estimated scf accuracy    <       0.00000910 Ry

     total magnetization       =     6.24 Bohr mag/cell
     absolute magnetization    =     6.37 Bohr mag/cell
[tb_dev] Currently allocated     5.68E+00 Mbytes, locked:    0 /  10
[tb_pin] Currently allocated     0.00E+00 Mbytes, locked:    0 /   0

     iteration # 74     ecut=    60.00 Ry     beta= 0.40
     Davidson diagonalization with overlap

---- Real-time Memory Report at c_bands before calling an iterative solver
          1750 MiB given to the printing process from OS
          1525 MiB allocation reported by mallinfo(arena+hblkhd)
         53733 MiB available memory on the node where the printing process lives
     GPU memory used/free/total (MiB): 1976 / 14304 / 16280
------------------
     ethr =  1.12E-08,  avg # of iterations =  5.0

     total cpu time spent up to now is      395.1 secs

     total energy              =    -488.98710234 Ry
     estimated scf accuracy    <       0.00005280 Ry

     total magnetization       =     5.98 Bohr mag/cell
     absolute magnetization    =     6.11 Bohr mag/cell
[tb_dev] Currently allocated     5.68E+00 Mbytes, locked:    0 /  10
[tb_pin] Currently allocated     0.00E+00 Mbytes, locked:    0 /   0

     iteration # 75     ecut=    60.00 Ry     beta= 0.40
     Davidson diagonalization with overlap

---- Real-time Memory Report at c_bands before calling an iterative solver
          1750 MiB given to the printing process from OS
          1525 MiB allocation reported by mallinfo(arena+hblkhd)
         53734 MiB available memory on the node where the printing process lives
     GPU memory used/free/total (MiB): 1976 / 14304 / 16280
------------------
     ethr =  1.12E-08,  avg # of iterations =  3.5

     total cpu time spent up to now is      402.0 secs

     total energy              =    -488.98699296 Ry
     estimated scf accuracy    <       0.00001426 Ry

     total magnetization       =     6.11 Bohr mag/cell
     absolute magnetization    =     6.23 Bohr mag/cell
[tb_dev] Currently allocated     5.68E+00 Mbytes, locked:    0 /  10
[tb_pin] Currently allocated     0.00E+00 Mbytes, locked:    0 /   0

     iteration # 76     ecut=    60.00 Ry     beta= 0.40
     Davidson diagonalization with overlap

---- Real-time Memory Report at c_bands before calling an iterative solver
          1750 MiB given to the printing process from OS
          1525 MiB allocation reported by mallinfo(arena+hblkhd)
         53734 MiB available memory on the node where the printing process lives
     GPU memory used/free/total (MiB): 1976 / 14304 / 16280
------------------
     ethr =  1.12E-08,  avg # of iterations =  3.7

     total cpu time spent up to now is      409.0 secs

     total energy              =    -488.98711742 Ry
     estimated scf accuracy    <       0.00000887 Ry

     total magnetization       =     6.23 Bohr mag/cell
     absolute magnetization    =     6.35 Bohr mag/cell
[tb_dev] Currently allocated     5.68E+00 Mbytes, locked:    0 /  10
[tb_pin] Currently allocated     0.00E+00 Mbytes, locked:    0 /   0

     iteration # 77     ecut=    60.00 Ry     beta= 0.40
     Davidson diagonalization with overlap

---- Real-time Memory Report at c_bands before calling an iterative solver
          1750 MiB given to the printing process from OS
          1525 MiB allocation reported by mallinfo(arena+hblkhd)
         53733 MiB available memory on the node where the printing process lives
     GPU memory used/free/total (MiB): 1976 / 14304 / 16280
------------------
     ethr =  1.12E-08,  avg # of iterations =  2.9

     total cpu time spent up to now is      415.3 secs

     total energy              =    -488.98695074 Ry
     estimated scf accuracy    <       0.00001212 Ry

     total magnetization       =     6.27 Bohr mag/cell
     absolute magnetization    =     6.40 Bohr mag/cell
[tb_dev] Currently allocated     5.68E+00 Mbytes, locked:    0 /  10
[tb_pin] Currently allocated     0.00E+00 Mbytes, locked:    0 /   0

     iteration # 78     ecut=    60.00 Ry     beta= 0.40
     Davidson diagonalization with overlap

---- Real-time Memory Report at c_bands before calling an iterative solver
          1750 MiB given to the printing process from OS
          1525 MiB allocation reported by mallinfo(arena+hblkhd)
         53735 MiB available memory on the node where the printing process lives
     GPU memory used/free/total (MiB): 1976 / 14304 / 16280
------------------
     ethr =  1.12E-08,  avg # of iterations =  3.8

     total cpu time spent up to now is      422.3 secs

     total energy              =    -488.98696217 Ry
     estimated scf accuracy    <       0.00003219 Ry

     total magnetization       =     6.35 Bohr mag/cell
     absolute magnetization    =     6.48 Bohr mag/cell
[tb_dev] Currently allocated     5.68E+00 Mbytes, locked:    0 /  10
[tb_pin] Currently allocated     0.00E+00 Mbytes, locked:    0 /   0

     iteration # 79     ecut=    60.00 Ry     beta= 0.40
     Davidson diagonalization with overlap

---- Real-time Memory Report at c_bands before calling an iterative solver
          1750 MiB given to the printing process from OS
          1525 MiB allocation reported by mallinfo(arena+hblkhd)
         53735 MiB available memory on the node where the printing process lives
     GPU memory used/free/total (MiB): 1976 / 14304 / 16280
------------------
     ethr =  1.12E-08,  avg # of iterations =  2.9

     total cpu time spent up to now is      428.5 secs

     total energy              =    -488.98683474 Ry
     estimated scf accuracy    <       0.00005028 Ry

     total magnetization       =     6.39 Bohr mag/cell
     absolute magnetization    =     6.52 Bohr mag/cell
[tb_dev] Currently allocated     5.68E+00 Mbytes, locked:    0 /  10
[tb_pin] Currently allocated     0.00E+00 Mbytes, locked:    0 /   0

     iteration # 80     ecut=    60.00 Ry     beta= 0.40
     Davidson diagonalization with overlap

---- Real-time Memory Report at c_bands before calling an iterative solver
          1750 MiB given to the printing process from OS
          1525 MiB allocation reported by mallinfo(arena+hblkhd)
         53735 MiB available memory on the node where the printing process lives
     GPU memory used/free/total (MiB): 1976 / 14304 / 16280
------------------
     ethr =  1.12E-08,  avg # of iterations =  4.7

     total cpu time spent up to now is      436.8 secs

     total energy              =    -488.98709875 Ry
     estimated scf accuracy    <       0.00000937 Ry

     total magnetization       =     6.25 Bohr mag/cell
     absolute magnetization    =     6.37 Bohr mag/cell

     End of self-consistent calculation

     convergence NOT achieved after  80 iterations: stopping

     Writing config to output data dir ./out/aiida.save/
 
     init_run     :     12.90s CPU      5.28s WALL (       1 calls)
     electrons    :    613.47s CPU    430.88s WALL (       1 calls)

     Called by init_run:
     wfcinit      :      2.51s CPU      3.45s WALL (       1 calls)
                                        3.45s GPU  (       1 calls)
     wfcinit:atom :      0.04s CPU      0.07s WALL (     140 calls)
                                        0.07s GPU  (     140 calls)
     wfcinit:wfcr :      1.50s CPU      2.05s WALL (     140 calls)
                                        2.05s GPU  (     140 calls)
     potinit      :      1.09s CPU      0.10s WALL (       1 calls)
     hinit0       :      6.90s CPU      1.05s WALL (       1 calls)

     Called by electrons:
     c_bands      :    440.82s CPU    355.21s WALL (      80 calls)
     sum_band     :     58.96s CPU     64.95s WALL (      80 calls)
     v_of_rho     :     27.59s CPU      2.49s WALL (      81 calls)
     v_h          :      4.05s CPU      0.36s WALL (      81 calls)
     v_xc         :     23.53s CPU      2.13s WALL (      81 calls)
     newd         :     42.94s CPU      4.18s WALL (      81 calls)
                                        4.18s GPU  (      81 calls)
     mix_rho      :     34.26s CPU      3.38s WALL (      80 calls)

     Called by c_bands:
     init_us_2    :     25.79s CPU     23.76s WALL (   22540 calls)
     init_us_2:gp :     25.34s CPU     23.39s WALL (   22540 calls)
     cegterg      :    372.63s CPU    304.74s WALL (   11200 calls)

     Called by sum_band:
     sum_band:wei :      0.48s CPU      0.48s WALL (      80 calls)
                                        0.48s GPU  (      80 calls)
     sum_band:loo :     53.52s CPU     59.41s WALL (      80 calls)
                                       59.41s GPU  (      80 calls)
     sum_band:buf :     16.20s CPU     17.11s WALL (   11200 calls)
                                       17.04s GPU  (   11200 calls)
     sum_band:ini :     10.16s CPU     11.65s WALL (   11200 calls)
                                       11.59s GPU  (   11200 calls)
     sum_band:cal :      0.29s CPU      2.24s WALL (   11200 calls)
                                        1.87s GPU  (   11200 calls)
     sum_band:bec :      2.58s CPU      3.09s WALL (   11200 calls)
                                        3.01s GPU  (   11200 calls)
     addusdens    :      3.32s CPU      3.40s WALL (      80 calls)
                                        3.39s GPU  (      80 calls)
     addusd:skk   :      0.03s CPU      0.03s WALL (     240 calls)
                                        0.03s GPU  (     240 calls)

     Called by *egterg:
     cdiaghg      :    125.45s CPU    110.40s WALL (   35809 calls)
                                      110.16s GPU  (   35809 calls)
     cegterg:over :      8.42s CPU      6.85s WALL (   24609 calls)
     cegterg:upda :     13.66s CPU     11.23s WALL (   24609 calls)
     cegterg:last :      5.94s CPU      4.90s WALL (   20548 calls)
     h_psi        :    190.80s CPU    150.38s WALL (   35949 calls)
                                      149.99s GPU  (   35949 calls)
     s_psi        :      5.80s CPU      8.91s WALL (   35949 calls)
                                        8.18s GPU  (   35949 calls)
     g_psi        :      0.22s CPU      1.02s WALL (   24609 calls)
                                        0.86s GPU  (   24609 calls)

     Called by h_psi:
     h_psi:calbec :      1.49s CPU      6.26s WALL (   35949 calls)
                                        6.02s GPU  (   35949 calls)
     vloc_psi     :    164.36s CPU    130.04s WALL (   35949 calls)
                                      129.82s GPU  (   35949 calls)
     add_vuspsi   :      9.76s CPU     11.18s WALL (   35949 calls)
                                       10.95s GPU  (   35949 calls)

     General routines
     calbec       :      1.27s CPU      1.06s WALL (   47149 calls)
     fft          :      2.43s CPU      0.45s WALL (    2023 calls)
                                        0.37s GPU  (    1861 calls)
     ffts         :      0.06s CPU      0.04s WALL (     322 calls)
                                        0.01s GPU  (     160 calls)
     fftw         :      5.19s CPU     99.98s WALL (  210360 calls)
                                       98.83s GPU  (  210360 calls)
     interpolate  :      3.66s CPU      0.33s WALL (     162 calls)
     davcio       :      0.80s CPU      0.45s WALL (     158 calls)
 
     Parallel routines
 
     PWSCF        :  10m29.86s CPU   7m17.40s WALL

 
   This run was terminated on:  18:35:28  22Oct2023            

=------------------------------------------------------------------------------=
   JOB DONE.
=------------------------------------------------------------------------------=
