
     Program PWSCF v.7.2 starts on 19Dec2023 at 22:48:12 
        Git branch: develop
        Last git commit: 9055681be6fc8200e6fffe76ed5fda34c2696339
        Last git commit date: Wed Nov 8 16:29:39 2023 +0000
        Last git commit subject: Merge branch 'calbec_fix' into 'develop'

     This program is part of the open-source Quantum ESPRESSO suite
     for quantum simulation of materials; please cite
         "P. Giannozzi et al., J. Phys.:Condens. Matter 21 395502 (2009);
         "P. Giannozzi et al., J. Phys.:Condens. Matter 29 465901 (2017);
         "P. Giannozzi et al., J. Chem. Phys. 152 154105 (2020);
          URL http://www.quantum-espresso.org", 
     in publications or presentations arising from this work. More details at
     http://www.quantum-espresso.org/quote

     Parallel version (MPI), running on    56 processors

     MPI processes distributed on     1 nodes
     492413 MiB available memory on the printing compute node when the environment starts

     Reading input from aiida.in

     Current dimensions of program PWSCF are:
     Max number of different atomic species (ntypx) = 10
     Max number of k-points (npk) =  40000
     Max angular momentum in pseudopotentials (lmaxx) =  4
     file O.pbesol-n-kjpaw_psl.0.1.UPF: wavefunction(s)  2P renormalized
     Message from routine setup:
     using ibrav=0 with symmetry is DISCOURAGED, use correct ibrav instead

     K-points division:     npool     =       7
     R & G space division:  proc/nbgrp/npool/nimage =       8
     Subspace diagonalization in iterative solution of the eigenvalue problem:
     a serial algorithm will be used


     Parallelization info
     --------------------
     sticks:   dense  smooth     PW     G-vecs:    dense   smooth      PW
     Min         769     256     72                39815     7664    1169
     Max         770     257     73                39818     7669    1173
     Sum        6157    2053    583               318539    61335    9377

     Using Slab Decomposition



     bravais-lattice index     =            0
     lattice parameter (alat)  =      10.6974  a.u.
     unit-cell volume          =     865.6020 (a.u.)^3
     number of atoms/cell      =           10
     number of atomic types    =            4
     number of electrons       =        85.00
     number of Kohn-Sham states=           56
     kinetic-energy cutoff     =      65.0000  Ry
     charge density cutoff     =     780.0000  Ry
     scf convergence threshold =      2.0E-09
     mixing beta               =       0.4000
     number of iterations used =            8  plain     mixing
     Exchange-correlation= SLA  PW   PSX  PSC
                           (   1   4  10   8   0   0   0)

     celldm(1)=  10.697388  celldm(2)=   0.000000  celldm(3)=   0.000000
     celldm(4)=   0.000000  celldm(5)=   0.000000  celldm(6)=   0.000000

     crystal axes: (cart. coord. in units of alat)
               a(1) = (   0.000000   0.707107   0.707107 )  
               a(2) = (   0.707107   0.000000   0.707107 )  
               a(3) = (   0.707107   0.707107   0.000000 )  

     reciprocal axes: (cart. coord. in units 2 pi/alat)
               b(1) = ( -0.707107  0.707107  0.707107 )  
               b(2) = (  0.707107 -0.707107  0.707107 )  
               b(3) = (  0.707107  0.707107 -0.707107 )  


     PseudoPot. # 1 for Mn read from file:
     ./pseudo/mn_pbesol_v1.5.uspp.F.UPF
     MD5 check sum: 0716d5f563e6e95a34f9080f4c78c109
     Pseudo is Ultrasoft + core correction, Zval = 15.0
     Generated by new atomic code, or converted to UPF format
     Using radial grid of  859 points,  6 beta functions with: 
                l(1) =   0
                l(2) =   0
                l(3) =   1
                l(4) =   1
                l(5) =   2
                l(6) =   2
     Q(r) pseudized with  8 coefficients,  rinner =    0.950   0.950   0.950
                                                       0.950   0.950

     PseudoPot. # 2 for Mo read from file:
     ./pseudo/Mo_ONCV_PBEsol-1.0.upf
     MD5 check sum: 5193ba6a20874d27c2ef80314d1b3445
     Pseudo is Norm-conserving, Zval = 14.0
     Generated using ONCVPSP code by D. R. Hamann
     Using radial grid of 1508 points,  6 beta functions with: 
                l(1) =   0
                l(2) =   0
                l(3) =   1
                l(4) =   1
                l(5) =   2
                l(6) =   2

     PseudoPot. # 3 for O  read from file:
     ./pseudo/O.pbesol-n-kjpaw_psl.0.1.UPF
     MD5 check sum: 81d73d1479e654e5638b0319f0d6c2c7
     Pseudo is Projector augmented-wave + core cor, Zval =  6.0
     Generated using "atomic" code by A. Dal Corso  v.6.0 svn rev. 13079
     Shape of augmentation charge: BESSEL
     Using radial grid of 1095 points,  4 beta functions with: 
                l(1) =   0
                l(2) =   0
                l(3) =   1
                l(4) =   1
     Q(r) pseudized with 0 coefficients 


     PseudoPot. # 4 for Sr read from file:
     ./pseudo/sr_pbesol_v1.uspp.F.UPF
     MD5 check sum: 635bff1625df5273dba4129a01ed8c82
     Pseudo is Ultrasoft + core correction, Zval = 10.0
     Generated by new atomic code, or converted to UPF format
     Using radial grid of  883 points,  6 beta functions with: 
                l(1) =   0
                l(2) =   0
                l(3) =   1
                l(4) =   1
                l(5) =   2
                l(6) =   2
     Q(r) pseudized with  6 coefficients,  rinner =    1.400   1.400   1.400
                                                       1.400   1.400

     atomic species   valence    mass     pseudopotential
     Mn               15.00    54.93805     Mn( 1.00)
     Mo               14.00    95.96000     Mo( 1.00)
     O                 6.00    15.99940     O ( 1.00)
     Sr               10.00    87.62000     Sr( 1.00)

     Starting magnetic structure 
     atomic species   magnetization
     Mn              0.333
     Mo              0.357
     O               0.100
     Sr              0.100

     48 Sym. Ops., with inversion, found


                                    s                        frac. trans.

      isym =  1     identity                                     

 cryst.   s( 1) = (     1          0          0      )
                  (     0          1          0      )
                  (     0          0          1      )

 cart.    s( 1) = (  1.0000000 -0.0000000  0.0000000 )
                  ( -0.0000000  1.0000000  0.0000000 )
                  ( -0.0000000  0.0000000  1.0000000 )


      isym =  2     180 deg rotation - cart. axis [0,0,1]        

 cryst.   s( 2) = (     0          1         -1      )
                  (     1          0         -1      )
                  (     0          0         -1      )

 cart.    s( 2) = ( -1.0000000  0.0000000  0.0000000 )
                  (  0.0000000 -1.0000000  0.0000000 )
                  (  0.0000000 -0.0000000  1.0000000 )


      isym =  3     180 deg rotation - cart. axis [0,1,0]        

 cryst.   s( 3) = (     0         -1          1      )
                  (     0         -1          0      )
                  (     1         -1          0      )

 cart.    s( 3) = ( -1.0000000 -0.0000000 -0.0000000 )
                  (  0.0000000  1.0000000 -0.0000000 )
                  (  0.0000000  0.0000000 -1.0000000 )


      isym =  4     180 deg rotation - cart. axis [1,0,0]        

 cryst.   s( 4) = (    -1          0          0      )
                  (    -1          0          1      )
                  (    -1          1          0      )

 cart.    s( 4) = (  1.0000000  0.0000000 -0.0000000 )
                  ( -0.0000000 -1.0000000 -0.0000000 )
                  ( -0.0000000 -0.0000000 -1.0000000 )


      isym =  5     180 deg rotation - cart. axis [1,1,0]        

 cryst.   s( 5) = (    -1          0          1      )
                  (     0         -1          1      )
                  (     0          0          1      )

 cart.    s( 5) = ( -0.0000000  1.0000000 -0.0000000 )
                  (  1.0000000 -0.0000000 -0.0000000 )
                  (  0.0000000 -0.0000000 -1.0000000 )


      isym =  6     180 deg rotation - cart. axis [1,-1,0]       

 cryst.   s( 6) = (     0         -1          0      )
                  (    -1          0          0      )
                  (     0          0         -1      )

 cart.    s( 6) = (  0.0000000 -1.0000000 -0.0000000 )
                  ( -1.0000000  0.0000000 -0.0000000 )
                  ( -0.0000000  0.0000000 -1.0000000 )


      isym =  7      90 deg rotation - cart. axis [0,0,-1]       

 cryst.   s( 7) = (     0          1          0      )
                  (     0          1         -1      )
                  (    -1          1          0      )

 cart.    s( 7) = (  0.0000000  1.0000000  0.0000000 )
                  ( -1.0000000 -0.0000000  0.0000000 )
                  ( -0.0000000 -0.0000000  1.0000000 )


      isym =  8      90 deg rotation - cart. axis [0,0,1]        

 cryst.   s( 8) = (     1          0         -1      )
                  (     1          0          0      )
                  (     1         -1          0      )

 cart.    s( 8) = ( -0.0000000 -1.0000000  0.0000000 )
                  (  1.0000000  0.0000000  0.0000000 )
                  (  0.0000000  0.0000000  1.0000000 )


      isym =  9     180 deg rotation - cart. axis [1,0,1]        

 cryst.   s( 9) = (    -1          1          0      )
                  (     0          1          0      )
                  (     0          1         -1      )

 cart.    s( 9) = (  0.0000000  0.0000000  1.0000000 )
                  (  0.0000000 -1.0000000 -0.0000000 )
                  (  1.0000000 -0.0000000 -0.0000000 )


      isym = 10     180 deg rotation - cart. axis [-1,0,1]       

 cryst.   s(10) = (     0          0         -1      )
                  (     0         -1          0      )
                  (    -1          0          0      )

 cart.    s(10) = ( -0.0000000  0.0000000 -1.0000000 )
                  ( -0.0000000 -1.0000000  0.0000000 )
                  ( -1.0000000 -0.0000000  0.0000000 )


      isym = 11      90 deg rotation - cart. axis [0,1,0]        

 cryst.   s(11) = (     0          0          1      )
                  (    -1          0          1      )
                  (     0         -1          1      )

 cart.    s(11) = ( -0.0000000 -0.0000000  1.0000000 )
                  ( -0.0000000  1.0000000 -0.0000000 )
                  ( -1.0000000  0.0000000 -0.0000000 )


      isym = 12      90 deg rotation - cart. axis [0,-1,0]       

 cryst.   s(12) = (     1         -1          0      )
                  (     1          0         -1      )
                  (     1          0          0      )

 cart.    s(12) = (  0.0000000 -0.0000000 -1.0000000 )
                  (  0.0000000  1.0000000  0.0000000 )
                  (  1.0000000  0.0000000  0.0000000 )


      isym = 13     180 deg rotation - cart. axis [0,1,1]        

 cryst.   s(13) = (     1          0          0      )
                  (     1         -1          0      )
                  (     1          0         -1      )

 cart.    s(13) = ( -1.0000000  0.0000000 -0.0000000 )
                  (  0.0000000  0.0000000  1.0000000 )
                  (  0.0000000  1.0000000  0.0000000 )


      isym = 14     180 deg rotation - cart. axis [0,1,-1]       

 cryst.   s(14) = (    -1          0          0      )
                  (     0          0         -1      )
                  (     0         -1          0      )

 cart.    s(14) = ( -1.0000000 -0.0000000  0.0000000 )
                  (  0.0000000 -0.0000000 -1.0000000 )
                  (  0.0000000 -1.0000000 -0.0000000 )


      isym = 15      90 deg rotation - cart. axis [-1,0,0]       

 cryst.   s(15) = (     0         -1          1      )
                  (     0          0          1      )
                  (    -1          0          1      )

 cart.    s(15) = (  1.0000000 -0.0000000 -0.0000000 )
                  ( -0.0000000 -0.0000000  1.0000000 )
                  ( -0.0000000 -1.0000000  0.0000000 )


      isym = 16      90 deg rotation - cart. axis [1,0,0]        

 cryst.   s(16) = (     0          1         -1      )
                  (    -1          1          0      )
                  (     0          1          0      )

 cart.    s(16) = (  1.0000000  0.0000000  0.0000000 )
                  ( -0.0000000  0.0000000 -1.0000000 )
                  ( -0.0000000  1.0000000 -0.0000000 )


      isym = 17     120 deg rotation - cart. axis [-1,-1,-1]     

 cryst.   s(17) = (     0          0          1      )
                  (     1          0          0      )
                  (     0          1          0      )

 cart.    s(17) = (  0.0000000  1.0000000 -0.0000000 )
                  (  0.0000000 -0.0000000  1.0000000 )
                  (  1.0000000 -0.0000000  0.0000000 )


      isym = 18     120 deg rotation - cart. axis [-1,1,1]       

 cryst.   s(18) = (     1         -1          0      )
                  (     0         -1          1      )
                  (     0         -1          0      )

 cart.    s(18) = ( -0.0000000 -1.0000000 -0.0000000 )
                  ( -0.0000000  0.0000000  1.0000000 )
                  ( -1.0000000  0.0000000  0.0000000 )


      isym = 19     120 deg rotation - cart. axis [1,1,-1]       

 cryst.   s(19) = (    -1          1          0      )
                  (    -1          0          0      )
                  (    -1          0          1      )

 cart.    s(19) = ( -0.0000000  1.0000000  0.0000000 )
                  ( -0.0000000 -0.0000000 -1.0000000 )
                  ( -1.0000000 -0.0000000 -0.0000000 )


      isym = 20     120 deg rotation - cart. axis [1,-1,1]       

 cryst.   s(20) = (     0          0         -1      )
                  (     0          1         -1      )
                  (     1          0         -1      )

 cart.    s(20) = (  0.0000000 -1.0000000  0.0000000 )
                  (  0.0000000  0.0000000 -1.0000000 )
                  (  1.0000000  0.0000000 -0.0000000 )


      isym = 21     120 deg rotation - cart. axis [1,1,1]        

 cryst.   s(21) = (     0          1          0      )
                  (     0          0          1      )
                  (     1          0          0      )

 cart.    s(21) = ( -0.0000000  0.0000000  1.0000000 )
                  (  1.0000000  0.0000000 -0.0000000 )
                  (  0.0000000  1.0000000 -0.0000000 )


      isym = 22     120 deg rotation - cart. axis [-1,1,-1]      

 cryst.   s(22) = (    -1          0          1      )
                  (    -1          1          0      )
                  (    -1          0          0      )

 cart.    s(22) = (  0.0000000 -0.0000000  1.0000000 )
                  ( -1.0000000 -0.0000000 -0.0000000 )
                  ( -0.0000000 -1.0000000 -0.0000000 )


      isym = 23     120 deg rotation - cart. axis [1,-1,-1]      

 cryst.   s(23) = (     1          0         -1      )
                  (     0          0         -1      )
                  (     0          1         -1      )

 cart.    s(23) = (  0.0000000  0.0000000 -1.0000000 )
                  ( -1.0000000  0.0000000  0.0000000 )
                  ( -0.0000000  1.0000000  0.0000000 )


      isym = 24     120 deg rotation - cart. axis [-1,-1,1]      

 cryst.   s(24) = (     0         -1          0      )
                  (     1         -1          0      )
                  (     0         -1          1      )

 cart.    s(24) = ( -0.0000000 -0.0000000 -1.0000000 )
                  (  1.0000000 -0.0000000  0.0000000 )
                  (  0.0000000 -1.0000000  0.0000000 )


      isym = 25     inversion                                    

 cryst.   s(25) = (    -1          0          0      )
                  (     0         -1          0      )
                  (     0          0         -1      )

 cart.    s(25) = ( -1.0000000  0.0000000 -0.0000000 )
                  (  0.0000000 -1.0000000 -0.0000000 )
                  (  0.0000000 -0.0000000 -1.0000000 )


      isym = 26     inv. 180 deg rotation - cart. axis [0,0,1]   

 cryst.   s(26) = (     0         -1          1      )
                  (    -1          0          1      )
                  (     0          0          1      )

 cart.    s(26) = (  1.0000000 -0.0000000 -0.0000000 )
                  ( -0.0000000  1.0000000 -0.0000000 )
                  ( -0.0000000  0.0000000 -1.0000000 )


      isym = 27     inv. 180 deg rotation - cart. axis [0,1,0]   

 cryst.   s(27) = (     0          1         -1      )
                  (     0          1          0      )
                  (    -1          1          0      )

 cart.    s(27) = (  1.0000000  0.0000000  0.0000000 )
                  ( -0.0000000 -1.0000000  0.0000000 )
                  ( -0.0000000 -0.0000000  1.0000000 )


      isym = 28     inv. 180 deg rotation - cart. axis [1,0,0]   

 cryst.   s(28) = (     1          0          0      )
                  (     1          0         -1      )
                  (     1         -1          0      )

 cart.    s(28) = ( -1.0000000 -0.0000000  0.0000000 )
                  (  0.0000000  1.0000000  0.0000000 )
                  (  0.0000000  0.0000000  1.0000000 )


      isym = 29     inv. 180 deg rotation - cart. axis [1,1,0]   

 cryst.   s(29) = (     1          0         -1      )
                  (     0          1         -1      )
                  (     0          0         -1      )

 cart.    s(29) = (  0.0000000 -1.0000000  0.0000000 )
                  ( -1.0000000  0.0000000  0.0000000 )
                  ( -0.0000000  0.0000000  1.0000000 )


      isym = 30     inv. 180 deg rotation - cart. axis [1,-1,0]  

 cryst.   s(30) = (     0          1          0      )
                  (     1          0          0      )
                  (     0          0          1      )

 cart.    s(30) = ( -0.0000000  1.0000000  0.0000000 )
                  (  1.0000000 -0.0000000  0.0000000 )
                  (  0.0000000 -0.0000000  1.0000000 )


      isym = 31     inv.  90 deg rotation - cart. axis [0,0,-1]  

 cryst.   s(31) = (     0         -1          0      )
                  (     0         -1          1      )
                  (     1         -1          0      )

 cart.    s(31) = ( -0.0000000 -1.0000000 -0.0000000 )
                  (  1.0000000  0.0000000 -0.0000000 )
                  (  0.0000000  0.0000000 -1.0000000 )


      isym = 32     inv.  90 deg rotation - cart. axis [0,0,1]   

 cryst.   s(32) = (    -1          0          1      )
                  (    -1          0          0      )
                  (    -1          1          0      )

 cart.    s(32) = (  0.0000000  1.0000000 -0.0000000 )
                  ( -1.0000000 -0.0000000 -0.0000000 )
                  ( -0.0000000 -0.0000000 -1.0000000 )


      isym = 33     inv. 180 deg rotation - cart. axis [1,0,1]   

 cryst.   s(33) = (     1         -1          0      )
                  (     0         -1          0      )
                  (     0         -1          1      )

 cart.    s(33) = ( -0.0000000 -0.0000000 -1.0000000 )
                  ( -0.0000000  1.0000000  0.0000000 )
                  ( -1.0000000  0.0000000  0.0000000 )


      isym = 34     inv. 180 deg rotation - cart. axis [-1,0,1]  

 cryst.   s(34) = (     0          0          1      )
                  (     0          1          0      )
                  (     1          0          0      )

 cart.    s(34) = (  0.0000000 -0.0000000  1.0000000 )
                  (  0.0000000  1.0000000 -0.0000000 )
                  (  1.0000000  0.0000000 -0.0000000 )


      isym = 35     inv.  90 deg rotation - cart. axis [0,1,0]   

 cryst.   s(35) = (     0          0         -1      )
                  (     1          0         -1      )
                  (     0          1         -1      )

 cart.    s(35) = (  0.0000000  0.0000000 -1.0000000 )
                  (  0.0000000 -1.0000000  0.0000000 )
                  (  1.0000000 -0.0000000  0.0000000 )


      isym = 36     inv.  90 deg rotation - cart. axis [0,-1,0]  

 cryst.   s(36) = (    -1          1          0      )
                  (    -1          0          1      )
                  (    -1          0          0      )

 cart.    s(36) = ( -0.0000000  0.0000000  1.0000000 )
                  ( -0.0000000 -1.0000000 -0.0000000 )
                  ( -1.0000000 -0.0000000 -0.0000000 )


      isym = 37     inv. 180 deg rotation - cart. axis [0,1,1]   

 cryst.   s(37) = (    -1          0          0      )
                  (    -1          1          0      )
                  (    -1          0          1      )

 cart.    s(37) = (  1.0000000 -0.0000000  0.0000000 )
                  ( -0.0000000 -0.0000000 -1.0000000 )
                  ( -0.0000000 -1.0000000 -0.0000000 )


      isym = 38     inv. 180 deg rotation - cart. axis [0,1,-1]  

 cryst.   s(38) = (     1          0          0      )
                  (     0          0          1      )
                  (     0          1          0      )

 cart.    s(38) = (  1.0000000  0.0000000 -0.0000000 )
                  ( -0.0000000  0.0000000  1.0000000 )
                  ( -0.0000000  1.0000000  0.0000000 )


      isym = 39     inv.  90 deg rotation - cart. axis [-1,0,0]  

 cryst.   s(39) = (     0          1         -1      )
                  (     0          0         -1      )
                  (     1          0         -1      )

 cart.    s(39) = ( -1.0000000  0.0000000  0.0000000 )
                  (  0.0000000  0.0000000 -1.0000000 )
                  (  0.0000000  1.0000000 -0.0000000 )


      isym = 40     inv.  90 deg rotation - cart. axis [1,0,0]   

 cryst.   s(40) = (     0         -1          1      )
                  (     1         -1          0      )
                  (     0         -1          0      )

 cart.    s(40) = ( -1.0000000 -0.0000000 -0.0000000 )
                  (  0.0000000 -0.0000000  1.0000000 )
                  (  0.0000000 -1.0000000  0.0000000 )


      isym = 41     inv. 120 deg rotation - cart. axis [-1,-1,-1]

 cryst.   s(41) = (     0          0         -1      )
                  (    -1          0          0      )
                  (     0         -1          0      )

 cart.    s(41) = ( -0.0000000 -1.0000000  0.0000000 )
                  ( -0.0000000  0.0000000 -1.0000000 )
                  ( -1.0000000  0.0000000 -0.0000000 )


      isym = 42     inv. 120 deg rotation - cart. axis [-1,1,1]  

 cryst.   s(42) = (    -1          1          0      )
                  (     0          1         -1      )
                  (     0          1          0      )

 cart.    s(42) = (  0.0000000  1.0000000  0.0000000 )
                  (  0.0000000 -0.0000000 -1.0000000 )
                  (  1.0000000 -0.0000000 -0.0000000 )


      isym = 43     inv. 120 deg rotation - cart. axis [1,1,-1]  

 cryst.   s(43) = (     1         -1          0      )
                  (     1          0          0      )
                  (     1          0         -1      )

 cart.    s(43) = (  0.0000000 -1.0000000 -0.0000000 )
                  (  0.0000000  0.0000000  1.0000000 )
                  (  1.0000000  0.0000000  0.0000000 )


      isym = 44     inv. 120 deg rotation - cart. axis [1,-1,1]  

 cryst.   s(44) = (     0          0          1      )
                  (     0         -1          1      )
                  (    -1          0          1      )

 cart.    s(44) = ( -0.0000000  1.0000000 -0.0000000 )
                  ( -0.0000000 -0.0000000  1.0000000 )
                  ( -1.0000000 -0.0000000  0.0000000 )


      isym = 45     inv. 120 deg rotation - cart. axis [1,1,1]   

 cryst.   s(45) = (     0         -1          0      )
                  (     0          0         -1      )
                  (    -1          0          0      )

 cart.    s(45) = (  0.0000000 -0.0000000 -1.0000000 )
                  ( -1.0000000 -0.0000000  0.0000000 )
                  ( -0.0000000 -1.0000000  0.0000000 )


      isym = 46     inv. 120 deg rotation - cart. axis [-1,1,-1] 

 cryst.   s(46) = (     1          0         -1      )
                  (     1         -1          0      )
                  (     1          0          0      )

 cart.    s(46) = ( -0.0000000  0.0000000 -1.0000000 )
                  (  1.0000000  0.0000000  0.0000000 )
                  (  0.0000000  1.0000000  0.0000000 )


      isym = 47     inv. 120 deg rotation - cart. axis [1,-1,-1] 

 cryst.   s(47) = (    -1          0          1      )
                  (     0          0          1      )
                  (     0         -1          1      )

 cart.    s(47) = ( -0.0000000 -0.0000000  1.0000000 )
                  (  1.0000000 -0.0000000 -0.0000000 )
                  (  0.0000000 -1.0000000 -0.0000000 )


      isym = 48     inv. 120 deg rotation - cart. axis [-1,-1,1] 

 cryst.   s(48) = (     0          1          0      )
                  (    -1          1          0      )
                  (     0          1         -1      )

 cart.    s(48) = (  0.0000000  0.0000000  1.0000000 )
                  ( -1.0000000  0.0000000 -0.0000000 )
                  ( -0.0000000  1.0000000 -0.0000000 )


   Cartesian axes

     site n.     atom                  positions (alat units)
         1        Sr     tau(   1) = (   0.3535534   0.3535534   1.0606602  )
         2        Sr     tau(   2) = (   0.3535534   1.0606602   1.0606602  )
         3        Mn     tau(   3) = (   0.0000000   0.0000000   0.0000000  )
         4        Mo     tau(   4) = (   0.7071068   0.0000000   0.0000000  )
         5        O      tau(   5) = (   1.1087434   0.0000000   0.0000000  )
         6        O      tau(   6) = (   0.7071068   0.4016367  -0.0000000  )
         7        O      tau(   7) = (  -0.0000000  -0.0000000   1.1087434  )
         8        O      tau(   8) = (   0.7071068   0.0000000   1.0125769  )
         9        O      tau(   9) = (   0.7071068   1.0125769   0.0000000  )
        10        O      tau(  10) = (   0.3054701  -0.0000000  -0.0000000  )

   Crystallographic axes

     site n.     atom                  positions (cryst. coord.)
         1        Sr     tau(   1) = (  0.7500000  0.7500000 -0.2500000  )
         2        Sr     tau(   2) = (  1.2500000  0.2500000  0.2500000  )
         3        Mn     tau(   3) = (  0.0000000  0.0000000  0.0000000  )
         4        Mo     tau(   4) = ( -0.5000000  0.5000000  0.5000000  )
         5        O      tau(   5) = ( -0.7840000  0.7840000  0.7840000  )
         6        O      tau(   6) = ( -0.2160000  0.2160000  0.7840000  )
         7        O      tau(   7) = (  0.7840000  0.7840000 -0.7840000  )
         8        O      tau(   8) = (  0.2160000  1.2160000 -0.2160000  )
         9        O      tau(   9) = (  0.2160000 -0.2160000  1.2160000  )
        10        O      tau(  10) = ( -0.2160000  0.2160000  0.2160000  )

     number of k points=    47  Marzari-Vanderbilt smearing, width (Ry)=  0.0200
                       cart. coord. in units 2pi/alat
        k(    1) = (   0.0000000   0.0000000   0.0000000), wk =   0.0010000
        k(    2) = (   0.0707107   0.0707107  -0.0707107), wk =   0.0080000
        k(    3) = (   0.1414214   0.1414214  -0.1414214), wk =   0.0080000
        k(    4) = (   0.2121320   0.2121320  -0.2121320), wk =   0.0080000
        k(    5) = (   0.2828427   0.2828427  -0.2828427), wk =   0.0080000
        k(    6) = (  -0.3535534  -0.3535534   0.3535534), wk =   0.0040000
        k(    7) = (   0.1414214  -0.0000000   0.0000000), wk =   0.0060000
        k(    8) = (   0.2121320   0.0707107  -0.0707107), wk =   0.0240000
        k(    9) = (   0.2828427   0.1414214  -0.1414214), wk =   0.0240000
        k(   10) = (   0.3535534   0.2121320  -0.2121320), wk =   0.0240000
        k(   11) = (  -0.2828427  -0.4242641   0.4242641), wk =   0.0240000
        k(   12) = (  -0.2121320  -0.3535534   0.3535534), wk =   0.0240000
        k(   13) = (  -0.1414214  -0.2828427   0.2828427), wk =   0.0240000
        k(   14) = (  -0.0707107  -0.2121320   0.2121320), wk =   0.0240000
        k(   15) = (   0.0000000  -0.1414214   0.1414214), wk =   0.0120000
        k(   16) = (   0.2828427  -0.0000000   0.0000000), wk =   0.0060000
        k(   17) = (   0.3535534   0.0707107  -0.0707107), wk =   0.0240000
        k(   18) = (   0.4242641   0.1414214  -0.1414214), wk =   0.0240000
        k(   19) = (  -0.2121320  -0.4949747   0.4949747), wk =   0.0240000
        k(   20) = (  -0.1414214  -0.4242641   0.4242641), wk =   0.0240000
        k(   21) = (  -0.0707107  -0.3535534   0.3535534), wk =   0.0240000
        k(   22) = (   0.0000000  -0.2828427   0.2828427), wk =   0.0120000
        k(   23) = (   0.4242641   0.0000000  -0.0000000), wk =   0.0060000
        k(   24) = (   0.4949747   0.0707107  -0.0707107), wk =   0.0240000
        k(   25) = (  -0.1414214  -0.5656854   0.5656854), wk =   0.0240000
        k(   26) = (  -0.0707107  -0.4949747   0.4949747), wk =   0.0240000
        k(   27) = (  -0.0000000  -0.4242641   0.4242641), wk =   0.0120000
        k(   28) = (   0.5656854  -0.0000000   0.0000000), wk =   0.0060000
        k(   29) = (  -0.0707107  -0.6363961   0.6363961), wk =   0.0240000
        k(   30) = (   0.0000000  -0.5656854   0.5656854), wk =   0.0120000
        k(   31) = (  -0.7071068   0.0000000   0.0000000), wk =   0.0030000
        k(   32) = (   0.2828427   0.1414214   0.0000000), wk =   0.0240000
        k(   33) = (   0.3535534   0.2121320  -0.0707107), wk =   0.0480000
        k(   34) = (  -0.2828427  -0.4242641   0.5656854), wk =   0.0480000
        k(   35) = (  -0.2121320  -0.3535534   0.4949747), wk =   0.0240000
        k(   36) = (   0.4242641   0.1414214  -0.0000000), wk =   0.0240000
        k(   37) = (  -0.2121320  -0.4949747   0.6363961), wk =   0.0480000
        k(   38) = (  -0.1414214  -0.4242641   0.5656854), wk =   0.0480000
        k(   39) = (  -0.0707107  -0.3535534   0.4949747), wk =   0.0480000
        k(   40) = (   0.0000000  -0.2828427   0.4242641), wk =   0.0240000
        k(   41) = (  -0.1414214  -0.5656854   0.7071068), wk =   0.0240000
        k(   42) = (  -0.0707107  -0.4949747   0.6363961), wk =   0.0480000
        k(   43) = (   0.0000000  -0.4242641   0.5656854), wk =   0.0240000
        k(   44) = (  -0.7071068   0.1414214   0.0000000), wk =   0.0120000
        k(   45) = (  -0.1414214  -0.4242641   0.7071068), wk =   0.0240000
        k(   46) = (  -0.0707107  -0.3535534   0.6363961), wk =   0.0240000
        k(   47) = (  -0.7071068   0.2828427   0.0000000), wk =   0.0120000

                       cryst. coord.
        k(    1) = (   0.0000000   0.0000000   0.0000000), wk =   0.0010000
        k(    2) = (  -0.0000000  -0.0000000   0.1000000), wk =   0.0080000
        k(    3) = (  -0.0000000  -0.0000000   0.2000000), wk =   0.0080000
        k(    4) = (   0.0000000   0.0000000   0.3000000), wk =   0.0080000
        k(    5) = (  -0.0000000  -0.0000000   0.4000000), wk =   0.0080000
        k(    6) = (  -0.0000000  -0.0000000  -0.5000000), wk =   0.0040000
        k(    7) = (  -0.0000000   0.1000000   0.1000000), wk =   0.0060000
        k(    8) = (  -0.0000000   0.1000000   0.2000000), wk =   0.0240000
        k(    9) = (  -0.0000000   0.1000000   0.3000000), wk =   0.0240000
        k(   10) = (  -0.0000000   0.1000000   0.4000000), wk =   0.0240000
        k(   11) = (   0.0000000   0.1000000  -0.5000000), wk =   0.0240000
        k(   12) = (  -0.0000000   0.1000000  -0.4000000), wk =   0.0240000
        k(   13) = (   0.0000000   0.1000000  -0.3000000), wk =   0.0240000
        k(   14) = (  -0.0000000   0.1000000  -0.2000000), wk =   0.0240000
        k(   15) = (   0.0000000   0.1000000  -0.1000000), wk =   0.0120000
        k(   16) = (  -0.0000000   0.2000000   0.2000000), wk =   0.0060000
        k(   17) = (   0.0000000   0.2000000   0.3000000), wk =   0.0240000
        k(   18) = (  -0.0000000   0.2000000   0.4000000), wk =   0.0240000
        k(   19) = (   0.0000000   0.2000000  -0.5000000), wk =   0.0240000
        k(   20) = (   0.0000000   0.2000000  -0.4000000), wk =   0.0240000
        k(   21) = (   0.0000000   0.2000000  -0.3000000), wk =   0.0240000
        k(   22) = (   0.0000000   0.2000000  -0.2000000), wk =   0.0120000
        k(   23) = (   0.0000000   0.3000000   0.3000000), wk =   0.0060000
        k(   24) = (  -0.0000000   0.3000000   0.4000000), wk =   0.0240000
        k(   25) = (   0.0000000   0.3000000  -0.5000000), wk =   0.0240000
        k(   26) = (   0.0000000   0.3000000  -0.4000000), wk =   0.0240000
        k(   27) = (   0.0000000   0.3000000  -0.3000000), wk =   0.0120000
        k(   28) = (  -0.0000000   0.4000000   0.4000000), wk =   0.0060000
        k(   29) = (   0.0000000   0.4000000  -0.5000000), wk =   0.0240000
        k(   30) = (   0.0000000   0.4000000  -0.4000000), wk =   0.0120000
        k(   31) = (   0.0000000  -0.5000000  -0.5000000), wk =   0.0030000
        k(   32) = (   0.1000000   0.2000000   0.3000000), wk =   0.0240000
        k(   33) = (   0.1000000   0.2000000   0.4000000), wk =   0.0480000
        k(   34) = (   0.1000000   0.2000000  -0.5000000), wk =   0.0480000
        k(   35) = (   0.1000000   0.2000000  -0.4000000), wk =   0.0240000
        k(   36) = (   0.1000000   0.3000000   0.4000000), wk =   0.0240000
        k(   37) = (   0.1000000   0.3000000  -0.5000000), wk =   0.0480000
        k(   38) = (   0.1000000   0.3000000  -0.4000000), wk =   0.0480000
        k(   39) = (   0.1000000   0.3000000  -0.3000000), wk =   0.0480000
        k(   40) = (   0.1000000   0.3000000  -0.2000000), wk =   0.0240000
        k(   41) = (   0.1000000   0.4000000  -0.5000000), wk =   0.0240000
        k(   42) = (   0.1000000   0.4000000  -0.4000000), wk =   0.0480000
        k(   43) = (   0.1000000   0.4000000  -0.3000000), wk =   0.0240000
        k(   44) = (   0.1000000  -0.5000000  -0.4000000), wk =   0.0120000
        k(   45) = (   0.2000000   0.4000000  -0.4000000), wk =   0.0240000
        k(   46) = (   0.2000000   0.4000000  -0.3000000), wk =   0.0240000
        k(   47) = (   0.2000000  -0.5000000  -0.3000000), wk =   0.0120000

     Dense  grid:   318539 G-vectors     FFT dimensions: (  96,  96,  96)

     Smooth grid:    61335 G-vectors     FFT dimensions: (  60,  60,  60)

     Dynamical RAM for                 wfc:       0.82 MB

     Dynamical RAM for     wfc (w. buffer):      12.27 MB

     Dynamical RAM for           str. fact:       2.43 MB

     Dynamical RAM for           local pot:       0.00 MB

     Dynamical RAM for          nlocal pot:       1.75 MB

     Dynamical RAM for                qrad:       8.96 MB

     Dynamical RAM for          rho,v,vnew:       8.71 MB

     Dynamical RAM for               rhoin:       2.90 MB

     Dynamical RAM for            rho*nmix:      19.44 MB

     Dynamical RAM for           G-vectors:       2.34 MB

     Dynamical RAM for          h,s,v(r/c):       0.14 MB

     Dynamical RAM for          <psi|beta>:       0.10 MB

     Dynamical RAM for      wfcinit/wfcrot:       2.25 MB

     Dynamical RAM for           addusdens:      17.79 MB

     Dynamical RAM for          addusforce:      18.19 MB

     Dynamical RAM for         addusstress:      18.10 MB

     Estimated static dynamical RAM per process >      47.46 MB

     Estimated max dynamical RAM per process >      85.08 MB

     Estimated total dynamical RAM >       3.74 GB

     Check: negative core charge=   -0.000004
     Generating pointlists ...
     new r_m :   0.1260 (alat units)  1.3479 (a.u.) for type    1
     new r_m :   0.1657 (alat units)  1.7723 (a.u.) for type    2
     new r_m :   0.1260 (alat units)  1.3479 (a.u.) for type    3
     new r_m :   0.2072 (alat units)  2.2165 (a.u.) for type    4

     The initial density is read from file :
     ./out/aiida.save/charge-density


     negative rho (up, down):  6.598E-02 6.599E-02
     Starting wfcs are   73 randomized atomic wfcs
     Checking if some PAW data can be deallocated... 
       PAW data deallocated on   24 nodes for type:  3

     total cpu time spent up to now is        3.3 secs

     per-process dynamical memory:    66.9 Mb

     Self-consistent Calculation

     iteration #  1     ecut=    65.00 Ry     beta= 0.40
     PPCG style diagonalization

---- Real-time Memory Report at c_bands before calling an iterative solver
            99 MiB given to the printing process from OS
            65 MiB allocation reported by mallinfo(arena+hblkhd)
        488713 MiB available memory on the node where the printing process lives
------------------
     ethr =  1.00E-05,  avg # of iterations =  9.8

     negative rho (up, down):  6.599E-02 6.599E-02

     total cpu time spent up to now is       13.9 secs

     total energy              =    -735.81432331 Ry
     estimated scf accuracy    <       0.00232075 Ry

     total magnetization       =     4.48 Bohr mag/cell
     absolute magnetization    =     4.59 Bohr mag/cell

     iteration #  2     ecut=    65.00 Ry     beta= 0.40
     PPCG style diagonalization

---- Real-time Memory Report at c_bands before calling an iterative solver
           123 MiB given to the printing process from OS
            87 MiB allocation reported by mallinfo(arena+hblkhd)
        487660 MiB available memory on the node where the printing process lives
------------------
     ethr =  2.73E-06,  avg # of iterations =  7.0

     negative rho (up, down):  6.599E-02 6.599E-02

     total cpu time spent up to now is       22.3 secs

     total energy              =    -735.81443882 Ry
     estimated scf accuracy    <       0.02414955 Ry

     total magnetization       =     4.32 Bohr mag/cell
     absolute magnetization    =     4.43 Bohr mag/cell

     iteration #  3     ecut=    65.00 Ry     beta= 0.40
     PPCG style diagonalization

---- Real-time Memory Report at c_bands before calling an iterative solver
           124 MiB given to the printing process from OS
            87 MiB allocation reported by mallinfo(arena+hblkhd)
        487640 MiB available memory on the node where the printing process lives
------------------
     ethr =  2.73E-06,  avg # of iterations =  6.4

     negative rho (up, down):  6.599E-02 6.599E-02

     total cpu time spent up to now is       30.0 secs

     total energy              =    -735.81646860 Ry
     estimated scf accuracy    <       0.00140523 Ry

     total magnetization       =     4.34 Bohr mag/cell
     absolute magnetization    =     4.45 Bohr mag/cell

     iteration #  4     ecut=    65.00 Ry     beta= 0.40
     PPCG style diagonalization

---- Real-time Memory Report at c_bands before calling an iterative solver
           125 MiB given to the printing process from OS
            88 MiB allocation reported by mallinfo(arena+hblkhd)
        487619 MiB available memory on the node where the printing process lives
------------------
     ethr =  1.65E-06,  avg # of iterations =  5.3

     negative rho (up, down):  6.600E-02 6.598E-02

     total cpu time spent up to now is       35.6 secs

     total energy              =    -735.81808073 Ry
     estimated scf accuracy    <       0.00163446 Ry

     total magnetization       =     4.28 Bohr mag/cell
     absolute magnetization    =     4.39 Bohr mag/cell

     iteration #  5     ecut=    65.00 Ry     beta= 0.40
     PPCG style diagonalization

---- Real-time Memory Report at c_bands before calling an iterative solver
           126 MiB given to the printing process from OS
            88 MiB allocation reported by mallinfo(arena+hblkhd)
        487602 MiB available memory on the node where the printing process lives
------------------
     ethr =  1.65E-06,  avg # of iterations =  7.4

     negative rho (up, down):  6.600E-02 6.597E-02

     total cpu time spent up to now is       44.4 secs

     total energy              =    -735.82073079 Ry
     estimated scf accuracy    <       0.00043945 Ry

     total magnetization       =     3.95 Bohr mag/cell
     absolute magnetization    =     4.05 Bohr mag/cell

     iteration #  6     ecut=    65.00 Ry     beta= 0.40
     PPCG style diagonalization

---- Real-time Memory Report at c_bands before calling an iterative solver
           127 MiB given to the printing process from OS
            89 MiB allocation reported by mallinfo(arena+hblkhd)
        487578 MiB available memory on the node where the printing process lives
------------------
     ethr =  5.17E-07,  avg # of iterations =  7.7

     negative rho (up, down):  6.600E-02 6.597E-02

     total cpu time spent up to now is       52.6 secs

     total energy              =    -735.81986235 Ry
     estimated scf accuracy    <       0.00028919 Ry

     total magnetization       =     3.74 Bohr mag/cell
     absolute magnetization    =     3.84 Bohr mag/cell

     iteration #  7     ecut=    65.00 Ry     beta= 0.40
     PPCG style diagonalization

---- Real-time Memory Report at c_bands before calling an iterative solver
           127 MiB given to the printing process from OS
            89 MiB allocation reported by mallinfo(arena+hblkhd)
        487562 MiB available memory on the node where the printing process lives
------------------
     ethr =  3.40E-07,  avg # of iterations =  8.9

     negative rho (up, down):  6.600E-02 6.597E-02

     total cpu time spent up to now is       61.8 secs

     total energy              =    -735.82449767 Ry
     estimated scf accuracy    <       0.00035738 Ry

     total magnetization       =     3.11 Bohr mag/cell
     absolute magnetization    =     3.21 Bohr mag/cell

     iteration #  8     ecut=    65.00 Ry     beta= 0.40
     PPCG style diagonalization

---- Real-time Memory Report at c_bands before calling an iterative solver
           128 MiB given to the printing process from OS
            90 MiB allocation reported by mallinfo(arena+hblkhd)
        487551 MiB available memory on the node where the printing process lives
------------------
     ethr =  3.40E-07,  avg # of iterations =  2.4

     negative rho (up, down):  6.598E-02 6.599E-02

     total cpu time spent up to now is       64.5 secs

     total energy              =    -735.75222250 Ry
     estimated scf accuracy    <       0.00037697 Ry

     total magnetization       =     3.08 Bohr mag/cell
     absolute magnetization    =     3.17 Bohr mag/cell

     iteration #  9     ecut=    65.00 Ry     beta= 0.40
     PPCG style diagonalization

---- Real-time Memory Report at c_bands before calling an iterative solver
           129 MiB given to the printing process from OS
            90 MiB allocation reported by mallinfo(arena+hblkhd)
        487535 MiB available memory on the node where the printing process lives
------------------
     ethr =  3.40E-07,  avg # of iterations =  9.5

     negative rho (up, down):  6.601E-02 6.598E-02

     total cpu time spent up to now is       74.5 secs

     total energy              =    -735.73990018 Ry
     estimated scf accuracy    <       0.00471136 Ry

     total magnetization       =     4.77 Bohr mag/cell
     absolute magnetization    =     4.90 Bohr mag/cell

     iteration # 10     ecut=    65.00 Ry     beta= 0.40
     PPCG style diagonalization

---- Real-time Memory Report at c_bands before calling an iterative solver
           130 MiB given to the printing process from OS
            91 MiB allocation reported by mallinfo(arena+hblkhd)
        487523 MiB available memory on the node where the printing process lives
------------------
     ethr =  3.40E-07,  avg # of iterations =  9.7

     negative rho (up, down):  6.597E-02 6.600E-02

     total cpu time spent up to now is       84.6 secs

     total energy              =    -735.39099747 Ry
     estimated scf accuracy    <       0.00358640 Ry

     total magnetization       =     1.76 Bohr mag/cell
     absolute magnetization    =     2.69 Bohr mag/cell

     iteration # 11     ecut=    65.00 Ry     beta= 0.40
     PPCG style diagonalization

---- Real-time Memory Report at c_bands before calling an iterative solver
           130 MiB given to the printing process from OS
            91 MiB allocation reported by mallinfo(arena+hblkhd)
        487516 MiB available memory on the node where the printing process lives
------------------
     ethr =  3.40E-07,  avg # of iterations = 10.3

     negative rho (up, down):  6.597E-02 6.599E-02

     total cpu time spent up to now is       95.5 secs

     total energy              =    -735.74429767 Ry
     estimated scf accuracy    <       0.03019692 Ry

     total magnetization       =     5.00 Bohr mag/cell
     absolute magnetization    =     5.26 Bohr mag/cell

     iteration # 12     ecut=    65.00 Ry     beta= 0.40
     PPCG style diagonalization

---- Real-time Memory Report at c_bands before calling an iterative solver
           130 MiB given to the printing process from OS
            91 MiB allocation reported by mallinfo(arena+hblkhd)
        487509 MiB available memory on the node where the printing process lives
------------------
     ethr =  3.40E-07,  avg # of iterations =  7.4

     negative rho (up, down):  6.599E-02 6.599E-02

     total cpu time spent up to now is      104.3 secs

     total energy              =    -735.79190979 Ry
     estimated scf accuracy    <       0.02338268 Ry

     total magnetization       =     5.00 Bohr mag/cell
     absolute magnetization    =     5.24 Bohr mag/cell

     iteration # 13     ecut=    65.00 Ry     beta= 0.40
     PPCG style diagonalization

---- Real-time Memory Report at c_bands before calling an iterative solver
           130 MiB given to the printing process from OS
            91 MiB allocation reported by mallinfo(arena+hblkhd)
        487499 MiB available memory on the node where the printing process lives
------------------
     ethr =  3.40E-07,  avg # of iterations =  9.6

     negative rho (up, down):  6.599E-02 6.599E-02

     total cpu time spent up to now is      114.5 secs

     total energy              =    -735.81564530 Ry
     estimated scf accuracy    <       0.00085358 Ry

     total magnetization       =     4.27 Bohr mag/cell
     absolute magnetization    =     4.37 Bohr mag/cell

     iteration # 14     ecut=    65.00 Ry     beta= 0.40
     PPCG style diagonalization

---- Real-time Memory Report at c_bands before calling an iterative solver
           130 MiB given to the printing process from OS
            91 MiB allocation reported by mallinfo(arena+hblkhd)
        487493 MiB available memory on the node where the printing process lives
------------------
     ethr =  3.40E-07,  avg # of iterations =  9.0

     negative rho (up, down):  6.599E-02 6.599E-02

     total cpu time spent up to now is      123.8 secs

     total energy              =    -735.81983140 Ry
     estimated scf accuracy    <       0.00037617 Ry

     total magnetization       =     3.59 Bohr mag/cell
     absolute magnetization    =     3.67 Bohr mag/cell

     iteration # 15     ecut=    65.00 Ry     beta= 0.40
     PPCG style diagonalization

---- Real-time Memory Report at c_bands before calling an iterative solver
           130 MiB given to the printing process from OS
            91 MiB allocation reported by mallinfo(arena+hblkhd)
        487490 MiB available memory on the node where the printing process lives
------------------
     ethr =  3.40E-07,  avg # of iterations =  7.1

     negative rho (up, down):  6.599E-02 6.599E-02

     total cpu time spent up to now is      131.5 secs

     total energy              =    -735.82064044 Ry
     estimated scf accuracy    <       0.00053527 Ry

     total magnetization       =     3.82 Bohr mag/cell
     absolute magnetization    =     3.90 Bohr mag/cell

     iteration # 16     ecut=    65.00 Ry     beta= 0.40
     PPCG style diagonalization

---- Real-time Memory Report at c_bands before calling an iterative solver
           130 MiB given to the printing process from OS
            91 MiB allocation reported by mallinfo(arena+hblkhd)
        487481 MiB available memory on the node where the printing process lives
------------------
     ethr =  3.40E-07,  avg # of iterations =  3.3

     negative rho (up, down):  6.600E-02 6.599E-02

     total cpu time spent up to now is      134.9 secs

     total energy              =    -735.81937971 Ry
     estimated scf accuracy    <       0.00062197 Ry

     total magnetization       =     3.78 Bohr mag/cell
     absolute magnetization    =     3.86 Bohr mag/cell

     iteration # 17     ecut=    65.00 Ry     beta= 0.40
     PPCG style diagonalization

---- Real-time Memory Report at c_bands before calling an iterative solver
           130 MiB given to the printing process from OS
            91 MiB allocation reported by mallinfo(arena+hblkhd)
        487476 MiB available memory on the node where the printing process lives
------------------
     ethr =  3.40E-07,  avg # of iterations =  8.7

     negative rho (up, down):  6.600E-02 6.598E-02

     total cpu time spent up to now is      143.8 secs

     total energy              =    -735.82400666 Ry
     estimated scf accuracy    <       0.00041926 Ry

     total magnetization       =     3.20 Bohr mag/cell
     absolute magnetization    =     3.28 Bohr mag/cell

     iteration # 18     ecut=    65.00 Ry     beta= 0.40
     PPCG style diagonalization

---- Real-time Memory Report at c_bands before calling an iterative solver
           131 MiB given to the printing process from OS
            91 MiB allocation reported by mallinfo(arena+hblkhd)
        487475 MiB available memory on the node where the printing process lives
------------------
     ethr =  3.40E-07,  avg # of iterations =  8.3

     negative rho (up, down):  6.600E-02 6.598E-02

     total cpu time spent up to now is      152.6 secs

     total energy              =    -735.82562066 Ry
     estimated scf accuracy    <       0.00070897 Ry

     total magnetization       =     2.81 Bohr mag/cell
     absolute magnetization    =     2.90 Bohr mag/cell

     iteration # 19     ecut=    65.00 Ry     beta= 0.40
     PPCG style diagonalization

---- Real-time Memory Report at c_bands before calling an iterative solver
           131 MiB given to the printing process from OS
            91 MiB allocation reported by mallinfo(arena+hblkhd)
        487467 MiB available memory on the node where the printing process lives
------------------
     ethr =  3.40E-07,  avg # of iterations =  2.8

     negative rho (up, down):  6.599E-02 6.599E-02

     total cpu time spent up to now is      155.7 secs

     total energy              =    -735.79694233 Ry
     estimated scf accuracy    <       0.00069345 Ry

     total magnetization       =     2.81 Bohr mag/cell
     absolute magnetization    =     2.90 Bohr mag/cell

     iteration # 20     ecut=    65.00 Ry     beta= 0.40
     PPCG style diagonalization

---- Real-time Memory Report at c_bands before calling an iterative solver
           131 MiB given to the printing process from OS
            91 MiB allocation reported by mallinfo(arena+hblkhd)
        487465 MiB available memory on the node where the printing process lives
------------------
     ethr =  3.40E-07,  avg # of iterations =  9.2

     negative rho (up, down):  6.599E-02 6.598E-02

     total cpu time spent up to now is      165.2 secs

     total energy              =    -735.81665438 Ry
     estimated scf accuracy    <       0.00101822 Ry

     total magnetization       =     4.04 Bohr mag/cell
     absolute magnetization    =     4.13 Bohr mag/cell

     iteration # 21     ecut=    65.00 Ry     beta= 0.40
     PPCG style diagonalization

---- Real-time Memory Report at c_bands before calling an iterative solver
           131 MiB given to the printing process from OS
            91 MiB allocation reported by mallinfo(arena+hblkhd)
        487457 MiB available memory on the node where the printing process lives
------------------
     ethr =  3.40E-07,  avg # of iterations =  8.9

     negative rho (up, down):  6.599E-02 6.598E-02

     total cpu time spent up to now is      174.5 secs

     total energy              =    -735.82331189 Ry
     estimated scf accuracy    <       0.00033443 Ry

     total magnetization       =     3.36 Bohr mag/cell
     absolute magnetization    =     3.44 Bohr mag/cell

     iteration # 22     ecut=    65.00 Ry     beta= 0.40
     PPCG style diagonalization

---- Real-time Memory Report at c_bands before calling an iterative solver
           131 MiB given to the printing process from OS
            91 MiB allocation reported by mallinfo(arena+hblkhd)
        487457 MiB available memory on the node where the printing process lives
------------------
     ethr =  3.40E-07,  avg # of iterations =  3.4

     negative rho (up, down):  6.599E-02 6.598E-02

     total cpu time spent up to now is      178.2 secs

     total energy              =    -735.82246240 Ry
     estimated scf accuracy    <       0.00035689 Ry

     total magnetization       =     3.29 Bohr mag/cell
     absolute magnetization    =     3.37 Bohr mag/cell

     iteration # 23     ecut=    65.00 Ry     beta= 0.40
     PPCG style diagonalization

---- Real-time Memory Report at c_bands before calling an iterative solver
           131 MiB given to the printing process from OS
            91 MiB allocation reported by mallinfo(arena+hblkhd)
        487453 MiB available memory on the node where the printing process lives
------------------
     ethr =  3.40E-07,  avg # of iterations =  4.1

     negative rho (up, down):  6.600E-02 6.598E-02

     total cpu time spent up to now is      182.6 secs

     total energy              =    -735.82315447 Ry
     estimated scf accuracy    <       0.00033213 Ry

     total magnetization       =     3.44 Bohr mag/cell
     absolute magnetization    =     3.52 Bohr mag/cell

     iteration # 24     ecut=    65.00 Ry     beta= 0.40
     PPCG style diagonalization

---- Real-time Memory Report at c_bands before calling an iterative solver
           131 MiB given to the printing process from OS
            91 MiB allocation reported by mallinfo(arena+hblkhd)
        487453 MiB available memory on the node where the printing process lives
------------------
     ethr =  3.40E-07,  avg # of iterations =  5.0

     negative rho (up, down):  6.600E-02 6.598E-02

     total cpu time spent up to now is      187.9 secs

     total energy              =    -735.82351845 Ry
     estimated scf accuracy    <       0.00036609 Ry

     total magnetization       =     3.25 Bohr mag/cell
     absolute magnetization    =     3.33 Bohr mag/cell

     iteration # 25     ecut=    65.00 Ry     beta= 0.40
     PPCG style diagonalization

---- Real-time Memory Report at c_bands before calling an iterative solver
           131 MiB given to the printing process from OS
            91 MiB allocation reported by mallinfo(arena+hblkhd)
        487448 MiB available memory on the node where the printing process lives
------------------
     ethr =  3.40E-07,  avg # of iterations =  2.2

     negative rho (up, down):  6.600E-02 6.598E-02

     total cpu time spent up to now is      190.5 secs

     total energy              =    -735.82323083 Ry
     estimated scf accuracy    <       0.00038214 Ry

     total magnetization       =     3.27 Bohr mag/cell
     absolute magnetization    =     3.35 Bohr mag/cell

     iteration # 26     ecut=    65.00 Ry     beta= 0.40
     PPCG style diagonalization

---- Real-time Memory Report at c_bands before calling an iterative solver
           131 MiB given to the printing process from OS
            91 MiB allocation reported by mallinfo(arena+hblkhd)
        487448 MiB available memory on the node where the printing process lives
------------------
     ethr =  3.40E-07,  avg # of iterations =  3.2

     negative rho (up, down):  6.600E-02 6.598E-02

     total cpu time spent up to now is      194.1 secs

     total energy              =    -735.82364279 Ry
     estimated scf accuracy    <       0.00037284 Ry

     total magnetization       =     3.32 Bohr mag/cell
     absolute magnetization    =     3.40 Bohr mag/cell

     iteration # 27     ecut=    65.00 Ry     beta= 0.40
     PPCG style diagonalization

---- Real-time Memory Report at c_bands before calling an iterative solver
           131 MiB given to the printing process from OS
            91 MiB allocation reported by mallinfo(arena+hblkhd)
        487448 MiB available memory on the node where the printing process lives
------------------
     ethr =  3.40E-07,  avg # of iterations =  4.5

     negative rho (up, down):  6.600E-02 6.598E-02

     total cpu time spent up to now is      199.2 secs

     total energy              =    -735.82364574 Ry
     estimated scf accuracy    <       0.00042667 Ry

     total magnetization       =     3.20 Bohr mag/cell
     absolute magnetization    =     3.28 Bohr mag/cell

     iteration # 28     ecut=    65.00 Ry     beta= 0.40
     PPCG style diagonalization

---- Real-time Memory Report at c_bands before calling an iterative solver
           132 MiB given to the printing process from OS
            91 MiB allocation reported by mallinfo(arena+hblkhd)
        487448 MiB available memory on the node where the printing process lives
------------------
     ethr =  3.40E-07,  avg # of iterations =  2.6

     negative rho (up, down):  6.600E-02 6.598E-02

     total cpu time spent up to now is      202.0 secs

     total energy              =    -735.82369237 Ry
     estimated scf accuracy    <       0.00041248 Ry

     total magnetization       =     3.24 Bohr mag/cell
     absolute magnetization    =     3.32 Bohr mag/cell

     iteration # 29     ecut=    65.00 Ry     beta= 0.40
     PPCG style diagonalization

---- Real-time Memory Report at c_bands before calling an iterative solver
           132 MiB given to the printing process from OS
            91 MiB allocation reported by mallinfo(arena+hblkhd)
        487443 MiB available memory on the node where the printing process lives
------------------
     ethr =  3.40E-07,  avg # of iterations =  2.2

     negative rho (up, down):  6.598E-02 6.600E-02

     total cpu time spent up to now is      204.5 secs

     total energy              =    -735.76568329 Ry
     estimated scf accuracy    <       0.00042680 Ry

     total magnetization       =     3.23 Bohr mag/cell
     absolute magnetization    =     3.31 Bohr mag/cell

     iteration # 30     ecut=    65.00 Ry     beta= 0.40
     PPCG style diagonalization

---- Real-time Memory Report at c_bands before calling an iterative solver
           132 MiB given to the printing process from OS
            91 MiB allocation reported by mallinfo(arena+hblkhd)
        487442 MiB available memory on the node where the printing process lives
------------------
     ethr =  3.40E-07,  avg # of iterations =  9.4

     negative rho (up, down):  6.600E-02 6.598E-02

     total cpu time spent up to now is      214.4 secs

     total energy              =    -735.76487288 Ry
     estimated scf accuracy    <       0.00431379 Ry

     total magnetization       =     4.73 Bohr mag/cell
     absolute magnetization    =     4.85 Bohr mag/cell

     iteration # 31     ecut=    65.00 Ry     beta= 0.40
     PPCG style diagonalization

---- Real-time Memory Report at c_bands before calling an iterative solver
           132 MiB given to the printing process from OS
            91 MiB allocation reported by mallinfo(arena+hblkhd)
        487436 MiB available memory on the node where the printing process lives
------------------
     ethr =  3.40E-07,  avg # of iterations =  9.6

     negative rho (up, down):  6.599E-02 6.598E-02

     total cpu time spent up to now is      224.4 secs

     total energy              =    -735.80041921 Ry
     estimated scf accuracy    <       0.00155698 Ry

     total magnetization       =     2.35 Bohr mag/cell
     absolute magnetization    =     2.45 Bohr mag/cell

     iteration # 32     ecut=    65.00 Ry     beta= 0.40
     PPCG style diagonalization

---- Real-time Memory Report at c_bands before calling an iterative solver
           132 MiB given to the printing process from OS
            91 MiB allocation reported by mallinfo(arena+hblkhd)
        487436 MiB available memory on the node where the printing process lives
------------------
     ethr =  3.40E-07,  avg # of iterations =  9.2

     negative rho (up, down):  6.599E-02 6.598E-02

     total cpu time spent up to now is      233.9 secs

     total energy              =    -735.81967220 Ry
     estimated scf accuracy    <       0.00041294 Ry

     total magnetization       =     3.68 Bohr mag/cell
     absolute magnetization    =     3.77 Bohr mag/cell

     iteration # 33     ecut=    65.00 Ry     beta= 0.40
     PPCG style diagonalization

---- Real-time Memory Report at c_bands before calling an iterative solver
           132 MiB given to the printing process from OS
            91 MiB allocation reported by mallinfo(arena+hblkhd)
        487433 MiB available memory on the node where the printing process lives
------------------
     ethr =  3.40E-07,  avg # of iterations =  7.1

     negative rho (up, down):  6.599E-02 6.598E-02

     total cpu time spent up to now is      242.0 secs

     total energy              =    -735.82003726 Ry
     estimated scf accuracy    <       0.00056364 Ry

     total magnetization       =     3.88 Bohr mag/cell
     absolute magnetization    =     3.96 Bohr mag/cell

     iteration # 34     ecut=    65.00 Ry     beta= 0.40
     PPCG style diagonalization

---- Real-time Memory Report at c_bands before calling an iterative solver
           132 MiB given to the printing process from OS
            91 MiB allocation reported by mallinfo(arena+hblkhd)
        487433 MiB available memory on the node where the printing process lives
------------------
     ethr =  3.40E-07,  avg # of iterations =  2.6

     negative rho (up, down):  6.599E-02 6.598E-02

     total cpu time spent up to now is      245.1 secs

     total energy              =    -735.82062301 Ry
     estimated scf accuracy    <       0.00059931 Ry

     total magnetization       =     3.90 Bohr mag/cell
     absolute magnetization    =     3.99 Bohr mag/cell

     iteration # 35     ecut=    65.00 Ry     beta= 0.40
     PPCG style diagonalization

---- Real-time Memory Report at c_bands before calling an iterative solver
           132 MiB given to the printing process from OS
            91 MiB allocation reported by mallinfo(arena+hblkhd)
        487432 MiB available memory on the node where the printing process lives
------------------
     ethr =  3.40E-07,  avg # of iterations =  4.4

     negative rho (up, down):  6.599E-02 6.598E-02

     total cpu time spent up to now is      249.9 secs

     total energy              =    -735.82128607 Ry
     estimated scf accuracy    <       0.00048300 Ry

     total magnetization       =     3.79 Bohr mag/cell
     absolute magnetization    =     3.88 Bohr mag/cell

     iteration # 36     ecut=    65.00 Ry     beta= 0.40
     PPCG style diagonalization

---- Real-time Memory Report at c_bands before calling an iterative solver
           132 MiB given to the printing process from OS
            91 MiB allocation reported by mallinfo(arena+hblkhd)
        487432 MiB available memory on the node where the printing process lives
------------------
     ethr =  3.40E-07,  avg # of iterations =  6.3

     negative rho (up, down):  6.599E-02 6.599E-02

     total cpu time spent up to now is      256.8 secs

     total energy              =    -735.81782842 Ry
     estimated scf accuracy    <       0.00041227 Ry

     total magnetization       =     3.68 Bohr mag/cell
     absolute magnetization    =     3.77 Bohr mag/cell

     iteration # 37     ecut=    65.00 Ry     beta= 0.40
     PPCG style diagonalization

---- Real-time Memory Report at c_bands before calling an iterative solver
           132 MiB given to the printing process from OS
            91 MiB allocation reported by mallinfo(arena+hblkhd)
        487439 MiB available memory on the node where the printing process lives
------------------
     ethr =  3.40E-07,  avg # of iterations =  8.0

     negative rho (up, down):  6.599E-02 6.598E-02

     total cpu time spent up to now is      265.4 secs

     total energy              =    -735.81970185 Ry
     estimated scf accuracy    <       0.00072320 Ry

     total magnetization       =     4.00 Bohr mag/cell
     absolute magnetization    =     4.09 Bohr mag/cell

     iteration # 38     ecut=    65.00 Ry     beta= 0.40
     PPCG style diagonalization

---- Real-time Memory Report at c_bands before calling an iterative solver
           132 MiB given to the printing process from OS
            91 MiB allocation reported by mallinfo(arena+hblkhd)
        487443 MiB available memory on the node where the printing process lives
------------------
     ethr =  3.40E-07,  avg # of iterations =  3.5

     negative rho (up, down):  6.599E-02 6.599E-02

     total cpu time spent up to now is      269.2 secs

     total energy              =    -735.81638382 Ry
     estimated scf accuracy    <       0.00064391 Ry

     total magnetization       =     3.94 Bohr mag/cell
     absolute magnetization    =     4.03 Bohr mag/cell

     iteration # 39     ecut=    65.00 Ry     beta= 0.40
     PPCG style diagonalization

---- Real-time Memory Report at c_bands before calling an iterative solver
           132 MiB given to the printing process from OS
            91 MiB allocation reported by mallinfo(arena+hblkhd)
        487443 MiB available memory on the node where the printing process lives
------------------
     ethr =  3.40E-07,  avg # of iterations =  8.0

     negative rho (up, down):  6.599E-02 6.599E-02

     total cpu time spent up to now is      277.8 secs

     total energy              =    -735.81839182 Ry
     estimated scf accuracy    <       0.00113600 Ry

     total magnetization       =     4.19 Bohr mag/cell
     absolute magnetization    =     4.28 Bohr mag/cell

     iteration # 40     ecut=    65.00 Ry     beta= 0.40
     PPCG style diagonalization

---- Real-time Memory Report at c_bands before calling an iterative solver
           132 MiB given to the printing process from OS
            91 MiB allocation reported by mallinfo(arena+hblkhd)
        487442 MiB available memory on the node where the printing process lives
------------------
     ethr =  3.40E-07,  avg # of iterations =  5.6

     negative rho (up, down):  6.600E-02 6.597E-02

     total cpu time spent up to now is      283.8 secs

     total energy              =    -735.79172404 Ry
     estimated scf accuracy    <       0.00085566 Ry

     total magnetization       =     4.07 Bohr mag/cell
     absolute magnetization    =     4.16 Bohr mag/cell

     iteration # 41     ecut=    65.00 Ry     beta= 0.40
     PPCG style diagonalization

---- Real-time Memory Report at c_bands before calling an iterative solver
           132 MiB given to the printing process from OS
            91 MiB allocation reported by mallinfo(arena+hblkhd)
        487442 MiB available memory on the node where the printing process lives
------------------
     ethr =  3.40E-07,  avg # of iterations =  9.4

     negative rho (up, down):  6.599E-02 6.598E-02

     total cpu time spent up to now is      293.6 secs

     total energy              =    -735.73797857 Ry
     estimated scf accuracy    <       0.00235147 Ry

     total magnetization       =     2.10 Bohr mag/cell
     absolute magnetization    =     2.40 Bohr mag/cell

     iteration # 42     ecut=    65.00 Ry     beta= 0.40
     PPCG style diagonalization

---- Real-time Memory Report at c_bands before calling an iterative solver
           132 MiB given to the printing process from OS
            91 MiB allocation reported by mallinfo(arena+hblkhd)
        487441 MiB available memory on the node where the printing process lives
------------------
     ethr =  3.40E-07,  avg # of iterations =  9.5

     negative rho (up, down):  6.598E-02 6.598E-02

     total cpu time spent up to now is      303.6 secs

     total energy              =    -735.81371354 Ry
     estimated scf accuracy    <       0.00194582 Ry

     total magnetization       =     4.41 Bohr mag/cell
     absolute magnetization    =     4.52 Bohr mag/cell

     iteration # 43     ecut=    65.00 Ry     beta= 0.40
     PPCG style diagonalization

---- Real-time Memory Report at c_bands before calling an iterative solver
           132 MiB given to the printing process from OS
            91 MiB allocation reported by mallinfo(arena+hblkhd)
        487440 MiB available memory on the node where the printing process lives
------------------
     ethr =  3.40E-07,  avg # of iterations =  3.2

     negative rho (up, down):  6.599E-02 6.598E-02

     total cpu time spent up to now is      307.4 secs

     total energy              =    -735.80781223 Ry
     estimated scf accuracy    <       0.00211756 Ry

     total magnetization       =     4.45 Bohr mag/cell
     absolute magnetization    =     4.55 Bohr mag/cell

     iteration # 44     ecut=    65.00 Ry     beta= 0.40
     PPCG style diagonalization

---- Real-time Memory Report at c_bands before calling an iterative solver
           132 MiB given to the printing process from OS
            91 MiB allocation reported by mallinfo(arena+hblkhd)
        487440 MiB available memory on the node where the printing process lives
------------------
     ethr =  3.40E-07,  avg # of iterations =  9.2

     negative rho (up, down):  6.601E-02 6.597E-02

     total cpu time spent up to now is      316.9 secs

     total energy              =    -735.79606716 Ry
     estimated scf accuracy    <       0.00037024 Ry

     total magnetization       =     3.41 Bohr mag/cell
     absolute magnetization    =     3.49 Bohr mag/cell

     iteration # 45     ecut=    65.00 Ry     beta= 0.40
     PPCG style diagonalization

---- Real-time Memory Report at c_bands before calling an iterative solver
           132 MiB given to the printing process from OS
            91 MiB allocation reported by mallinfo(arena+hblkhd)
        487438 MiB available memory on the node where the printing process lives
------------------
     ethr =  3.40E-07,  avg # of iterations =  9.4

     negative rho (up, down):  6.600E-02 6.598E-02

     total cpu time spent up to now is      326.7 secs

     total energy              =    -735.82522532 Ry
     estimated scf accuracy    <       0.00644764 Ry

     total magnetization       =     1.32 Bohr mag/cell
     absolute magnetization    =     3.06 Bohr mag/cell

     iteration # 46     ecut=    65.00 Ry     beta= 0.40
     PPCG style diagonalization

---- Real-time Memory Report at c_bands before calling an iterative solver
           132 MiB given to the printing process from OS
            91 MiB allocation reported by mallinfo(arena+hblkhd)
        487438 MiB available memory on the node where the printing process lives
------------------
     ethr =  3.40E-07,  avg # of iterations =  8.8

     negative rho (up, down):  6.602E-02 6.597E-02

     total cpu time spent up to now is      335.8 secs

     total energy              =    -735.81312121 Ry
     estimated scf accuracy    <       0.00255948 Ry

     total magnetization       =     2.04 Bohr mag/cell
     absolute magnetization    =     2.44 Bohr mag/cell

     iteration # 47     ecut=    65.00 Ry     beta= 0.40
     PPCG style diagonalization

---- Real-time Memory Report at c_bands before calling an iterative solver
           132 MiB given to the printing process from OS
            91 MiB allocation reported by mallinfo(arena+hblkhd)
        487436 MiB available memory on the node where the printing process lives
------------------
     ethr =  3.40E-07,  avg # of iterations =  9.4

     negative rho (up, down):  6.600E-02 6.598E-02

     total cpu time spent up to now is      345.5 secs

     total energy              =    -735.80830621 Ry
     estimated scf accuracy    <       0.05206849 Ry

     total magnetization       =     0.45 Bohr mag/cell
     absolute magnetization    =     3.68 Bohr mag/cell

     iteration # 48     ecut=    65.00 Ry     beta= 0.40
     PPCG style diagonalization

---- Real-time Memory Report at c_bands before calling an iterative solver
           132 MiB given to the printing process from OS
            91 MiB allocation reported by mallinfo(arena+hblkhd)
        487427 MiB available memory on the node where the printing process lives
------------------
     ethr =  3.40E-07,  avg # of iterations =  9.3

     negative rho (up, down):  6.602E-02 6.597E-02

     total cpu time spent up to now is      355.2 secs

     total energy              =    -735.82597878 Ry
     estimated scf accuracy    <       0.00360428 Ry

     total magnetization       =     1.79 Bohr mag/cell
     absolute magnetization    =     2.64 Bohr mag/cell

     iteration # 49     ecut=    65.00 Ry     beta= 0.40
     PPCG style diagonalization

---- Real-time Memory Report at c_bands before calling an iterative solver
           132 MiB given to the printing process from OS
            91 MiB allocation reported by mallinfo(arena+hblkhd)
        487393 MiB available memory on the node where the printing process lives
------------------
     ethr =  3.40E-07,  avg # of iterations =  9.3

     negative rho (up, down):  6.603E-02 6.596E-02

     total cpu time spent up to now is      364.9 secs

     total energy              =    -735.83730211 Ry
     estimated scf accuracy    <       0.04543486 Ry

     total magnetization       =     0.51 Bohr mag/cell
     absolute magnetization    =     3.65 Bohr mag/cell

     iteration # 50     ecut=    65.00 Ry     beta= 0.40
     PPCG style diagonalization

---- Real-time Memory Report at c_bands before calling an iterative solver
           132 MiB given to the printing process from OS
            91 MiB allocation reported by mallinfo(arena+hblkhd)
        487394 MiB available memory on the node where the printing process lives
------------------
     ethr =  3.40E-07,  avg # of iterations =  9.3

     negative rho (up, down):  6.603E-02 6.596E-02

     total cpu time spent up to now is      374.5 secs

     total energy              =    -735.86226497 Ry
     estimated scf accuracy    <       0.30818107 Ry

     total magnetization       =    -0.74 Bohr mag/cell
     absolute magnetization    =     4.27 Bohr mag/cell

     iteration # 51     ecut=    65.00 Ry     beta= 0.40
     PPCG style diagonalization

---- Real-time Memory Report at c_bands before calling an iterative solver
           132 MiB given to the printing process from OS
            91 MiB allocation reported by mallinfo(arena+hblkhd)
        487393 MiB available memory on the node where the printing process lives
------------------
     ethr =  3.40E-07,  avg # of iterations =  8.0

     negative rho (up, down):  6.602E-02 6.597E-02

     total cpu time spent up to now is      383.1 secs

     total energy              =    -735.85906798 Ry
     estimated scf accuracy    <       0.24218079 Ry

     total magnetization       =    -0.52 Bohr mag/cell
     absolute magnetization    =     4.14 Bohr mag/cell

     iteration # 52     ecut=    65.00 Ry     beta= 0.40
     PPCG style diagonalization

---- Real-time Memory Report at c_bands before calling an iterative solver
           132 MiB given to the printing process from OS
            91 MiB allocation reported by mallinfo(arena+hblkhd)
        487402 MiB available memory on the node where the printing process lives
------------------
     ethr =  3.40E-07,  avg # of iterations =  8.9

     negative rho (up, down):  6.599E-02 6.598E-02

     total cpu time spent up to now is      392.3 secs

     total energy              =    -735.64864173 Ry
     estimated scf accuracy    <       0.13330098 Ry

     total magnetization       =    -0.06 Bohr mag/cell
     absolute magnetization    =     3.91 Bohr mag/cell

     iteration # 53     ecut=    65.00 Ry     beta= 0.40
     PPCG style diagonalization

---- Real-time Memory Report at c_bands before calling an iterative solver
           132 MiB given to the printing process from OS
            91 MiB allocation reported by mallinfo(arena+hblkhd)
        487402 MiB available memory on the node where the printing process lives
------------------
     ethr =  3.40E-07,  avg # of iterations =  9.9

     negative rho (up, down):  6.599E-02 6.599E-02

     total cpu time spent up to now is      402.6 secs

     total energy              =    -735.80930727 Ry
     estimated scf accuracy    <       0.00045697 Ry

     total magnetization       =     3.78 Bohr mag/cell
     absolute magnetization    =     3.87 Bohr mag/cell

     iteration # 54     ecut=    65.00 Ry     beta= 0.40
     PPCG style diagonalization

---- Real-time Memory Report at c_bands before calling an iterative solver
           133 MiB given to the printing process from OS
            91 MiB allocation reported by mallinfo(arena+hblkhd)
        487402 MiB available memory on the node where the printing process lives
------------------
     ethr =  3.40E-07,  avg # of iterations =  9.0

     negative rho (up, down):  6.597E-02 6.599E-02

     total cpu time spent up to now is      411.9 secs

     total energy              =    -735.69351923 Ry
     estimated scf accuracy    <       0.00171019 Ry

     total magnetization       =     4.37 Bohr mag/cell
     absolute magnetization    =     4.47 Bohr mag/cell

     iteration # 55     ecut=    65.00 Ry     beta= 0.40
     PPCG style diagonalization

---- Real-time Memory Report at c_bands before calling an iterative solver
           133 MiB given to the printing process from OS
            91 MiB allocation reported by mallinfo(arena+hblkhd)
        487409 MiB available memory on the node where the printing process lives
------------------
     ethr =  3.40E-07,  avg # of iterations =  9.7

     negative rho (up, down):  6.596E-02 6.600E-02

     total cpu time spent up to now is      422.3 secs

     total energy              =    -735.70417887 Ry
     estimated scf accuracy    <       0.02755179 Ry

     total magnetization       =     5.00 Bohr mag/cell
     absolute magnetization    =     5.25 Bohr mag/cell

     iteration # 56     ecut=    65.00 Ry     beta= 0.40
     PPCG style diagonalization

---- Real-time Memory Report at c_bands before calling an iterative solver
           133 MiB given to the printing process from OS
            91 MiB allocation reported by mallinfo(arena+hblkhd)
        487409 MiB available memory on the node where the printing process lives
------------------
     ethr =  3.40E-07,  avg # of iterations =  8.5

     negative rho (up, down):  6.599E-02 6.598E-02

     total cpu time spent up to now is      431.4 secs

     total energy              =    -735.78030572 Ry
     estimated scf accuracy    <       0.03809778 Ry

     total magnetization       =     5.00 Bohr mag/cell
     absolute magnetization    =     5.28 Bohr mag/cell

     iteration # 57     ecut=    65.00 Ry     beta= 0.40
     PPCG style diagonalization

---- Real-time Memory Report at c_bands before calling an iterative solver
           133 MiB given to the printing process from OS
            91 MiB allocation reported by mallinfo(arena+hblkhd)
        487409 MiB available memory on the node where the printing process lives
------------------
     ethr =  3.40E-07,  avg # of iterations =  9.9

     negative rho (up, down):  6.599E-02 6.598E-02

     total cpu time spent up to now is      442.0 secs

     total energy              =    -735.81556639 Ry
[...]

---- Real-time Memory Report at c_bands before calling an iterative solver
           133 MiB given to the printing process from OS
            91 MiB allocation reported by mallinfo(arena+hblkhd)
        487404 MiB available memory on the node where the printing process lives
------------------
     ethr =  3.40E-07,  avg # of iterations =  4.9

     negative rho (up, down):  6.599E-02 6.598E-02

     total cpu time spent up to now is      616.6 secs

     total energy              =    -735.81808990 Ry
     estimated scf accuracy    <       0.00095133 Ry

     total magnetization       =     4.12 Bohr mag/cell
     absolute magnetization    =     4.21 Bohr mag/cell

     iteration # 81     ecut=    65.00 Ry     beta= 0.40
     PPCG style diagonalization

---- Real-time Memory Report at c_bands before calling an iterative solver
           133 MiB given to the printing process from OS
            91 MiB allocation reported by mallinfo(arena+hblkhd)
        487404 MiB available memory on the node where the printing process lives
------------------
     ethr =  3.40E-07,  avg # of iterations =  2.1

     negative rho (up, down):  6.599E-02 6.598E-02

     total cpu time spent up to now is      619.0 secs

     total energy              =    -735.81813655 Ry
     estimated scf accuracy    <       0.00097661 Ry

     total magnetization       =     4.13 Bohr mag/cell
     absolute magnetization    =     4.22 Bohr mag/cell

     iteration # 82     ecut=    65.00 Ry     beta= 0.40
     PPCG style diagonalization

---- Real-time Memory Report at c_bands before calling an iterative solver
           133 MiB given to the printing process from OS
            91 MiB allocation reported by mallinfo(arena+hblkhd)
        487404 MiB available memory on the node where the printing process lives
------------------
     ethr =  3.40E-07,  avg # of iterations =  2.0

     negative rho (up, down):  6.599E-02 6.598E-02

     total cpu time spent up to now is      621.3 secs

     total energy              =    -735.81900207 Ry
     estimated scf accuracy    <       0.00095114 Ry

     total magnetization       =     4.12 Bohr mag/cell
     absolute magnetization    =     4.22 Bohr mag/cell

     iteration # 83     ecut=    65.00 Ry     beta= 0.40
     PPCG style diagonalization

---- Real-time Memory Report at c_bands before calling an iterative solver
           133 MiB given to the printing process from OS
            91 MiB allocation reported by mallinfo(arena+hblkhd)
        487404 MiB available memory on the node where the printing process lives
------------------
     ethr =  3.40E-07,  avg # of iterations =  4.9

     negative rho (up, down):  6.600E-02 6.598E-02

     total cpu time spent up to now is      626.5 secs

     total energy              =    -735.80262657 Ry
     estimated scf accuracy    <       0.00073383 Ry

     total magnetization       =     4.01 Bohr mag/cell
     absolute magnetization    =     4.10 Bohr mag/cell

     iteration # 84     ecut=    65.00 Ry     beta= 0.40
     PPCG style diagonalization

---- Real-time Memory Report at c_bands before calling an iterative solver
           133 MiB given to the printing process from OS
            91 MiB allocation reported by mallinfo(arena+hblkhd)
        487412 MiB available memory on the node where the printing process lives
------------------
     ethr =  3.40E-07,  avg # of iterations =  9.3

     negative rho (up, down):  6.600E-02 6.598E-02

     total cpu time spent up to now is      636.1 secs

     total energy              =    -735.82668730 Ry
     estimated scf accuracy    <       0.00133121 Ry

     total magnetization       =     2.46 Bohr mag/cell
     absolute magnetization    =     2.56 Bohr mag/cell

     iteration # 85     ecut=    65.00 Ry     beta= 0.40
     PPCG style diagonalization

---- Real-time Memory Report at c_bands before calling an iterative solver
           133 MiB given to the printing process from OS
            91 MiB allocation reported by mallinfo(arena+hblkhd)
        487417 MiB available memory on the node where the printing process lives
------------------
     ethr =  3.40E-07,  avg # of iterations =  3.8

     negative rho (up, down):  6.600E-02 6.598E-02

     total cpu time spent up to now is      640.4 secs

     total energy              =    -735.82781616 Ry
     estimated scf accuracy    <       0.00109134 Ry

     total magnetization       =     2.58 Bohr mag/cell
     absolute magnetization    =     2.67 Bohr mag/cell

     iteration # 86     ecut=    65.00 Ry     beta= 0.40
     PPCG style diagonalization

---- Real-time Memory Report at c_bands before calling an iterative solver
           133 MiB given to the printing process from OS
            91 MiB allocation reported by mallinfo(arena+hblkhd)
        487417 MiB available memory on the node where the printing process lives
------------------
     ethr =  3.40E-07,  avg # of iterations =  4.7

     negative rho (up, down):  6.599E-02 6.599E-02

     total cpu time spent up to now is      645.4 secs

     total energy              =    -735.74981306 Ry
     estimated scf accuracy    <       0.00163808 Ry

     total magnetization       =     2.34 Bohr mag/cell
     absolute magnetization    =     2.44 Bohr mag/cell

     iteration # 87     ecut=    65.00 Ry     beta= 0.40
     PPCG style diagonalization

---- Real-time Memory Report at c_bands before calling an iterative solver
           133 MiB given to the printing process from OS
            91 MiB allocation reported by mallinfo(arena+hblkhd)
        487417 MiB available memory on the node where the printing process lives
------------------
     ethr =  3.40E-07,  avg # of iterations =  9.5

     negative rho (up, down):  6.600E-02 6.598E-02

     total cpu time spent up to now is      655.3 secs

     total energy              =    -735.79519132 Ry
     estimated scf accuracy    <       0.00202601 Ry

     total magnetization       =     4.42 Bohr mag/cell
     absolute magnetization    =     4.53 Bohr mag/cell

     iteration # 88     ecut=    65.00 Ry     beta= 0.40
     PPCG style diagonalization

---- Real-time Memory Report at c_bands before calling an iterative solver
           133 MiB given to the printing process from OS
            91 MiB allocation reported by mallinfo(arena+hblkhd)
        487417 MiB available memory on the node where the printing process lives
------------------
     ethr =  3.40E-07,  avg # of iterations =  9.4

     negative rho (up, down):  6.601E-02 6.597E-02

     total cpu time spent up to now is      665.0 secs

     total energy              =    -735.81326155 Ry
     estimated scf accuracy    <       0.00069398 Ry

     total magnetization       =     2.84 Bohr mag/cell
     absolute magnetization    =     2.93 Bohr mag/cell

     iteration # 89     ecut=    65.00 Ry     beta= 0.40
     PPCG style diagonalization

---- Real-time Memory Report at c_bands before calling an iterative solver
           133 MiB given to the printing process from OS
            91 MiB allocation reported by mallinfo(arena+hblkhd)
        487420 MiB available memory on the node where the printing process lives
------------------
     ethr =  3.40E-07,  avg # of iterations =  9.2

     negative rho (up, down):  6.602E-02 6.596E-02

     total cpu time spent up to now is      674.6 secs

     total energy              =    -735.83562645 Ry
     estimated scf accuracy    <       0.00734438 Ry

     total magnetization       =     1.23 Bohr mag/cell
     absolute magnetization    =     3.15 Bohr mag/cell

     iteration # 90     ecut=    65.00 Ry     beta= 0.40
     PPCG style diagonalization

---- Real-time Memory Report at c_bands before calling an iterative solver
           133 MiB given to the printing process from OS
            91 MiB allocation reported by mallinfo(arena+hblkhd)
        487420 MiB available memory on the node where the printing process lives
------------------
     ethr =  3.40E-07,  avg # of iterations =  9.3

     negative rho (up, down):  6.599E-02 6.598E-02

     total cpu time spent up to now is      684.2 secs

     total energy              =    -735.67369999 Ry
     estimated scf accuracy    <       0.12763293 Ry

     total magnetization       =    -0.03 Bohr mag/cell
     absolute magnetization    =     3.88 Bohr mag/cell

     iteration # 91     ecut=    65.00 Ry     beta= 0.40
     PPCG style diagonalization

---- Real-time Memory Report at c_bands before calling an iterative solver
           133 MiB given to the printing process from OS
            91 MiB allocation reported by mallinfo(arena+hblkhd)
        487418 MiB available memory on the node where the printing process lives
------------------
     ethr =  3.40E-07,  avg # of iterations =  9.8

     negative rho (up, down):  6.598E-02 6.599E-02

     total cpu time spent up to now is      694.5 secs

     total energy              =    -735.78745179 Ry
     estimated scf accuracy    <       0.00039435 Ry

     total magnetization       =     3.60 Bohr mag/cell
     absolute magnetization    =     3.68 Bohr mag/cell

     iteration # 92     ecut=    65.00 Ry     beta= 0.40
     PPCG style diagonalization

---- Real-time Memory Report at c_bands before calling an iterative solver
           133 MiB given to the printing process from OS
            91 MiB allocation reported by mallinfo(arena+hblkhd)
        487418 MiB available memory on the node where the printing process lives
------------------
     ethr =  3.40E-07,  avg # of iterations =  9.3

     negative rho (up, down):  6.599E-02 6.598E-02

     total cpu time spent up to now is      704.2 secs

     total energy              =    -735.80568011 Ry
     estimated scf accuracy    <       0.00357843 Ry

     total magnetization       =     4.67 Bohr mag/cell
     absolute magnetization    =     4.79 Bohr mag/cell

     iteration # 93     ecut=    65.00 Ry     beta= 0.40
     PPCG style diagonalization

---- Real-time Memory Report at c_bands before calling an iterative solver
           133 MiB given to the printing process from OS
            91 MiB allocation reported by mallinfo(arena+hblkhd)
        487418 MiB available memory on the node where the printing process lives
------------------
     ethr =  3.40E-07,  avg # of iterations =  9.3

     negative rho (up, down):  6.600E-02 6.598E-02

     total cpu time spent up to now is      713.8 secs

     total energy              =    -735.81786255 Ry
     estimated scf accuracy    <       0.00039486 Ry

     total magnetization       =     3.65 Bohr mag/cell
     absolute magnetization    =     3.73 Bohr mag/cell

     iteration # 94     ecut=    65.00 Ry     beta= 0.40
     PPCG style diagonalization

---- Real-time Memory Report at c_bands before calling an iterative solver
           133 MiB given to the printing process from OS
            91 MiB allocation reported by mallinfo(arena+hblkhd)
        487417 MiB available memory on the node where the printing process lives
------------------
     ethr =  3.40E-07,  avg # of iterations =  9.0

     negative rho (up, down):  6.600E-02 6.598E-02

     total cpu time spent up to now is      723.0 secs

     total energy              =    -735.82467868 Ry
     estimated scf accuracy    <       0.00073772 Ry

     total magnetization       =     2.80 Bohr mag/cell
     absolute magnetization    =     2.89 Bohr mag/cell

     iteration # 95     ecut=    65.00 Ry     beta= 0.40
     PPCG style diagonalization

---- Real-time Memory Report at c_bands before calling an iterative solver
           133 MiB given to the printing process from OS
            91 MiB allocation reported by mallinfo(arena+hblkhd)
        487417 MiB available memory on the node where the printing process lives
------------------
     ethr =  3.40E-07,  avg # of iterations =  8.9

     negative rho (up, down):  6.600E-02 6.598E-02

     total cpu time spent up to now is      732.2 secs

     total energy              =    -735.79810436 Ry
     estimated scf accuracy    <       0.00317316 Ry

     total magnetization       =     1.90 Bohr mag/cell
     absolute magnetization    =     2.55 Bohr mag/cell

     iteration # 96     ecut=    65.00 Ry     beta= 0.40
     PPCG style diagonalization

---- Real-time Memory Report at c_bands before calling an iterative solver
           133 MiB given to the printing process from OS
            91 MiB allocation reported by mallinfo(arena+hblkhd)
        487417 MiB available memory on the node where the printing process lives
------------------
     ethr =  3.40E-07,  avg # of iterations =  9.2

     negative rho (up, down):  6.599E-02 6.598E-02

     total cpu time spent up to now is      741.7 secs

     total energy              =    -735.82180665 Ry
     estimated scf accuracy    <       0.00035291 Ry

     total magnetization       =     3.42 Bohr mag/cell
     absolute magnetization    =     3.50 Bohr mag/cell

     iteration # 97     ecut=    65.00 Ry     beta= 0.40
     PPCG style diagonalization

---- Real-time Memory Report at c_bands before calling an iterative solver
           133 MiB given to the printing process from OS
            91 MiB allocation reported by mallinfo(arena+hblkhd)
        487417 MiB available memory on the node where the printing process lives
------------------
     ethr =  3.40E-07,  avg # of iterations =  5.9

     negative rho (up, down):  6.599E-02 6.598E-02

     total cpu time spent up to now is      748.3 secs

     total energy              =    -735.82094104 Ry
     estimated scf accuracy    <       0.00036346 Ry

     total magnetization       =     3.57 Bohr mag/cell
     absolute magnetization    =     3.65 Bohr mag/cell

     iteration # 98     ecut=    65.00 Ry     beta= 0.40
     PPCG style diagonalization

---- Real-time Memory Report at c_bands before calling an iterative solver
           133 MiB given to the printing process from OS
            91 MiB allocation reported by mallinfo(arena+hblkhd)
        487417 MiB available memory on the node where the printing process lives
------------------
     ethr =  3.40E-07,  avg # of iterations =  7.3

     negative rho (up, down):  6.599E-02 6.598E-02

     total cpu time spent up to now is      756.7 secs

     total energy              =    -735.82172966 Ry
     estimated scf accuracy    <       0.00041754 Ry

     total magnetization       =     3.72 Bohr mag/cell
     absolute magnetization    =     3.80 Bohr mag/cell

     iteration # 99     ecut=    65.00 Ry     beta= 0.40
     PPCG style diagonalization

---- Real-time Memory Report at c_bands before calling an iterative solver
           133 MiB given to the printing process from OS
            91 MiB allocation reported by mallinfo(arena+hblkhd)
        487426 MiB available memory on the node where the printing process lives
------------------
     ethr =  3.40E-07,  avg # of iterations =  5.2

     negative rho (up, down):  6.600E-02 6.598E-02

     total cpu time spent up to now is      762.3 secs

     total energy              =    -735.82155959 Ry
     estimated scf accuracy    <       0.00036703 Ry

     total magnetization       =     3.60 Bohr mag/cell
     absolute magnetization    =     3.68 Bohr mag/cell

     iteration #100     ecut=    65.00 Ry     beta= 0.40
     PPCG style diagonalization

---- Real-time Memory Report at c_bands before calling an iterative solver
           133 MiB given to the printing process from OS
            91 MiB allocation reported by mallinfo(arena+hblkhd)
        487426 MiB available memory on the node where the printing process lives
------------------
     ethr =  3.40E-07,  avg # of iterations =  8.3

     negative rho (up, down):  6.600E-02 6.598E-02

     total cpu time spent up to now is      771.1 secs

     total energy              =    -735.82437794 Ry
     estimated scf accuracy    <       0.00043122 Ry

     total magnetization       =     3.13 Bohr mag/cell
     absolute magnetization    =     3.21 Bohr mag/cell

     End of self-consistent calculation

     convergence NOT achieved after 100 iterations: stopping

     Writing config to output data dir ./out/aiida.save/ :
     XML data file, charge density

     init_run     :      2.63s CPU      2.82s WALL (       1 calls)
     electrons    :    729.00s CPU    767.92s WALL (       1 calls)

     Called by init_run:
     wfcinit      :      0.93s CPU      1.00s WALL (       1 calls)
     wfcinit:atom :      0.01s CPU      0.01s WALL (      14 calls)
     wfcinit:wfcr :      0.85s CPU      0.91s WALL (      14 calls)
     potinit      :      0.66s CPU      0.74s WALL (       1 calls)
     hinit0       :      0.89s CPU      0.91s WALL (       1 calls)

     Called by electrons:
     c_bands      :    656.35s CPU    691.90s WALL (     100 calls)
     sum_band     :     42.69s CPU     45.39s WALL (     100 calls)
     v_of_rho     :     17.20s CPU     17.51s WALL (     101 calls)
     v_h          :      0.64s CPU      0.65s WALL (     101 calls)
     v_xc         :     16.57s CPU     16.86s WALL (     101 calls)
     newd         :      5.82s CPU      5.88s WALL (     101 calls)
     PAW_pot      :      2.86s CPU      2.86s WALL (     101 calls)
     mix_rho      :      1.64s CPU      1.70s WALL (     100 calls)

     Called by c_bands:
     init_us_2    :      3.17s CPU      3.27s WALL (    2814 calls)
     init_us_2:cp :      3.16s CPU      3.26s WALL (    2814 calls)
     ppcg_k       :    508.75s CPU    538.91s WALL (    1400 calls)
     wfcrot       :     63.52s CPU     68.02s WALL (    1400 calls)

     Called by sum_band:
     sum_band:wei :      0.13s CPU      0.14s WALL (     100 calls)
     sum_band:loo :     30.93s CPU     33.25s WALL (     100 calls)
     sum_band:buf :      0.58s CPU      0.59s WALL (    1400 calls)
     sum_band:ini :      1.15s CPU      1.15s WALL (    1400 calls)
     sum_band:cal :      3.22s CPU      3.24s WALL (    1400 calls)
     sum_band:bec :      0.07s CPU      0.07s WALL (    1400 calls)
     addusdens    :      9.29s CPU      9.36s WALL (     100 calls)
                                        0.00s GPU  (     100 calls)
     addusd:skk   :      0.04s CPU      0.04s WALL (     300 calls)
                                        0.00s GPU  (     300 calls)

     Called by ppcg_*:
     ppcg:zgemm   :    110.36s CPU    112.99s WALL (  781066 calls)
     ppcg:hpsi    :    340.18s CPU    366.73s WALL (   10158 calls)
     ppcg:cholQR  :     11.80s CPU     11.91s WALL (    8119 calls)
     ppcg:RR      :     15.11s CPU     15.26s WALL (    1754 calls)
     ppcg:ZTRSM   :      8.40s CPU      8.49s WALL (   16238 calls)
     ppcg:lock    :      0.30s CPU      0.31s WALL (    3154 calls)
     h_psi        :    372.67s CPU    403.31s WALL (   11558 calls)
     s_psi        :     18.02s CPU     18.12s WALL (   11558 calls)

     Called by h_psi:
     h_psi:calbec :     27.32s CPU     27.73s WALL (   11558 calls)
     vloc_psi     :    324.28s CPU    354.19s WALL (   11558 calls)
     add_vuspsi   :     19.07s CPU     19.31s WALL (   11558 calls)

     General routines
     calbec       :     30.50s CPU     30.92s WALL (   12958 calls)
     fft          :      6.38s CPU      6.78s WALL (    2523 calls)
     ffts         :      0.72s CPU      0.75s WALL (     402 calls)
     fftw         :    275.37s CPU    303.76s WALL ( 1163024 calls)
     interpolate  :      1.14s CPU      1.19s WALL (     202 calls)
     davcio       :      0.00s CPU      0.33s WALL (      32 calls)

     Parallel routines

     PAW routines
     PAW_pot      :      2.86s CPU      2.86s WALL (     101 calls)
     PAW_symme    :      0.04s CPU      0.04s WALL (     200 calls)

     PWSCF        :  12m12.28s CPU  12m52.08s WALL


   This run was terminated on:  23: 1: 4  19Dec2023            

=------------------------------------------------------------------------------=
   JOB DONE.
=------------------------------------------------------------------------------=
