
     Program PWSCF v.7.2 starts on 23Oct2023 at 17:29:34 

     This program is part of the open-source Quantum ESPRESSO suite
     for quantum simulation of materials; please cite
         "P. Giannozzi et al., J. Phys.:Condens. Matter 21 395502 (2009);
         "P. Giannozzi et al., J. Phys.:Condens. Matter 29 465901 (2017);
         "P. Giannozzi et al., J. Chem. Phys. 152 154105 (2020);
          URL http://www.quantum-espresso.org", 
     in publications or presentations arising from this work. More details at
     http://www.quantum-espresso.org/quote

     Parallel version (MPI & OpenMP), running on      12 processor cores
     Number of MPI processes:                 1
     Threads/MPI process:                    12

     MPI processes distributed on     1 nodes
     60225 MiB available memory on the printing compute node when the environment starts
 
     Reading input from aiida.in

     Current dimensions of program PWSCF are:
     Max number of different atomic species (ntypx) = 10
     Max number of k-points (npk) =  40000
     Max angular momentum in pseudopotentials (lmaxx) =  4
     Message from routine setup:
     using ibrav=0 with symmetry is DISCOURAGED, use correct ibrav instead
 
     Subspace diagonalization in iterative solution of the eigenvalue problem:
     a serial algorithm will be used

 
     G-vector sticks info
     --------------------
     sticks:   dense  smooth     PW     G-vecs:    dense   smooth      PW
     Sum        1481     749    225                42579    15075    2537
 
     Using Slab Decomposition
 


     bravais-lattice index     =            0
     lattice parameter (alat)  =       7.2169  a.u.
     unit-cell volume          =     368.6920 (a.u.)^3
     number of atoms/cell      =            4
     number of atomic types    =            3
     number of electrons       =        63.00
     number of Kohn-Sham states=           38
     kinetic-energy cutoff     =      45.0000  Ry
     charge density cutoff     =     360.0000  Ry
     scf convergence threshold =      8.0E-10
     mixing beta               =       0.4000
     number of iterations used =            8  plain     mixing
     Exchange-correlation= SLA  PW   PSX  PSC
                           (   1   4  10   8   0   0   0)

     GPU acceleration is ACTIVE.


     GPU used by master process:

        Device Number: 0
        Device name: Tesla P100-PCIE-16GB
        Compute capability : 60
        Ratio of single to double precision performance  : 2
        Memory Clock Rate (KHz): 715000
        Memory Bus Width (bits): 4096
        Peak Memory Bandwidth (GB/s): 732.16

     celldm(1)=   7.216864  celldm(2)=   0.000000  celldm(3)=   0.000000
     celldm(4)=   0.000000  celldm(5)=   0.000000  celldm(6)=   0.000000

     crystal axes: (cart. coord. in units of alat)
               a(1) = (   1.000000   0.000000   0.000000 )  
               a(2) = (   0.000000   1.000000   0.000000 )  
               a(3) = (   0.000000   0.000000   0.980885 )  

     reciprocal axes: (cart. coord. in units 2 pi/alat)
               b(1) = (  1.000000  0.000000  0.000000 )  
               b(2) = (  0.000000  1.000000  0.000000 )  
               b(3) = (  0.000000  0.000000  1.019487 )  


     PseudoPot. # 1 for Co read from file:
     ./pseudo/co_pbesol_v1.2.uspp.F.UPF
     MD5 check sum: 3b4cd4e7cc7df4da9fdede0fd33e2193
     Pseudo is Ultrasoft + core correction, Zval = 17.0
     Generated by new atomic code, or converted to UPF format
     Using radial grid of  863 points,  6 beta functions with: 
                l(1) =   0
                l(2) =   0
                l(3) =   1
                l(4) =   1
                l(5) =   2
                l(6) =   2
     Q(r) pseudized with  8 coefficients,  rinner =    1.200   1.200   1.200
                                                       1.200   1.200

     PseudoPot. # 2 for Cr read from file:
     ./pseudo/cr_pbesol_v1.5.uspp.F.UPF
     MD5 check sum: a621641e0be27168676a837af8893d0f
     Pseudo is Ultrasoft + core correction, Zval = 14.0
     Generated by new atomic code, or converted to UPF format
     Using radial grid of  857 points,  6 beta functions with: 
                l(1) =   0
                l(2) =   0
                l(3) =   1
                l(4) =   1
                l(5) =   2
                l(6) =   2
     Q(r) pseudized with  8 coefficients,  rinner =    0.950   0.950   0.950
                                                       0.950   0.950

     PseudoPot. # 3 for Pt read from file:
     ./pseudo/pt_pbesol_v1.4.uspp.F.UPF
     MD5 check sum: d14d547907f752a992688280a7473f8c
     Pseudo is Ultrasoft + core correction, Zval = 16.0
     Generated by new atomic code, or converted to UPF format
     Using radial grid of  985 points,  6 beta functions with: 
                l(1) =   0
                l(2) =   0
                l(3) =   1
                l(4) =   1
                l(5) =   2
                l(6) =   2
     Q(r) pseudized with  8 coefficients,  rinner =    1.300   1.300   1.300
                                                       1.300   1.300

     atomic species   valence    mass     pseudopotential
        Co            17.00    58.93319     Co( 1.00)
        Cr            14.00    51.99610     Cr( 1.00)
        Pt            16.00   195.08400     Pt( 1.00)

     Starting magnetic structure 
     atomic species   magnetization
        Co           0.294
        Cr           0.357
        Pt           0.313

     16 Sym. Ops., with inversion, found


                                    s                        frac. trans.

      isym =  1     identity                                     

 cryst.   s( 1) = (     1          0          0      )
                  (     0          1          0      )
                  (     0          0          1      )

 cart.    s( 1) = (  1.0000000  0.0000000  0.0000000 )
                  (  0.0000000  1.0000000  0.0000000 )
                  (  0.0000000  0.0000000  1.0000000 )


      isym =  2     180 deg rotation - cart. axis [0,0,1]        

 cryst.   s( 2) = (    -1          0          0      )
                  (     0         -1          0      )
                  (     0          0          1      )

 cart.    s( 2) = ( -1.0000000  0.0000000  0.0000000 )
                  (  0.0000000 -1.0000000  0.0000000 )
                  (  0.0000000  0.0000000  1.0000000 )


      isym =  3     180 deg rotation - cart. axis [0,1,0]        

 cryst.   s( 3) = (    -1          0          0      )
                  (     0          1          0      )
                  (     0          0         -1      )

 cart.    s( 3) = ( -1.0000000  0.0000000  0.0000000 )
                  (  0.0000000  1.0000000  0.0000000 )
                  (  0.0000000  0.0000000 -1.0000000 )


      isym =  4     180 deg rotation - cart. axis [1,0,0]        

 cryst.   s( 4) = (     1          0          0      )
                  (     0         -1          0      )
                  (     0          0         -1      )

 cart.    s( 4) = (  1.0000000  0.0000000  0.0000000 )
                  (  0.0000000 -1.0000000  0.0000000 )
                  (  0.0000000  0.0000000 -1.0000000 )


      isym =  5     180 deg rotation - cart. axis [1,1,0]        

 cryst.   s( 5) = (     0          1          0      )
                  (     1          0          0      )
                  (     0          0         -1      )

 cart.    s( 5) = (  0.0000000  1.0000000  0.0000000 )
                  (  1.0000000  0.0000000  0.0000000 )
                  (  0.0000000  0.0000000 -1.0000000 )


      isym =  6     180 deg rotation - cart. axis [1,-1,0]       

 cryst.   s( 6) = (     0         -1          0      )
                  (    -1          0          0      )
                  (     0          0         -1      )

 cart.    s( 6) = (  0.0000000 -1.0000000  0.0000000 )
                  ( -1.0000000  0.0000000  0.0000000 )
                  (  0.0000000  0.0000000 -1.0000000 )


      isym =  7      90 deg rotation - cart. axis [0,0,-1]       

 cryst.   s( 7) = (     0         -1          0      )
                  (     1          0          0      )
                  (     0          0          1      )

 cart.    s( 7) = (  0.0000000  1.0000000  0.0000000 )
                  ( -1.0000000  0.0000000  0.0000000 )
                  (  0.0000000  0.0000000  1.0000000 )


      isym =  8      90 deg rotation - cart. axis [0,0,1]        

 cryst.   s( 8) = (     0          1          0      )
                  (    -1          0          0      )
                  (     0          0          1      )

 cart.    s( 8) = (  0.0000000 -1.0000000  0.0000000 )
                  (  1.0000000  0.0000000  0.0000000 )
                  (  0.0000000  0.0000000  1.0000000 )


      isym =  9     inversion                                    

 cryst.   s( 9) = (    -1          0          0      )
                  (     0         -1          0      )
                  (     0          0         -1      )

 cart.    s( 9) = ( -1.0000000  0.0000000  0.0000000 )
                  (  0.0000000 -1.0000000  0.0000000 )
                  (  0.0000000  0.0000000 -1.0000000 )


      isym = 10     inv. 180 deg rotation - cart. axis [0,0,1]   

 cryst.   s(10) = (     1          0          0      )
                  (     0          1          0      )
                  (     0          0         -1      )

 cart.    s(10) = (  1.0000000  0.0000000  0.0000000 )
                  (  0.0000000  1.0000000  0.0000000 )
                  (  0.0000000  0.0000000 -1.0000000 )


      isym = 11     inv. 180 deg rotation - cart. axis [0,1,0]   

 cryst.   s(11) = (     1          0          0      )
                  (     0         -1          0      )
                  (     0          0          1      )

 cart.    s(11) = (  1.0000000  0.0000000  0.0000000 )
                  (  0.0000000 -1.0000000  0.0000000 )
                  (  0.0000000  0.0000000  1.0000000 )


      isym = 12     inv. 180 deg rotation - cart. axis [1,0,0]   

 cryst.   s(12) = (    -1          0          0      )
                  (     0          1          0      )
                  (     0          0          1      )

 cart.    s(12) = ( -1.0000000  0.0000000  0.0000000 )
                  (  0.0000000  1.0000000  0.0000000 )
                  (  0.0000000  0.0000000  1.0000000 )


      isym = 13     inv. 180 deg rotation - cart. axis [1,1,0]   

 cryst.   s(13) = (     0         -1          0      )
                  (    -1          0          0      )
                  (     0          0          1      )

 cart.    s(13) = (  0.0000000 -1.0000000  0.0000000 )
                  ( -1.0000000  0.0000000  0.0000000 )
                  (  0.0000000  0.0000000  1.0000000 )


      isym = 14     inv. 180 deg rotation - cart. axis [1,-1,0]  

 cryst.   s(14) = (     0          1          0      )
                  (     1          0          0      )
                  (     0          0          1      )

 cart.    s(14) = (  0.0000000  1.0000000  0.0000000 )
                  (  1.0000000  0.0000000  0.0000000 )
                  (  0.0000000  0.0000000  1.0000000 )


      isym = 15     inv.  90 deg rotation - cart. axis [0,0,-1]  

 cryst.   s(15) = (     0          1          0      )
                  (    -1          0          0      )
                  (     0          0         -1      )

 cart.    s(15) = (  0.0000000 -1.0000000  0.0000000 )
                  (  1.0000000  0.0000000  0.0000000 )
                  (  0.0000000  0.0000000 -1.0000000 )


      isym = 16     inv.  90 deg rotation - cart. axis [0,0,1]   

 cryst.   s(16) = (     0         -1          0      )
                  (     1          0          0      )
                  (     0          0         -1      )

 cart.    s(16) = (  0.0000000  1.0000000  0.0000000 )
                  ( -1.0000000  0.0000000  0.0000000 )
                  (  0.0000000  0.0000000 -1.0000000 )


   Cartesian axes

     site n.     atom                  positions (alat units)
         1           Cr  tau(   1) = (   0.0000000   0.0000000   0.0000000  )
         2           Co  tau(   2) = (   0.5000000   0.5000000   0.0000000  )
         3           Pt  tau(   3) = (   0.5000000   0.0000000   0.4904425  )
         4           Pt  tau(   4) = (   0.0000000   0.5000000   0.4904425  )

   Crystallographic axes

     site n.     atom                  positions (cryst. coord.)
         1           Cr  tau(   1) = (  0.0000000  0.0000000  0.0000000  )
         2           Co  tau(   2) = (  0.5000000  0.5000000  0.0000000  )
         3           Pt  tau(   3) = (  0.5000000  0.0000000  0.5000000  )
         4           Pt  tau(   4) = (  0.0000000  0.5000000  0.5000000  )

     number of k points=   147  Marzari-Vanderbilt smearing, width (Ry)=  0.0100
                       cart. coord. in units 2pi/alat
        k(    1) = (   0.0000000   0.0000000   0.0000000), wk =   0.0006887
        k(    2) = (   0.0000000   0.0000000   0.0849573), wk =   0.0013774
        k(    3) = (   0.0000000   0.0000000   0.1699146), wk =   0.0013774
        k(    4) = (   0.0000000   0.0000000   0.2548719), wk =   0.0013774
        k(    5) = (   0.0000000   0.0000000   0.3398292), wk =   0.0013774
        k(    6) = (   0.0000000   0.0000000   0.4247864), wk =   0.0013774
        k(    7) = (   0.0000000   0.0000000  -0.5097437), wk =   0.0006887
        k(    8) = (   0.0000000   0.0909091   0.0000000), wk =   0.0027548
        k(    9) = (   0.0000000   0.0909091   0.0849573), wk =   0.0055096
        k(   10) = (   0.0000000   0.0909091   0.1699146), wk =   0.0055096
        k(   11) = (   0.0000000   0.0909091   0.2548719), wk =   0.0055096
        k(   12) = (   0.0000000   0.0909091   0.3398292), wk =   0.0055096
        k(   13) = (   0.0000000   0.0909091   0.4247864), wk =   0.0055096
        k(   14) = (   0.0000000   0.0909091  -0.5097437), wk =   0.0027548
        k(   15) = (   0.0000000   0.1818182   0.0000000), wk =   0.0027548
        k(   16) = (   0.0000000   0.1818182   0.0849573), wk =   0.0055096
        k(   17) = (   0.0000000   0.1818182   0.1699146), wk =   0.0055096
        k(   18) = (   0.0000000   0.1818182   0.2548719), wk =   0.0055096
        k(   19) = (   0.0000000   0.1818182   0.3398292), wk =   0.0055096
        k(   20) = (   0.0000000   0.1818182   0.4247864), wk =   0.0055096
        k(   21) = (   0.0000000   0.1818182  -0.5097437), wk =   0.0027548
        k(   22) = (   0.0000000   0.2727273   0.0000000), wk =   0.0027548
        k(   23) = (   0.0000000   0.2727273   0.0849573), wk =   0.0055096
        k(   24) = (   0.0000000   0.2727273   0.1699146), wk =   0.0055096
        k(   25) = (   0.0000000   0.2727273   0.2548719), wk =   0.0055096
        k(   26) = (   0.0000000   0.2727273   0.3398292), wk =   0.0055096
        k(   27) = (   0.0000000   0.2727273   0.4247864), wk =   0.0055096
        k(   28) = (   0.0000000   0.2727273  -0.5097437), wk =   0.0027548
        k(   29) = (   0.0000000   0.3636364   0.0000000), wk =   0.0027548
        k(   30) = (   0.0000000   0.3636364   0.0849573), wk =   0.0055096
        k(   31) = (   0.0000000   0.3636364   0.1699146), wk =   0.0055096
        k(   32) = (   0.0000000   0.3636364   0.2548719), wk =   0.0055096
        k(   33) = (   0.0000000   0.3636364   0.3398292), wk =   0.0055096
        k(   34) = (   0.0000000   0.3636364   0.4247864), wk =   0.0055096
        k(   35) = (   0.0000000   0.3636364  -0.5097437), wk =   0.0027548
        k(   36) = (   0.0000000   0.4545455   0.0000000), wk =   0.0027548
        k(   37) = (   0.0000000   0.4545455   0.0849573), wk =   0.0055096
        k(   38) = (   0.0000000   0.4545455   0.1699146), wk =   0.0055096
        k(   39) = (   0.0000000   0.4545455   0.2548719), wk =   0.0055096
        k(   40) = (   0.0000000   0.4545455   0.3398292), wk =   0.0055096
        k(   41) = (   0.0000000   0.4545455   0.4247864), wk =   0.0055096
        k(   42) = (   0.0000000   0.4545455  -0.5097437), wk =   0.0027548
        k(   43) = (   0.0909091   0.0909091   0.0000000), wk =   0.0027548
        k(   44) = (   0.0909091   0.0909091   0.0849573), wk =   0.0055096
        k(   45) = (   0.0909091   0.0909091   0.1699146), wk =   0.0055096
        k(   46) = (   0.0909091   0.0909091   0.2548719), wk =   0.0055096
        k(   47) = (   0.0909091   0.0909091   0.3398292), wk =   0.0055096
        k(   48) = (   0.0909091   0.0909091   0.4247864), wk =   0.0055096
        k(   49) = (   0.0909091   0.0909091  -0.5097437), wk =   0.0027548
        k(   50) = (   0.0909091   0.1818182   0.0000000), wk =   0.0055096
        k(   51) = (   0.0909091   0.1818182   0.0849573), wk =   0.0110193
        k(   52) = (   0.0909091   0.1818182   0.1699146), wk =   0.0110193
        k(   53) = (   0.0909091   0.1818182   0.2548719), wk =   0.0110193
        k(   54) = (   0.0909091   0.1818182   0.3398292), wk =   0.0110193
        k(   55) = (   0.0909091   0.1818182   0.4247864), wk =   0.0110193
        k(   56) = (   0.0909091   0.1818182  -0.5097437), wk =   0.0055096
        k(   57) = (   0.0909091   0.2727273   0.0000000), wk =   0.0055096
        k(   58) = (   0.0909091   0.2727273   0.0849573), wk =   0.0110193
        k(   59) = (   0.0909091   0.2727273   0.1699146), wk =   0.0110193
        k(   60) = (   0.0909091   0.2727273   0.2548719), wk =   0.0110193
        k(   61) = (   0.0909091   0.2727273   0.3398292), wk =   0.0110193
        k(   62) = (   0.0909091   0.2727273   0.4247864), wk =   0.0110193
        k(   63) = (   0.0909091   0.2727273  -0.5097437), wk =   0.0055096
        k(   64) = (   0.0909091   0.3636364   0.0000000), wk =   0.0055096
        k(   65) = (   0.0909091   0.3636364   0.0849573), wk =   0.0110193
        k(   66) = (   0.0909091   0.3636364   0.1699146), wk =   0.0110193
        k(   67) = (   0.0909091   0.3636364   0.2548719), wk =   0.0110193
        k(   68) = (   0.0909091   0.3636364   0.3398292), wk =   0.0110193
        k(   69) = (   0.0909091   0.3636364   0.4247864), wk =   0.0110193
        k(   70) = (   0.0909091   0.3636364  -0.5097437), wk =   0.0055096
        k(   71) = (   0.0909091   0.4545455   0.0000000), wk =   0.0055096
        k(   72) = (   0.0909091   0.4545455   0.0849573), wk =   0.0110193
        k(   73) = (   0.0909091   0.4545455   0.1699146), wk =   0.0110193
        k(   74) = (   0.0909091   0.4545455   0.2548719), wk =   0.0110193
        k(   75) = (   0.0909091   0.4545455   0.3398292), wk =   0.0110193
        k(   76) = (   0.0909091   0.4545455   0.4247864), wk =   0.0110193
        k(   77) = (   0.0909091   0.4545455  -0.5097437), wk =   0.0055096
        k(   78) = (   0.1818182   0.1818182   0.0000000), wk =   0.0027548
        k(   79) = (   0.1818182   0.1818182   0.0849573), wk =   0.0055096
        k(   80) = (   0.1818182   0.1818182   0.1699146), wk =   0.0055096
        k(   81) = (   0.1818182   0.1818182   0.2548719), wk =   0.0055096
        k(   82) = (   0.1818182   0.1818182   0.3398292), wk =   0.0055096
        k(   83) = (   0.1818182   0.1818182   0.4247864), wk =   0.0055096
        k(   84) = (   0.1818182   0.1818182  -0.5097437), wk =   0.0027548
        k(   85) = (   0.1818182   0.2727273   0.0000000), wk =   0.0055096
        k(   86) = (   0.1818182   0.2727273   0.0849573), wk =   0.0110193
        k(   87) = (   0.1818182   0.2727273   0.1699146), wk =   0.0110193
        k(   88) = (   0.1818182   0.2727273   0.2548719), wk =   0.0110193
        k(   89) = (   0.1818182   0.2727273   0.3398292), wk =   0.0110193
        k(   90) = (   0.1818182   0.2727273   0.4247864), wk =   0.0110193
        k(   91) = (   0.1818182   0.2727273  -0.5097437), wk =   0.0055096
        k(   92) = (   0.1818182   0.3636364   0.0000000), wk =   0.0055096
        k(   93) = (   0.1818182   0.3636364   0.0849573), wk =   0.0110193
        k(   94) = (   0.1818182   0.3636364   0.1699146), wk =   0.0110193
        k(   95) = (   0.1818182   0.3636364   0.2548719), wk =   0.0110193
        k(   96) = (   0.1818182   0.3636364   0.3398292), wk =   0.0110193
        k(   97) = (   0.1818182   0.3636364   0.4247864), wk =   0.0110193
        k(   98) = (   0.1818182   0.3636364  -0.5097437), wk =   0.0055096
        k(   99) = (   0.1818182   0.4545455   0.0000000), wk =   0.0055096
        k(  100) = (   0.1818182   0.4545455   0.0849573), wk =   0.0110193
        k(  101) = (   0.1818182   0.4545455   0.1699146), wk =   0.0110193
        k(  102) = (   0.1818182   0.4545455   0.2548719), wk =   0.0110193
        k(  103) = (   0.1818182   0.4545455   0.3398292), wk =   0.0110193
        k(  104) = (   0.1818182   0.4545455   0.4247864), wk =   0.0110193
        k(  105) = (   0.1818182   0.4545455  -0.5097437), wk =   0.0055096
        k(  106) = (   0.2727273   0.2727273   0.0000000), wk =   0.0027548
        k(  107) = (   0.2727273   0.2727273   0.0849573), wk =   0.0055096
        k(  108) = (   0.2727273   0.2727273   0.1699146), wk =   0.0055096
        k(  109) = (   0.2727273   0.2727273   0.2548719), wk =   0.0055096
        k(  110) = (   0.2727273   0.2727273   0.3398292), wk =   0.0055096
        k(  111) = (   0.2727273   0.2727273   0.4247864), wk =   0.0055096
        k(  112) = (   0.2727273   0.2727273  -0.5097437), wk =   0.0027548
        k(  113) = (   0.2727273   0.3636364   0.0000000), wk =   0.0055096
        k(  114) = (   0.2727273   0.3636364   0.0849573), wk =   0.0110193
        k(  115) = (   0.2727273   0.3636364   0.1699146), wk =   0.0110193
        k(  116) = (   0.2727273   0.3636364   0.2548719), wk =   0.0110193
        k(  117) = (   0.2727273   0.3636364   0.3398292), wk =   0.0110193
        k(  118) = (   0.2727273   0.3636364   0.4247864), wk =   0.0110193
        k(  119) = (   0.2727273   0.3636364  -0.5097437), wk =   0.0055096
        k(  120) = (   0.2727273   0.4545455   0.0000000), wk =   0.0055096
        k(  121) = (   0.2727273   0.4545455   0.0849573), wk =   0.0110193
        k(  122) = (   0.2727273   0.4545455   0.1699146), wk =   0.0110193
        k(  123) = (   0.2727273   0.4545455   0.2548719), wk =   0.0110193
        k(  124) = (   0.2727273   0.4545455   0.3398292), wk =   0.0110193
        k(  125) = (   0.2727273   0.4545455   0.4247864), wk =   0.0110193
        k(  126) = (   0.2727273   0.4545455  -0.5097437), wk =   0.0055096
        k(  127) = (   0.3636364   0.3636364   0.0000000), wk =   0.0027548
        k(  128) = (   0.3636364   0.3636364   0.0849573), wk =   0.0055096
        k(  129) = (   0.3636364   0.3636364   0.1699146), wk =   0.0055096
        k(  130) = (   0.3636364   0.3636364   0.2548719), wk =   0.0055096
        k(  131) = (   0.3636364   0.3636364   0.3398292), wk =   0.0055096
        k(  132) = (   0.3636364   0.3636364   0.4247864), wk =   0.0055096
        k(  133) = (   0.3636364   0.3636364  -0.5097437), wk =   0.0027548
        k(  134) = (   0.3636364   0.4545455   0.0000000), wk =   0.0055096
        k(  135) = (   0.3636364   0.4545455   0.0849573), wk =   0.0110193
        k(  136) = (   0.3636364   0.4545455   0.1699146), wk =   0.0110193
        k(  137) = (   0.3636364   0.4545455   0.2548719), wk =   0.0110193
        k(  138) = (   0.3636364   0.4545455   0.3398292), wk =   0.0110193
        k(  139) = (   0.3636364   0.4545455   0.4247864), wk =   0.0110193
        k(  140) = (   0.3636364   0.4545455  -0.5097437), wk =   0.0055096
        k(  141) = (   0.4545455   0.4545455   0.0000000), wk =   0.0027548
        k(  142) = (   0.4545455   0.4545455   0.0849573), wk =   0.0055096
        k(  143) = (   0.4545455   0.4545455   0.1699146), wk =   0.0055096
        k(  144) = (   0.4545455   0.4545455   0.2548719), wk =   0.0055096
        k(  145) = (   0.4545455   0.4545455   0.3398292), wk =   0.0055096
        k(  146) = (   0.4545455   0.4545455   0.4247864), wk =   0.0055096
        k(  147) = (   0.4545455   0.4545455  -0.5097437), wk =   0.0027548

                       cryst. coord.
        k(    1) = (   0.0000000   0.0000000   0.0000000), wk =   0.0006887
        k(    2) = (   0.0000000   0.0000000   0.0833333), wk =   0.0013774
        k(    3) = (   0.0000000   0.0000000   0.1666667), wk =   0.0013774
        k(    4) = (   0.0000000   0.0000000   0.2500000), wk =   0.0013774
        k(    5) = (   0.0000000   0.0000000   0.3333333), wk =   0.0013774
        k(    6) = (   0.0000000   0.0000000   0.4166667), wk =   0.0013774
        k(    7) = (   0.0000000   0.0000000  -0.5000000), wk =   0.0006887
        k(    8) = (   0.0000000   0.0909091   0.0000000), wk =   0.0027548
        k(    9) = (   0.0000000   0.0909091   0.0833333), wk =   0.0055096
        k(   10) = (   0.0000000   0.0909091   0.1666667), wk =   0.0055096
        k(   11) = (   0.0000000   0.0909091   0.2500000), wk =   0.0055096
        k(   12) = (   0.0000000   0.0909091   0.3333333), wk =   0.0055096
        k(   13) = (   0.0000000   0.0909091   0.4166667), wk =   0.0055096
        k(   14) = (   0.0000000   0.0909091  -0.5000000), wk =   0.0027548
        k(   15) = (   0.0000000   0.1818182   0.0000000), wk =   0.0027548
        k(   16) = (   0.0000000   0.1818182   0.0833333), wk =   0.0055096
        k(   17) = (   0.0000000   0.1818182   0.1666667), wk =   0.0055096
        k(   18) = (   0.0000000   0.1818182   0.2500000), wk =   0.0055096
        k(   19) = (   0.0000000   0.1818182   0.3333333), wk =   0.0055096
        k(   20) = (   0.0000000   0.1818182   0.4166667), wk =   0.0055096
        k(   21) = (   0.0000000   0.1818182  -0.5000000), wk =   0.0027548
        k(   22) = (   0.0000000   0.2727273   0.0000000), wk =   0.0027548
        k(   23) = (   0.0000000   0.2727273   0.0833333), wk =   0.0055096
        k(   24) = (   0.0000000   0.2727273   0.1666667), wk =   0.0055096
        k(   25) = (   0.0000000   0.2727273   0.2500000), wk =   0.0055096
        k(   26) = (   0.0000000   0.2727273   0.3333333), wk =   0.0055096
        k(   27) = (   0.0000000   0.2727273   0.4166667), wk =   0.0055096
        k(   28) = (   0.0000000   0.2727273  -0.5000000), wk =   0.0027548
        k(   29) = (   0.0000000   0.3636364   0.0000000), wk =   0.0027548
        k(   30) = (   0.0000000   0.3636364   0.0833333), wk =   0.0055096
        k(   31) = (   0.0000000   0.3636364   0.1666667), wk =   0.0055096
        k(   32) = (   0.0000000   0.3636364   0.2500000), wk =   0.0055096
        k(   33) = (   0.0000000   0.3636364   0.3333333), wk =   0.0055096
        k(   34) = (   0.0000000   0.3636364   0.4166667), wk =   0.0055096
        k(   35) = (   0.0000000   0.3636364  -0.5000000), wk =   0.0027548
        k(   36) = (   0.0000000   0.4545455   0.0000000), wk =   0.0027548
        k(   37) = (   0.0000000   0.4545455   0.0833333), wk =   0.0055096
        k(   38) = (   0.0000000   0.4545455   0.1666667), wk =   0.0055096
        k(   39) = (   0.0000000   0.4545455   0.2500000), wk =   0.0055096
        k(   40) = (   0.0000000   0.4545455   0.3333333), wk =   0.0055096
        k(   41) = (   0.0000000   0.4545455   0.4166667), wk =   0.0055096
        k(   42) = (   0.0000000   0.4545455  -0.5000000), wk =   0.0027548
        k(   43) = (   0.0909091   0.0909091   0.0000000), wk =   0.0027548
        k(   44) = (   0.0909091   0.0909091   0.0833333), wk =   0.0055096
        k(   45) = (   0.0909091   0.0909091   0.1666667), wk =   0.0055096
        k(   46) = (   0.0909091   0.0909091   0.2500000), wk =   0.0055096
        k(   47) = (   0.0909091   0.0909091   0.3333333), wk =   0.0055096
        k(   48) = (   0.0909091   0.0909091   0.4166667), wk =   0.0055096
        k(   49) = (   0.0909091   0.0909091  -0.5000000), wk =   0.0027548
        k(   50) = (   0.0909091   0.1818182   0.0000000), wk =   0.0055096
        k(   51) = (   0.0909091   0.1818182   0.0833333), wk =   0.0110193
        k(   52) = (   0.0909091   0.1818182   0.1666667), wk =   0.0110193
        k(   53) = (   0.0909091   0.1818182   0.2500000), wk =   0.0110193
        k(   54) = (   0.0909091   0.1818182   0.3333333), wk =   0.0110193
        k(   55) = (   0.0909091   0.1818182   0.4166667), wk =   0.0110193
        k(   56) = (   0.0909091   0.1818182  -0.5000000), wk =   0.0055096
        k(   57) = (   0.0909091   0.2727273   0.0000000), wk =   0.0055096
        k(   58) = (   0.0909091   0.2727273   0.0833333), wk =   0.0110193
        k(   59) = (   0.0909091   0.2727273   0.1666667), wk =   0.0110193
        k(   60) = (   0.0909091   0.2727273   0.2500000), wk =   0.0110193
        k(   61) = (   0.0909091   0.2727273   0.3333333), wk =   0.0110193
        k(   62) = (   0.0909091   0.2727273   0.4166667), wk =   0.0110193
        k(   63) = (   0.0909091   0.2727273  -0.5000000), wk =   0.0055096
        k(   64) = (   0.0909091   0.3636364   0.0000000), wk =   0.0055096
        k(   65) = (   0.0909091   0.3636364   0.0833333), wk =   0.0110193
        k(   66) = (   0.0909091   0.3636364   0.1666667), wk =   0.0110193
        k(   67) = (   0.0909091   0.3636364   0.2500000), wk =   0.0110193
        k(   68) = (   0.0909091   0.3636364   0.3333333), wk =   0.0110193
        k(   69) = (   0.0909091   0.3636364   0.4166667), wk =   0.0110193
        k(   70) = (   0.0909091   0.3636364  -0.5000000), wk =   0.0055096
        k(   71) = (   0.0909091   0.4545455   0.0000000), wk =   0.0055096
        k(   72) = (   0.0909091   0.4545455   0.0833333), wk =   0.0110193
        k(   73) = (   0.0909091   0.4545455   0.1666667), wk =   0.0110193
        k(   74) = (   0.0909091   0.4545455   0.2500000), wk =   0.0110193
        k(   75) = (   0.0909091   0.4545455   0.3333333), wk =   0.0110193
        k(   76) = (   0.0909091   0.4545455   0.4166667), wk =   0.0110193
        k(   77) = (   0.0909091   0.4545455  -0.5000000), wk =   0.0055096
        k(   78) = (   0.1818182   0.1818182   0.0000000), wk =   0.0027548
        k(   79) = (   0.1818182   0.1818182   0.0833333), wk =   0.0055096
        k(   80) = (   0.1818182   0.1818182   0.1666667), wk =   0.0055096
        k(   81) = (   0.1818182   0.1818182   0.2500000), wk =   0.0055096
        k(   82) = (   0.1818182   0.1818182   0.3333333), wk =   0.0055096
        k(   83) = (   0.1818182   0.1818182   0.4166667), wk =   0.0055096
        k(   84) = (   0.1818182   0.1818182  -0.5000000), wk =   0.0027548
        k(   85) = (   0.1818182   0.2727273   0.0000000), wk =   0.0055096
        k(   86) = (   0.1818182   0.2727273   0.0833333), wk =   0.0110193
        k(   87) = (   0.1818182   0.2727273   0.1666667), wk =   0.0110193
        k(   88) = (   0.1818182   0.2727273   0.2500000), wk =   0.0110193
        k(   89) = (   0.1818182   0.2727273   0.3333333), wk =   0.0110193
        k(   90) = (   0.1818182   0.2727273   0.4166667), wk =   0.0110193
        k(   91) = (   0.1818182   0.2727273  -0.5000000), wk =   0.0055096
        k(   92) = (   0.1818182   0.3636364   0.0000000), wk =   0.0055096
        k(   93) = (   0.1818182   0.3636364   0.0833333), wk =   0.0110193
        k(   94) = (   0.1818182   0.3636364   0.1666667), wk =   0.0110193
        k(   95) = (   0.1818182   0.3636364   0.2500000), wk =   0.0110193
        k(   96) = (   0.1818182   0.3636364   0.3333333), wk =   0.0110193
        k(   97) = (   0.1818182   0.3636364   0.4166667), wk =   0.0110193
        k(   98) = (   0.1818182   0.3636364  -0.5000000), wk =   0.0055096
        k(   99) = (   0.1818182   0.4545455   0.0000000), wk =   0.0055096
        k(  100) = (   0.1818182   0.4545455   0.0833333), wk =   0.0110193
        k(  101) = (   0.1818182   0.4545455   0.1666667), wk =   0.0110193
        k(  102) = (   0.1818182   0.4545455   0.2500000), wk =   0.0110193
        k(  103) = (   0.1818182   0.4545455   0.3333333), wk =   0.0110193
        k(  104) = (   0.1818182   0.4545455   0.4166667), wk =   0.0110193
        k(  105) = (   0.1818182   0.4545455  -0.5000000), wk =   0.0055096
        k(  106) = (   0.2727273   0.2727273   0.0000000), wk =   0.0027548
        k(  107) = (   0.2727273   0.2727273   0.0833333), wk =   0.0055096
        k(  108) = (   0.2727273   0.2727273   0.1666667), wk =   0.0055096
        k(  109) = (   0.2727273   0.2727273   0.2500000), wk =   0.0055096
        k(  110) = (   0.2727273   0.2727273   0.3333333), wk =   0.0055096
        k(  111) = (   0.2727273   0.2727273   0.4166667), wk =   0.0055096
        k(  112) = (   0.2727273   0.2727273  -0.5000000), wk =   0.0027548
        k(  113) = (   0.2727273   0.3636364   0.0000000), wk =   0.0055096
        k(  114) = (   0.2727273   0.3636364   0.0833333), wk =   0.0110193
        k(  115) = (   0.2727273   0.3636364   0.1666667), wk =   0.0110193
        k(  116) = (   0.2727273   0.3636364   0.2500000), wk =   0.0110193
        k(  117) = (   0.2727273   0.3636364   0.3333333), wk =   0.0110193
        k(  118) = (   0.2727273   0.3636364   0.4166667), wk =   0.0110193
        k(  119) = (   0.2727273   0.3636364  -0.5000000), wk =   0.0055096
        k(  120) = (   0.2727273   0.4545455   0.0000000), wk =   0.0055096
        k(  121) = (   0.2727273   0.4545455   0.0833333), wk =   0.0110193
        k(  122) = (   0.2727273   0.4545455   0.1666667), wk =   0.0110193
        k(  123) = (   0.2727273   0.4545455   0.2500000), wk =   0.0110193
        k(  124) = (   0.2727273   0.4545455   0.3333333), wk =   0.0110193
        k(  125) = (   0.2727273   0.4545455   0.4166667), wk =   0.0110193
        k(  126) = (   0.2727273   0.4545455  -0.5000000), wk =   0.0055096
        k(  127) = (   0.3636364   0.3636364   0.0000000), wk =   0.0027548
        k(  128) = (   0.3636364   0.3636364   0.0833333), wk =   0.0055096
        k(  129) = (   0.3636364   0.3636364   0.1666667), wk =   0.0055096
        k(  130) = (   0.3636364   0.3636364   0.2500000), wk =   0.0055096
        k(  131) = (   0.3636364   0.3636364   0.3333333), wk =   0.0055096
        k(  132) = (   0.3636364   0.3636364   0.4166667), wk =   0.0055096
        k(  133) = (   0.3636364   0.3636364  -0.5000000), wk =   0.0027548
        k(  134) = (   0.3636364   0.4545455   0.0000000), wk =   0.0055096
        k(  135) = (   0.3636364   0.4545455   0.0833333), wk =   0.0110193
        k(  136) = (   0.3636364   0.4545455   0.1666667), wk =   0.0110193
        k(  137) = (   0.3636364   0.4545455   0.2500000), wk =   0.0110193
        k(  138) = (   0.3636364   0.4545455   0.3333333), wk =   0.0110193
        k(  139) = (   0.3636364   0.4545455   0.4166667), wk =   0.0110193
        k(  140) = (   0.3636364   0.4545455  -0.5000000), wk =   0.0055096
        k(  141) = (   0.4545455   0.4545455   0.0000000), wk =   0.0027548
        k(  142) = (   0.4545455   0.4545455   0.0833333), wk =   0.0055096
        k(  143) = (   0.4545455   0.4545455   0.1666667), wk =   0.0055096
        k(  144) = (   0.4545455   0.4545455   0.2500000), wk =   0.0055096
        k(  145) = (   0.4545455   0.4545455   0.3333333), wk =   0.0055096
        k(  146) = (   0.4545455   0.4545455   0.4166667), wk =   0.0055096
        k(  147) = (   0.4545455   0.4545455  -0.5000000), wk =   0.0027548

     Dense  grid:    42579 G-vectors     FFT dimensions: (  45,  45,  45)

     Smooth grid:    15075 G-vectors     FFT dimensions: (  32,  32,  32)

     Dynamical RAM for                 wfc:       1.09 MB

     Dynamical RAM for     wfc (w. buffer):     321.40 MB

     Dynamical RAM for           str. fact:       1.95 MB

     Dynamical RAM for           local pot:       0.00 MB

     Dynamical RAM for          nlocal pot:       2.06 MB

     Dynamical RAM for                qrad:       4.57 MB

     Dynamical RAM for          rho,v,vnew:       8.07 MB

     Dynamical RAM for               rhoin:       2.69 MB

     Dynamical RAM for            rho*nmix:      20.79 MB

     Dynamical RAM for           G-vectors:       2.55 MB

     Dynamical RAM for          h,s,v(r/c):       0.26 MB

     Dynamical RAM for          <psi|beta>:       0.04 MB

     Dynamical RAM for                 psi:       2.18 MB

     Dynamical RAM for                hpsi:       2.18 MB

     Dynamical RAM for                spsi:       2.18 MB

     Dynamical RAM for      wfcinit/wfcrot:       2.75 MB

     Dynamical RAM for           addusdens:     122.79 MB

     Dynamical RAM for          addusforce:     124.11 MB

     Dynamical RAM for         addusstress:     131.57 MB

     Estimated static dynamical RAM per process >     350.07 MB

     Estimated max dynamical RAM per process >     502.42 MB

     Check: negative core charge=   -0.000007
     Generating pointlists ...
     new r_m :   0.2889 (alat units)  2.0850 (a.u.) for type    1
     new r_m :   0.2889 (alat units)  2.0850 (a.u.) for type    2
     new r_m :   0.2889 (alat units)  2.0850 (a.u.) for type    3

     Initial potential from superposition of free atoms

     starting charge      60.0000, renormalised to      63.0000

     negative rho (up, down):  2.501E-01 1.310E-01
     Starting wfcs are   47 randomized atomic wfcs

     total cpu time spent up to now is        5.8 secs

     per-process dynamical memory:  1021.5 Mb

     Self-consistent Calculation
[tb_dev] Currently allocated     1.21E+00 Mbytes, locked:    0 /  10
[tb_pin] Currently allocated     0.00E+00 Mbytes, locked:    0 /   0

     iteration #  1     ecut=    45.00 Ry     beta= 0.40
     Davidson diagonalization with overlap

---- Real-time Memory Report at c_bands before calling an iterative solver
          1155 MiB given to the printing process from OS
           997 MiB allocation reported by mallinfo(arena+hblkhd)
         58575 MiB available memory on the node where the printing process lives
     GPU memory used/free/total (MiB): 790 / 15490 / 16280
------------------
     ethr =  1.00E-02,  avg # of iterations =  2.3

     negative rho (up, down):  2.135E-01 1.359E-01

     total cpu time spent up to now is       12.0 secs

     total energy              =    -884.61061868 Ry
     estimated scf accuracy    <      23.34187965 Ry

     total magnetization       =     6.51 Bohr mag/cell
     absolute magnetization    =     6.69 Bohr mag/cell
[tb_dev] Currently allocated     7.95E-01 Mbytes, locked:    0 /   8
[tb_pin] Currently allocated     0.00E+00 Mbytes, locked:    0 /   0

     iteration #  2     ecut=    45.00 Ry     beta= 0.40
     Davidson diagonalization with overlap

---- Real-time Memory Report at c_bands before calling an iterative solver
          1208 MiB given to the printing process from OS
          1014 MiB allocation reported by mallinfo(arena+hblkhd)
         58562 MiB available memory on the node where the printing process lives
     GPU memory used/free/total (MiB): 960 / 15320 / 16280
------------------
     ethr =  1.00E-02,  avg # of iterations =  5.1

     negative rho (up, down):  2.080E-01 1.425E-01

     total cpu time spent up to now is       22.1 secs

     total energy              =    -894.42621315 Ry
     estimated scf accuracy    <      40.09032490 Ry

     total magnetization       =     0.79 Bohr mag/cell
     absolute magnetization    =     1.02 Bohr mag/cell
[tb_dev] Currently allocated     7.95E-01 Mbytes, locked:    0 /   8
[tb_pin] Currently allocated     0.00E+00 Mbytes, locked:    0 /   0

     iteration #  3     ecut=    45.00 Ry     beta= 0.40
     Davidson diagonalization with overlap

---- Real-time Memory Report at c_bands before calling an iterative solver
          1211 MiB given to the printing process from OS
          1014 MiB allocation reported by mallinfo(arena+hblkhd)
         58563 MiB available memory on the node where the printing process lives
     GPU memory used/free/total (MiB): 966 / 15314 / 16280
------------------
     ethr =  1.00E-02,  avg # of iterations =  3.6

     negative rho (up, down):  2.009E-01 1.486E-01

     total cpu time spent up to now is       30.6 secs

     total energy              =    -892.33137588 Ry
     estimated scf accuracy    <      13.62745450 Ry

     total magnetization       =     0.90 Bohr mag/cell
     absolute magnetization    =     1.13 Bohr mag/cell
[tb_dev] Currently allocated     7.95E-01 Mbytes, locked:    0 /   8
[tb_pin] Currently allocated     0.00E+00 Mbytes, locked:    0 /   0

     iteration #  4     ecut=    45.00 Ry     beta= 0.40
     Davidson diagonalization with overlap

---- Real-time Memory Report at c_bands before calling an iterative solver
          1213 MiB given to the printing process from OS
          1014 MiB allocation reported by mallinfo(arena+hblkhd)
         58562 MiB available memory on the node where the printing process lives
     GPU memory used/free/total (MiB): 966 / 15314 / 16280
------------------
     ethr =  1.00E-02,  avg # of iterations =  4.0

     negative rho (up, down):  1.920E-01 1.547E-01

     total cpu time spent up to now is       39.7 secs

     total energy              =    -892.93171867 Ry
     estimated scf accuracy    <      29.10362548 Ry

     total magnetization       =     3.40 Bohr mag/cell
     absolute magnetization    =     3.67 Bohr mag/cell
[tb_dev] Currently allocated     7.95E-01 Mbytes, locked:    0 /   8
[tb_pin] Currently allocated     0.00E+00 Mbytes, locked:    0 /   0

     iteration #  5     ecut=    45.00 Ry     beta= 0.40
     Davidson diagonalization with overlap

---- Real-time Memory Report at c_bands before calling an iterative solver
          1216 MiB given to the printing process from OS
          1014 MiB allocation reported by mallinfo(arena+hblkhd)
         58560 MiB available memory on the node where the printing process lives
     GPU memory used/free/total (MiB): 966 / 15314 / 16280
------------------
     ethr =  1.00E-02,  avg # of iterations =  1.6

     negative rho (up, down):  1.794E-01 1.628E-01

     total cpu time spent up to now is       44.9 secs

     total energy              =    -893.71043209 Ry
     estimated scf accuracy    <       3.23220863 Ry

     total magnetization       =     2.07 Bohr mag/cell
     absolute magnetization    =     2.35 Bohr mag/cell
[tb_dev] Currently allocated     7.95E-01 Mbytes, locked:    0 /   8
[tb_pin] Currently allocated     0.00E+00 Mbytes, locked:    0 /   0

     iteration #  6     ecut=    45.00 Ry     beta= 0.40
     Davidson diagonalization with overlap

---- Real-time Memory Report at c_bands before calling an iterative solver
          1217 MiB given to the printing process from OS
          1022 MiB allocation reported by mallinfo(arena+hblkhd)
         58560 MiB available memory on the node where the printing process lives
     GPU memory used/free/total (MiB): 966 / 15314 / 16280
------------------
     ethr =  5.13E-03,  avg # of iterations =  2.3

     negative rho (up, down):  1.738E-01 1.679E-01

     total cpu time spent up to now is       51.0 secs

     total energy              =    -895.38439203 Ry
     estimated scf accuracy    <      48.51687957 Ry

     total magnetization       =     0.38 Bohr mag/cell
     absolute magnetization    =     0.51 Bohr mag/cell
[tb_dev] Currently allocated     7.95E-01 Mbytes, locked:    0 /   8
[tb_pin] Currently allocated     0.00E+00 Mbytes, locked:    0 /   0

     iteration #  7     ecut=    45.00 Ry     beta= 0.40
     Davidson diagonalization with overlap

---- Real-time Memory Report at c_bands before calling an iterative solver
          1219 MiB given to the printing process from OS
          1022 MiB allocation reported by mallinfo(arena+hblkhd)
         58557 MiB available memory on the node where the printing process lives
     GPU memory used/free/total (MiB): 966 / 15314 / 16280
------------------
     ethr =  5.13E-03,  avg # of iterations =  1.1

     negative rho (up, down):  1.721E-01 1.700E-01

     total cpu time spent up to now is       55.7 secs

     total energy              =    -893.20740836 Ry
     estimated scf accuracy    <      26.88503775 Ry

     total magnetization       =     1.15 Bohr mag/cell
     absolute magnetization    =     1.31 Bohr mag/cell
[tb_dev] Currently allocated     7.95E-01 Mbytes, locked:    0 /   8
[tb_pin] Currently allocated     0.00E+00 Mbytes, locked:    0 /   0

     iteration #  8     ecut=    45.00 Ry     beta= 0.40
     Davidson diagonalization with overlap

---- Real-time Memory Report at c_bands before calling an iterative solver
          1222 MiB given to the printing process from OS
          1022 MiB allocation reported by mallinfo(arena+hblkhd)
         58556 MiB available memory on the node where the printing process lives
     GPU memory used/free/total (MiB): 966 / 15314 / 16280
------------------
     ethr =  5.13E-03,  avg # of iterations =  2.0

     negative rho (up, down):  1.716E-01 1.714E-01

     total cpu time spent up to now is       61.4 secs

     total energy              =    -894.82092783 Ry
     estimated scf accuracy    <       4.22345181 Ry

     total magnetization       =     0.95 Bohr mag/cell
     absolute magnetization    =     1.03 Bohr mag/cell
[tb_dev] Currently allocated     7.95E-01 Mbytes, locked:    0 /   8
[tb_pin] Currently allocated     0.00E+00 Mbytes, locked:    0 /   0

     iteration #  9     ecut=    45.00 Ry     beta= 0.40
     Davidson diagonalization with overlap

---- Real-time Memory Report at c_bands before calling an iterative solver
          1223 MiB given to the printing process from OS
          1022 MiB allocation reported by mallinfo(arena+hblkhd)
         58555 MiB available memory on the node where the printing process lives
     GPU memory used/free/total (MiB): 966 / 15314 / 16280
------------------
     ethr =  5.13E-03,  avg # of iterations =  1.0

     negative rho (up, down):  1.717E-01 1.712E-01

     total cpu time spent up to now is       66.1 secs

     total energy              =    -894.85562727 Ry
     estimated scf accuracy    <       1.87335446 Ry

     total magnetization       =     1.02 Bohr mag/cell
     absolute magnetization    =     1.14 Bohr mag/cell
[tb_dev] Currently allocated     7.95E-01 Mbytes, locked:    0 /   8
[tb_pin] Currently allocated     0.00E+00 Mbytes, locked:    0 /   0

     iteration # 10     ecut=    45.00 Ry     beta= 0.40
     Davidson diagonalization with overlap

---- Real-time Memory Report at c_bands before calling an iterative solver
          1225 MiB given to the printing process from OS
          1022 MiB allocation reported by mallinfo(arena+hblkhd)
         58553 MiB available memory on the node where the printing process lives
     GPU memory used/free/total (MiB): 966 / 15314 / 16280
------------------
     ethr =  2.97E-03,  avg # of iterations =  1.0

     negative rho (up, down):  1.721E-01 1.709E-01

     total cpu time spent up to now is       70.8 secs

     total energy              =    -894.82331238 Ry
     estimated scf accuracy    <       1.80725798 Ry

     total magnetization       =     1.04 Bohr mag/cell
     absolute magnetization    =     1.16 Bohr mag/cell
[tb_dev] Currently allocated     7.95E-01 Mbytes, locked:    0 /   8
[tb_pin] Currently allocated     0.00E+00 Mbytes, locked:    0 /   0

     iteration # 11     ecut=    45.00 Ry     beta= 0.40
     Davidson diagonalization with overlap

---- Real-time Memory Report at c_bands before calling an iterative solver
          1225 MiB given to the printing process from OS
          1022 MiB allocation reported by mallinfo(arena+hblkhd)
         58554 MiB available memory on the node where the printing process lives
     GPU memory used/free/total (MiB): 966 / 15314 / 16280
------------------
     ethr =  2.87E-03,  avg # of iterations =  1.0

     negative rho (up, down):  1.718E-01 1.712E-01

     total cpu time spent up to now is       75.5 secs

     total energy              =    -894.75451285 Ry
     estimated scf accuracy    <       1.34373780 Ry

     total magnetization       =     1.16 Bohr mag/cell
     absolute magnetization    =     1.28 Bohr mag/cell
[tb_dev] Currently allocated     7.95E-01 Mbytes, locked:    0 /   8
[tb_pin] Currently allocated     0.00E+00 Mbytes, locked:    0 /   0

     iteration # 12     ecut=    45.00 Ry     beta= 0.40
     Davidson diagonalization with overlap

---- Real-time Memory Report at c_bands before calling an iterative solver
          1225 MiB given to the printing process from OS
          1022 MiB allocation reported by mallinfo(arena+hblkhd)
         58554 MiB available memory on the node where the printing process lives
     GPU memory used/free/total (MiB): 966 / 15314 / 16280
------------------
     ethr =  2.13E-03,  avg # of iterations =  1.0

     negative rho (up, down):  1.714E-01 1.716E-01

     total cpu time spent up to now is       80.2 secs

     total energy              =    -894.77890547 Ry
     estimated scf accuracy    <       0.04767911 Ry

     total magnetization       =     1.77 Bohr mag/cell
     absolute magnetization    =     1.83 Bohr mag/cell
[tb_dev] Currently allocated     7.95E-01 Mbytes, locked:    0 /   8
[tb_pin] Currently allocated     0.00E+00 Mbytes, locked:    0 /   0

     iteration # 13     ecut=    45.00 Ry     beta= 0.40
     Davidson diagonalization with overlap

---- Real-time Memory Report at c_bands before calling an iterative solver
          1225 MiB given to the printing process from OS
          1022 MiB allocation reported by mallinfo(arena+hblkhd)
         58554 MiB available memory on the node where the printing process lives
     GPU memory used/free/total (MiB): 966 / 15314 / 16280
------------------
     ethr =  7.57E-05,  avg # of iterations =  1.7

     negative rho (up, down):  1.712E-01 1.717E-01

     total cpu time spent up to now is       85.5 secs

     total energy              =    -894.77698585 Ry
     estimated scf accuracy    <       0.18645931 Ry

     total magnetization       =     1.66 Bohr mag/cell
     absolute magnetization    =     1.71 Bohr mag/cell
[tb_dev] Currently allocated     7.95E-01 Mbytes, locked:    0 /   8
[tb_pin] Currently allocated     0.00E+00 Mbytes, locked:    0 /   0

     iteration # 14     ecut=    45.00 Ry     beta= 0.40
     Davidson diagonalization with overlap

---- Real-time Memory Report at c_bands before calling an iterative solver
          1225 MiB given to the printing process from OS
          1022 MiB allocation reported by mallinfo(arena+hblkhd)
         58554 MiB available memory on the node where the printing process lives
     GPU memory used/free/total (MiB): 966 / 15314 / 16280
------------------
     ethr =  7.57E-05,  avg # of iterations =  1.0

     negative rho (up, down):  1.714E-01 1.715E-01

     total cpu time spent up to now is       90.2 secs

     total energy              =    -894.78241006 Ry
     estimated scf accuracy    <       0.04606886 Ry

     total magnetization       =     1.59 Bohr mag/cell
     absolute magnetization    =     1.65 Bohr mag/cell
[tb_dev] Currently allocated     7.95E-01 Mbytes, locked:    0 /   8
[tb_pin] Currently allocated     0.00E+00 Mbytes, locked:    0 /   0

     iteration # 15     ecut=    45.00 Ry     beta= 0.40
     Davidson diagonalization with overlap

---- Real-time Memory Report at c_bands before calling an iterative solver
          1225 MiB given to the printing process from OS
          1022 MiB allocation reported by mallinfo(arena+hblkhd)
         58554 MiB available memory on the node where the printing process lives
     GPU memory used/free/total (MiB): 966 / 15314 / 16280
------------------
     ethr =  7.31E-05,  avg # of iterations =  1.0

     negative rho (up, down):  1.712E-01 1.716E-01

     total cpu time spent up to now is       94.8 secs

     total energy              =    -894.78014506 Ry
     estimated scf accuracy    <       0.06739350 Ry

     total magnetization       =     1.55 Bohr mag/cell
     absolute magnetization    =     1.60 Bohr mag/cell
[tb_dev] Currently allocated     7.95E-01 Mbytes, locked:    0 /   8
[tb_pin] Currently allocated     0.00E+00 Mbytes, locked:    0 /   0

     iteration # 16     ecut=    45.00 Ry     beta= 0.40
     Davidson diagonalization with overlap

---- Real-time Memory Report at c_bands before calling an iterative solver
          1225 MiB given to the printing process from OS
          1022 MiB allocation reported by mallinfo(arena+hblkhd)
         58555 MiB available memory on the node where the printing process lives
     GPU memory used/free/total (MiB): 966 / 15314 / 16280
------------------
     ethr =  7.31E-05,  avg # of iterations =  1.0

     negative rho (up, down):  1.725E-01 1.708E-01

     total cpu time spent up to now is       99.5 secs

     total energy              =    -894.77138705 Ry
     estimated scf accuracy    <       0.05385033 Ry

     total magnetization       =     1.42 Bohr mag/cell
     absolute magnetization    =     1.47 Bohr mag/cell
[tb_dev] Currently allocated     7.95E-01 Mbytes, locked:    0 /   8
[tb_pin] Currently allocated     0.00E+00 Mbytes, locked:    0 /   0

     iteration # 17     ecut=    45.00 Ry     beta= 0.40
     Davidson diagonalization with overlap

---- Real-time Memory Report at c_bands before calling an iterative solver
          1225 MiB given to the printing process from OS
          1022 MiB allocation reported by mallinfo(arena+hblkhd)
         58547 MiB available memory on the node where the printing process lives
     GPU memory used/free/total (MiB): 966 / 15314 / 16280
------------------
     ethr =  7.31E-05,  avg # of iterations =  2.0

     negative rho (up, down):  1.722E-01 1.711E-01

     total cpu time spent up to now is      105.2 secs

     total energy              =    -894.78745347 Ry
     estimated scf accuracy    <       0.05945850 Ry

     total magnetization       =     2.26 Bohr mag/cell
     absolute magnetization    =     2.37 Bohr mag/cell
[tb_dev] Currently allocated     7.95E-01 Mbytes, locked:    0 /   8
[tb_pin] Currently allocated     0.00E+00 Mbytes, locked:    0 /   0

     iteration # 18     ecut=    45.00 Ry     beta= 0.40
     Davidson diagonalization with overlap

---- Real-time Memory Report at c_bands before calling an iterative solver
          1225 MiB given to the printing process from OS
          1022 MiB allocation reported by mallinfo(arena+hblkhd)
         58546 MiB available memory on the node where the printing process lives
     GPU memory used/free/total (MiB): 966 / 15314 / 16280
------------------
     ethr =  7.31E-05,  avg # of iterations =  1.0

     negative rho (up, down):  1.717E-01 1.713E-01

     total cpu time spent up to now is      109.9 secs

     total energy              =    -894.78034123 Ry
     estimated scf accuracy    <       0.11265155 Ry

     total magnetization       =     1.91 Bohr mag/cell
     absolute magnetization    =     2.02 Bohr mag/cell
[tb_dev] Currently allocated     7.95E-01 Mbytes, locked:    0 /   8
[tb_pin] Currently allocated     0.00E+00 Mbytes, locked:    0 /   0

     iteration # 19     ecut=    45.00 Ry     beta= 0.40
     Davidson diagonalization with overlap

---- Real-time Memory Report at c_bands before calling an iterative solver
          1225 MiB given to the printing process from OS
          1022 MiB allocation reported by mallinfo(arena+hblkhd)
         58550 MiB available memory on the node where the printing process lives
     GPU memory used/free/total (MiB): 966 / 15314 / 16280
------------------
     ethr =  7.31E-05,  avg # of iterations =  1.0

     negative rho (up, down):  1.718E-01 1.713E-01

     total cpu time spent up to now is      114.6 secs

     total energy              =    -894.78391458 Ry
     estimated scf accuracy    <       0.04857189 Ry

     total magnetization       =     1.55 Bohr mag/cell
     absolute magnetization    =     1.67 Bohr mag/cell
[tb_dev] Currently allocated     7.95E-01 Mbytes, locked:    0 /   8
[tb_pin] Currently allocated     0.00E+00 Mbytes, locked:    0 /   0

     iteration # 20     ecut=    45.00 Ry     beta= 0.40
     Davidson diagonalization with overlap

---- Real-time Memory Report at c_bands before calling an iterative solver
          1225 MiB given to the printing process from OS
          1022 MiB allocation reported by mallinfo(arena+hblkhd)
         58548 MiB available memory on the node where the printing process lives
     GPU memory used/free/total (MiB): 966 / 15314 / 16280
------------------
     ethr =  7.31E-05,  avg # of iterations =  1.0

     negative rho (up, down):  1.719E-01 1.713E-01

     total cpu time spent up to now is      119.2 secs

     total energy              =    -894.78549066 Ry
     estimated scf accuracy    <       0.04990841 Ry

     total magnetization       =     1.59 Bohr mag/cell
     absolute magnetization    =     1.71 Bohr mag/cell
[tb_dev] Currently allocated     7.95E-01 Mbytes, locked:    0 /   8
[tb_pin] Currently allocated     0.00E+00 Mbytes, locked:    0 /   0

     iteration # 21     ecut=    45.00 Ry     beta= 0.40
     Davidson diagonalization with overlap

---- Real-time Memory Report at c_bands before calling an iterative solver
          1225 MiB given to the printing process from OS
          1022 MiB allocation reported by mallinfo(arena+hblkhd)
         58551 MiB available memory on the node where the printing process lives
     GPU memory used/free/total (MiB): 966 / 15314 / 16280
------------------
     ethr =  7.31E-05,  avg # of iterations =  1.0

     negative rho (up, down):  1.722E-01 1.712E-01

     total cpu time spent up to now is      123.9 secs

     total energy              =    -894.78842560 Ry
     estimated scf accuracy    <       0.03830065 Ry

     total magnetization       =     1.78 Bohr mag/cell
     absolute magnetization    =     1.90 Bohr mag/cell
[tb_dev] Currently allocated     7.95E-01 Mbytes, locked:    0 /   8
[tb_pin] Currently allocated     0.00E+00 Mbytes, locked:    0 /   0

     iteration # 22     ecut=    45.00 Ry     beta= 0.40
     Davidson diagonalization with overlap

---- Real-time Memory Report at c_bands before calling an iterative solver
          1225 MiB given to the printing process from OS
          1022 MiB allocation reported by mallinfo(arena+hblkhd)
         58552 MiB available memory on the node where the printing process lives
     GPU memory used/free/total (MiB): 966 / 15314 / 16280
------------------
     ethr =  6.08E-05,  avg # of iterations =  1.0

     negative rho (up, down):  1.730E-01 1.706E-01

     total cpu time spent up to now is      128.6 secs

     total energy              =    -894.79143755 Ry
     estimated scf accuracy    <       0.02937662 Ry

     total magnetization       =     2.09 Bohr mag/cell
     absolute magnetization    =     2.22 Bohr mag/cell
[tb_dev] Currently allocated     7.95E-01 Mbytes, locked:    0 /   8
[tb_pin] Currently allocated     0.00E+00 Mbytes, locked:    0 /   0

     iteration # 23     ecut=    45.00 Ry     beta= 0.40
     Davidson diagonalization with overlap

---- Real-time Memory Report at c_bands before calling an iterative solver
          1225 MiB given to the printing process from OS
          1022 MiB allocation reported by mallinfo(arena+hblkhd)
         58554 MiB available memory on the node where the printing process lives
     GPU memory used/free/total (MiB): 966 / 15314 / 16280
------------------
     ethr =  4.66E-05,  avg # of iterations =  1.0

     negative rho (up, down):  1.731E-01 1.707E-01

     total cpu time spent up to now is      133.2 secs

     total energy              =    -894.79571992 Ry
     estimated scf accuracy    <       0.01186759 Ry

     total magnetization       =     2.57 Bohr mag/cell
     absolute magnetization    =     2.73 Bohr mag/cell
[tb_dev] Currently allocated     7.95E-01 Mbytes, locked:    0 /   8
[tb_pin] Currently allocated     0.00E+00 Mbytes, locked:    0 /   0

     iteration # 24     ecut=    45.00 Ry     beta= 0.40
     Davidson diagonalization with overlap

---- Real-time Memory Report at c_bands before calling an iterative solver
          1225 MiB given to the printing process from OS
          1022 MiB allocation reported by mallinfo(arena+hblkhd)
         58553 MiB available memory on the node where the printing process lives
     GPU memory used/free/total (MiB): 966 / 15314 / 16280
------------------
     ethr =  1.88E-05,  avg # of iterations =  1.2

     negative rho (up, down):  1.725E-01 1.720E-01

     total cpu time spent up to now is      138.1 secs

     total energy              =    -894.79742069 Ry
     estimated scf accuracy    <       0.00408733 Ry

     total magnetization       =     2.90 Bohr mag/cell
     absolute magnetization    =     3.10 Bohr mag/cell
[tb_dev] Currently allocated     7.95E-01 Mbytes, locked:    0 /   8
[tb_pin] Currently allocated     0.00E+00 Mbytes, locked:    0 /   0

     iteration # 25     ecut=    45.00 Ry     beta= 0.40
     Davidson diagonalization with overlap

---- Real-time Memory Report at c_bands before calling an iterative solver
          1225 MiB given to the printing process from OS
          1022 MiB allocation reported by mallinfo(arena+hblkhd)
         58553 MiB available memory on the node where the printing process lives
     GPU memory used/free/total (MiB): 966 / 15314 / 16280
------------------
     ethr =  6.49E-06,  avg # of iterations =  2.1

     negative rho (up, down):  1.726E-01 1.719E-01

     total cpu time spent up to now is      143.9 secs

     total energy              =    -894.79899283 Ry
     estimated scf accuracy    <       0.00045329 Ry

     total magnetization       =     3.19 Bohr mag/cell
     absolute magnetization    =     3.43 Bohr mag/cell
[tb_dev] Currently allocated     7.95E-01 Mbytes, locked:    0 /   8
[tb_pin] Currently allocated     0.00E+00 Mbytes, locked:    0 /   0

     iteration # 26     ecut=    45.00 Ry     beta= 0.40
     Davidson diagonalization with overlap

---- Real-time Memory Report at c_bands before calling an iterative solver
          1225 MiB given to the printing process from OS
          1022 MiB allocation reported by mallinfo(arena+hblkhd)
         58549 MiB available memory on the node where the printing process lives
     GPU memory used/free/total (MiB): 966 / 15314 / 16280
------------------
     ethr =  7.20E-07,  avg # of iterations =  2.6

     negative rho (up, down):  1.725E-01 1.719E-01

     total cpu time spent up to now is      150.2 secs

     total energy              =    -894.79915831 Ry
     estimated scf accuracy    <       0.00022088 Ry

     total magnetization       =     3.28 Bohr mag/cell
     absolute magnetization    =     3.54 Bohr mag/cell
[tb_dev] Currently allocated     7.95E-01 Mbytes, locked:    0 /   8
[tb_pin] Currently allocated     0.00E+00 Mbytes, locked:    0 /   0

     iteration # 27     ecut=    45.00 Ry     beta= 0.40
     Davidson diagonalization with overlap

---- Real-time Memory Report at c_bands before calling an iterative solver
          1225 MiB given to the printing process from OS
          1022 MiB allocation reported by mallinfo(arena+hblkhd)
         58552 MiB available memory on the node where the printing process lives
     GPU memory used/free/total (MiB): 966 / 15314 / 16280
------------------
     ethr =  3.51E-07,  avg # of iterations =  1.6

     negative rho (up, down):  1.724E-01 1.719E-01

     total cpu time spent up to now is      155.5 secs

     total energy              =    -894.79922418 Ry
     estimated scf accuracy    <       0.00014589 Ry

     total magnetization       =     3.27 Bohr mag/cell
     absolute magnetization    =     3.54 Bohr mag/cell
[tb_dev] Currently allocated     7.95E-01 Mbytes, locked:    0 /   8
[tb_pin] Currently allocated     0.00E+00 Mbytes, locked:    0 /   0

     iteration # 28     ecut=    45.00 Ry     beta= 0.40
     Davidson diagonalization with overlap

---- Real-time Memory Report at c_bands before calling an iterative solver
          1225 MiB given to the printing process from OS
          1022 MiB allocation reported by mallinfo(arena+hblkhd)
         58554 MiB available memory on the node where the printing process lives
     GPU memory used/free/total (MiB): 966 / 15314 / 16280
------------------
     ethr =  2.32E-07,  avg # of iterations =  1.1

     negative rho (up, down):  1.724E-01 1.719E-01

     total cpu time spent up to now is      160.3 secs

     total energy              =    -894.79913605 Ry
     estimated scf accuracy    <       0.00014981 Ry

     total magnetization       =     3.24 Bohr mag/cell
     absolute magnetization    =     3.51 Bohr mag/cell
[tb_dev] Currently allocated     7.95E-01 Mbytes, locked:    0 /   8
[tb_pin] Currently allocated     0.00E+00 Mbytes, locked:    0 /   0

     iteration # 29     ecut=    45.00 Ry     beta= 0.40
     Davidson diagonalization with overlap

---- Real-time Memory Report at c_bands before calling an iterative solver
          1225 MiB given to the printing process from OS
          1022 MiB allocation reported by mallinfo(arena+hblkhd)
         58554 MiB available memory on the node where the printing process lives
     GPU memory used/free/total (MiB): 966 / 15314 / 16280
------------------
     ethr =  2.32E-07,  avg # of iterations =  1.3

     negative rho (up, down):  1.725E-01 1.719E-01

     total cpu time spent up to now is      165.3 secs

     total energy              =    -894.79910878 Ry
     estimated scf accuracy    <       0.00012361 Ry

     total magnetization       =     3.29 Bohr mag/cell
     absolute magnetization    =     3.57 Bohr mag/cell
[tb_dev] Currently allocated     7.95E-01 Mbytes, locked:    0 /   8
[tb_pin] Currently allocated     0.00E+00 Mbytes, locked:    0 /   0

     iteration # 30     ecut=    45.00 Ry     beta= 0.40
     Davidson diagonalization with overlap

---- Real-time Memory Report at c_bands before calling an iterative solver
          1225 MiB given to the printing process from OS
          1022 MiB allocation reported by mallinfo(arena+hblkhd)
         58553 MiB available memory on the node where the printing process lives
     GPU memory used/free/total (MiB): 966 / 15314 / 16280
------------------
     ethr =  1.96E-07,  avg # of iterations =  1.1

     negative rho (up, down):  1.724E-01 1.718E-01

     total cpu time spent up to now is      170.1 secs

     total energy              =    -894.79911066 Ry
     estimated scf accuracy    <       0.00015402 Ry

     total magnetization       =     3.32 Bohr mag/cell
     absolute magnetization    =     3.60 Bohr mag/cell
[tb_dev] Currently allocated     7.95E-01 Mbytes, locked:    0 /   8
[tb_pin] Currently allocated     0.00E+00 Mbytes, locked:    0 /   0

     iteration # 31     ecut=    45.00 Ry     beta= 0.40
     Davidson diagonalization with overlap

---- Real-time Memory Report at c_bands before calling an iterative solver
          1225 MiB given to the printing process from OS
          1022 MiB allocation reported by mallinfo(arena+hblkhd)
         58554 MiB available memory on the node where the printing process lives
     GPU memory used/free/total (MiB): 966 / 15314 / 16280
------------------
     ethr =  1.96E-07,  avg # of iterations =  2.4

     negative rho (up, down):  1.723E-01 1.719E-01

     total cpu time spent up to now is      176.3 secs

     total energy              =    -894.79928879 Ry
     estimated scf accuracy    <       0.00018368 Ry

     total magnetization       =     3.22 Bohr mag/cell
     absolute magnetization    =     3.48 Bohr mag/cell
[tb_dev] Currently allocated     7.95E-01 Mbytes, locked:    0 /   8
[tb_pin] Currently allocated     0.00E+00 Mbytes, locked:    0 /   0

     iteration # 32     ecut=    45.00 Ry     beta= 0.40
     Davidson diagonalization with overlap

---- Real-time Memory Report at c_bands before calling an iterative solver
          1225 MiB given to the printing process from OS
          1022 MiB allocation reported by mallinfo(arena+hblkhd)
         58554 MiB available memory on the node where the printing process lives
     GPU memory used/free/total (MiB): 966 / 15314 / 16280
------------------
     ethr =  1.96E-07,  avg # of iterations =  1.2

     negative rho (up, down):  1.724E-01 1.719E-01

     total cpu time spent up to now is      181.2 secs

     total energy              =    -894.79929755 Ry
     estimated scf accuracy    <       0.00029464 Ry

     total magnetization       =     3.19 Bohr mag/cell
     absolute magnetization    =     3.46 Bohr mag/cell
[tb_dev] Currently allocated     7.95E-01 Mbytes, locked:    0 /   8
[tb_pin] Currently allocated     0.00E+00 Mbytes, locked:    0 /   0

     iteration # 33     ecut=    45.00 Ry     beta= 0.40
     Davidson diagonalization with overlap

---- Real-time Memory Report at c_bands before calling an iterative solver
          1225 MiB given to the printing process from OS
          1022 MiB allocation reported by mallinfo(arena+hblkhd)
         58554 MiB available memory on the node where the printing process lives
     GPU memory used/free/total (MiB): 966 / 15314 / 16280
------------------
     ethr =  1.96E-07,  avg # of iterations =  1.0

     negative rho (up, down):  1.724E-01 1.719E-01

     total cpu time spent up to now is      185.9 secs

     total energy              =    -894.79922994 Ry
     estimated scf accuracy    <       0.00014547 Ry

     total magnetization       =     3.19 Bohr mag/cell
     absolute magnetization    =     3.46 Bohr mag/cell
[tb_dev] Currently allocated     7.95E-01 Mbytes, locked:    0 /   8
[tb_pin] Currently allocated     0.00E+00 Mbytes, locked:    0 /   0

     iteration # 34     ecut=    45.00 Ry     beta= 0.40
     Davidson diagonalization with overlap

---- Real-time Memory Report at c_bands before calling an iterative solver
          1225 MiB given to the printing process from OS
          1022 MiB allocation reported by mallinfo(arena+hblkhd)
         58554 MiB available memory on the node where the printing process lives
     GPU memory used/free/total (MiB): 966 / 15314 / 16280
------------------
     ethr =  1.96E-07,  avg # of iterations =  1.0

     negative rho (up, down):  1.724E-01 1.718E-01

     total cpu time spent up to now is      190.5 secs

     total energy              =    -894.79913433 Ry
     estimated scf accuracy    <       0.00011244 Ry

     total magnetization       =     3.23 Bohr mag/cell
     absolute magnetization    =     3.49 Bohr mag/cell
[tb_dev] Currently allocated     7.95E-01 Mbytes, locked:    0 /   8
[tb_pin] Currently allocated     0.00E+00 Mbytes, locked:    0 /   0

     iteration # 35     ecut=    45.00 Ry     beta= 0.40
     Davidson diagonalization with overlap

---- Real-time Memory Report at c_bands before calling an iterative solver
          1225 MiB given to the printing process from OS
          1022 MiB allocation reported by mallinfo(arena+hblkhd)
         58554 MiB available memory on the node where the printing process lives
     GPU memory used/free/total (MiB): 966 / 15314 / 16280
------------------
     ethr =  1.78E-07,  avg # of iterations =  2.0

     negative rho (up, down):  1.725E-01 1.717E-01

     total cpu time spent up to now is      196.2 secs

     total energy              =    -894.79887700 Ry
     estimated scf accuracy    <       0.00007011 Ry

     total magnetization       =     3.28 Bohr mag/cell
     absolute magnetization    =     3.54 Bohr mag/cell
[tb_dev] Currently allocated     7.95E-01 Mbytes, locked:    0 /   8
[tb_pin] Currently allocated     0.00E+00 Mbytes, locked:    0 /   0

     iteration # 36     ecut=    45.00 Ry     beta= 0.40
     Davidson diagonalization with overlap

---- Real-time Memory Report at c_bands before calling an iterative solver
          1225 MiB given to the printing process from OS
          1022 MiB allocation reported by mallinfo(arena+hblkhd)
         58554 MiB available memory on the node where the printing process lives
     GPU memory used/free/total (MiB): 966 / 15314 / 16280
------------------
     ethr =  1.11E-07,  avg # of iterations =  3.3

     negative rho (up, down):  1.725E-01 1.717E-01

     total cpu time spent up to now is      203.7 secs

     total energy              =    -894.79890583 Ry
     estimated scf accuracy    <       0.00009594 Ry

     total magnetization       =     3.36 Bohr mag/cell
     absolute magnetization    =     3.62 Bohr mag/cell
[tb_dev] Currently allocated     7.95E-01 Mbytes, locked:    0 /   8
[tb_pin] Currently allocated     0.00E+00 Mbytes, locked:    0 /   0

     iteration # 37     ecut=    45.00 Ry     beta= 0.40
     Davidson diagonalization with overlap

---- Real-time Memory Report at c_bands before calling an iterative solver
          1225 MiB given to the printing process from OS
          1022 MiB allocation reported by mallinfo(arena+hblkhd)
         58554 MiB available memory on the node where the printing process lives
     GPU memory used/free/total (MiB): 966 / 15314 / 16280
------------------
     ethr =  1.11E-07,  avg # of iterations =  2.4

     negative rho (up, down):  1.723E-01 1.720E-01

     total cpu time spent up to now is      209.9 secs

     total energy              =    -894.79810009 Ry
     estimated scf accuracy    <       0.00006832 Ry

     total magnetization       =     3.41 Bohr mag/cell
     absolute magnetization    =     3.67 Bohr mag/cell
[tb_dev] Currently allocated     7.95E-01 Mbytes, locked:    0 /   8
[tb_pin] Currently allocated     0.00E+00 Mbytes, locked:    0 /   0

     iteration # 38     ecut=    45.00 Ry     beta= 0.40
     Davidson diagonalization with overlap

---- Real-time Memory Report at c_bands before calling an iterative solver
          1225 MiB given to the printing process from OS
          1022 MiB allocation reported by mallinfo(arena+hblkhd)
         58554 MiB available memory on the node where the printing process lives
     GPU memory used/free/total (MiB): 966 / 15314 / 16280
------------------
     ethr =  1.08E-07,  avg # of iterations =  4.2

     negative rho (up, down):  1.722E-01 1.721E-01

     total cpu time spent up to now is      219.1 secs

     total energy              =    -894.79917249 Ry
     estimated scf accuracy    <       0.00078405 Ry

     total magnetization       =     3.20 Bohr mag/cell
     absolute magnetization    =     3.47 Bohr mag/cell
[tb_dev] Currently allocated     7.95E-01 Mbytes, locked:    0 /   8
[tb_pin] Currently allocated     0.00E+00 Mbytes, locked:    0 /   0

     iteration # 39     ecut=    45.00 Ry     beta= 0.40
     Davidson diagonalization with overlap

---- Real-time Memory Report at c_bands before calling an iterative solver
          1225 MiB given to the printing process from OS
          1022 MiB allocation reported by mallinfo(arena+hblkhd)
         58555 MiB available memory on the node where the printing process lives
     GPU memory used/free/total (MiB): 966 / 15314 / 16280
------------------
     ethr =  1.08E-07,  avg # of iterations =  3.9

     negative rho (up, down):  1.723E-01 1.720E-01

     total cpu time spent up to now is      228.0 secs

     total energy              =    -894.79924034 Ry
     estimated scf accuracy    <       0.00232963 Ry

     total magnetization       =     3.07 Bohr mag/cell
     absolute magnetization    =     3.35 Bohr mag/cell
[tb_dev] Currently allocated     7.95E-01 Mbytes, locked:    0 /   8
[tb_pin] Currently allocated     0.00E+00 Mbytes, locked:    0 /   0

     iteration # 40     ecut=    45.00 Ry     beta= 0.40
     Davidson diagonalization with overlap

---- Real-time Memory Report at c_bands before calling an iterative solver
          1225 MiB given to the printing process from OS
          1022 MiB allocation reported by mallinfo(arena+hblkhd)
         58555 MiB available memory on the node where the printing process lives
     GPU memory used/free/total (MiB): 966 / 15314 / 16280
------------------
     ethr =  1.08E-07,  avg # of iterations =  3.3

     negative rho (up, down):  1.723E-01 1.719E-01

     total cpu time spent up to now is      235.7 secs

     total energy              =    -894.79919211 Ry
     estimated scf accuracy    <       0.00136389 Ry

     total magnetization       =     3.15 Bohr mag/cell
     absolute magnetization    =     3.43 Bohr mag/cell
[tb_dev] Currently allocated     7.95E-01 Mbytes, locked:    0 /   8
[tb_pin] Currently allocated     0.00E+00 Mbytes, locked:    0 /   0

     iteration # 41     ecut=    45.00 Ry     beta= 0.40
     Davidson diagonalization with overlap

---- Real-time Memory Report at c_bands before calling an iterative solver
          1225 MiB given to the printing process from OS
          1022 MiB allocation reported by mallinfo(arena+hblkhd)
         58555 MiB available memory on the node where the printing process lives
     GPU memory used/free/total (MiB): 966 / 15314 / 16280
------------------
     ethr =  1.08E-07,  avg # of iterations =  2.9

     negative rho (up, down):  1.726E-01 1.716E-01

     total cpu time spent up to now is      242.5 secs

     total energy              =    -894.79624663 Ry
     estimated scf accuracy    <       0.00141493 Ry

     total magnetization       =     3.23 Bohr mag/cell
     absolute magnetization    =     3.49 Bohr mag/cell
[tb_dev] Currently allocated     7.95E-01 Mbytes, locked:    0 /   8
[tb_pin] Currently allocated     0.00E+00 Mbytes, locked:    0 /   0

     iteration # 42     ecut=    45.00 Ry     beta= 0.40
     Davidson diagonalization with overlap

---- Real-time Memory Report at c_bands before calling an iterative solver
          1226 MiB given to the printing process from OS
          1022 MiB allocation reported by mallinfo(arena+hblkhd)
         58555 MiB available memory on the node where the printing process lives
     GPU memory used/free/total (MiB): 966 / 15314 / 16280
------------------
     ethr =  1.08E-07,  avg # of iterations =  4.8

     negative rho (up, down):  1.727E-01 1.714E-01

     total cpu time spent up to now is      252.7 secs

     total energy              =    -894.79760889 Ry
     estimated scf accuracy    <       0.00300794 Ry

     total magnetization       =     3.56 Bohr mag/cell
     absolute magnetization    =     3.81 Bohr mag/cell
[tb_dev] Currently allocated     7.95E-01 Mbytes, locked:    0 /   8
[tb_pin] Currently allocated     0.00E+00 Mbytes, locked:    0 /   0

     iteration # 43     ecut=    45.00 Ry     beta= 0.40
     Davidson diagonalization with overlap

---- Real-time Memory Report at c_bands before calling an iterative solver
          1226 MiB given to the printing process from OS
          1022 MiB allocation reported by mallinfo(arena+hblkhd)
         58555 MiB available memory on the node where the printing process lives
     GPU memory used/free/total (MiB): 966 / 15314 / 16280
------------------
     ethr =  1.08E-07,  avg # of iterations =  4.1

     negative rho (up, down):  1.726E-01 1.716E-01

     total cpu time spent up to now is      261.7 secs

     total energy              =    -894.79837728 Ry
     estimated scf accuracy    <       0.00736438 Ry

     total magnetization       =     3.74 Bohr mag/cell
     absolute magnetization    =     3.99 Bohr mag/cell
[tb_dev] Currently allocated     7.95E-01 Mbytes, locked:    0 /   8
[tb_pin] Currently allocated     0.00E+00 Mbytes, locked:    0 /   0

     iteration # 44     ecut=    45.00 Ry     beta= 0.40
     Davidson diagonalization with overlap

---- Real-time Memory Report at c_bands before calling an iterative solver
          1226 MiB given to the printing process from OS
          1022 MiB allocation reported by mallinfo(arena+hblkhd)
         58555 MiB available memory on the node where the printing process lives
     GPU memory used/free/total (MiB): 966 / 15314 / 16280
------------------
     ethr =  1.08E-07,  avg # of iterations =  3.8

     negative rho (up, down):  1.726E-01 1.716E-01

[...]
------------------
     ethr =  1.08E-07,  avg # of iterations =  4.1

     negative rho (up, down):  1.725E-01 1.717E-01

     total cpu time spent up to now is      440.7 secs

     total energy              =    -894.79377759 Ry
     estimated scf accuracy    <       0.02665699 Ry

     total magnetization       =     3.98 Bohr mag/cell
     absolute magnetization    =     4.23 Bohr mag/cell
[tb_dev] Currently allocated     7.95E-01 Mbytes, locked:    0 /   8
[tb_pin] Currently allocated     0.00E+00 Mbytes, locked:    0 /   0

     iteration # 66     ecut=    45.00 Ry     beta= 0.40
     Davidson diagonalization with overlap

---- Real-time Memory Report at c_bands before calling an iterative solver
          1226 MiB given to the printing process from OS
          1022 MiB allocation reported by mallinfo(arena+hblkhd)
         58550 MiB available memory on the node where the printing process lives
     GPU memory used/free/total (MiB): 966 / 15314 / 16280
------------------
     ethr =  1.08E-07,  avg # of iterations =  5.2

     negative rho (up, down):  1.725E-01 1.717E-01

     total cpu time spent up to now is      451.4 secs

     total energy              =    -894.79890315 Ry
     estimated scf accuracy    <       0.00272851 Ry

     total magnetization       =     3.44 Bohr mag/cell
     absolute magnetization    =     3.69 Bohr mag/cell
[tb_dev] Currently allocated     7.95E-01 Mbytes, locked:    0 /   8
[tb_pin] Currently allocated     0.00E+00 Mbytes, locked:    0 /   0

     iteration # 67     ecut=    45.00 Ry     beta= 0.40
     Davidson diagonalization with overlap

---- Real-time Memory Report at c_bands before calling an iterative solver
          1226 MiB given to the printing process from OS
          1022 MiB allocation reported by mallinfo(arena+hblkhd)
         58552 MiB available memory on the node where the printing process lives
     GPU memory used/free/total (MiB): 966 / 15314 / 16280
------------------
     ethr =  1.08E-07,  avg # of iterations =  2.5

     negative rho (up, down):  1.725E-01 1.717E-01

     total cpu time spent up to now is      457.6 secs

     total energy              =    -894.79896200 Ry
     estimated scf accuracy    <       0.00211408 Ry

     total magnetization       =     3.48 Bohr mag/cell
     absolute magnetization    =     3.74 Bohr mag/cell
[tb_dev] Currently allocated     7.95E-01 Mbytes, locked:    0 /   8
[tb_pin] Currently allocated     0.00E+00 Mbytes, locked:    0 /   0

     iteration # 68     ecut=    45.00 Ry     beta= 0.40
     Davidson diagonalization with overlap

---- Real-time Memory Report at c_bands before calling an iterative solver
          1226 MiB given to the printing process from OS
          1022 MiB allocation reported by mallinfo(arena+hblkhd)
         58552 MiB available memory on the node where the printing process lives
     GPU memory used/free/total (MiB): 966 / 15314 / 16280
------------------
     ethr =  1.08E-07,  avg # of iterations =  1.0

     negative rho (up, down):  1.725E-01 1.717E-01

     total cpu time spent up to now is      462.3 secs

     total energy              =    -894.79897765 Ry
     estimated scf accuracy    <       0.00143706 Ry

     total magnetization       =     3.47 Bohr mag/cell
     absolute magnetization    =     3.72 Bohr mag/cell
[tb_dev] Currently allocated     7.95E-01 Mbytes, locked:    0 /   8
[tb_pin] Currently allocated     0.00E+00 Mbytes, locked:    0 /   0

     iteration # 69     ecut=    45.00 Ry     beta= 0.40
     Davidson diagonalization with overlap

---- Real-time Memory Report at c_bands before calling an iterative solver
          1226 MiB given to the printing process from OS
          1022 MiB allocation reported by mallinfo(arena+hblkhd)
         58552 MiB available memory on the node where the printing process lives
     GPU memory used/free/total (MiB): 966 / 15314 / 16280
------------------
     ethr =  1.08E-07,  avg # of iterations =  2.2

     negative rho (up, down):  1.724E-01 1.719E-01

     total cpu time spent up to now is      468.2 secs

     total energy              =    -894.79880398 Ry
     estimated scf accuracy    <       0.00101891 Ry

     total magnetization       =     3.41 Bohr mag/cell
     absolute magnetization    =     3.67 Bohr mag/cell
[tb_dev] Currently allocated     7.95E-01 Mbytes, locked:    0 /   8
[tb_pin] Currently allocated     0.00E+00 Mbytes, locked:    0 /   0

     iteration # 70     ecut=    45.00 Ry     beta= 0.40
     Davidson diagonalization with overlap

---- Real-time Memory Report at c_bands before calling an iterative solver
          1226 MiB given to the printing process from OS
          1022 MiB allocation reported by mallinfo(arena+hblkhd)
         58553 MiB available memory on the node where the printing process lives
     GPU memory used/free/total (MiB): 966 / 15314 / 16280
------------------
     ethr =  1.08E-07,  avg # of iterations =  4.0

     negative rho (up, down):  1.724E-01 1.719E-01

     total cpu time spent up to now is      477.0 secs

     total energy              =    -894.79925921 Ry
     estimated scf accuracy    <       0.00110537 Ry

     total magnetization       =     3.27 Bohr mag/cell
     absolute magnetization    =     3.53 Bohr mag/cell
[tb_dev] Currently allocated     7.95E-01 Mbytes, locked:    0 /   8
[tb_pin] Currently allocated     0.00E+00 Mbytes, locked:    0 /   0

     iteration # 71     ecut=    45.00 Ry     beta= 0.40
     Davidson diagonalization with overlap

---- Real-time Memory Report at c_bands before calling an iterative solver
          1226 MiB given to the printing process from OS
          1022 MiB allocation reported by mallinfo(arena+hblkhd)
         58554 MiB available memory on the node where the printing process lives
     GPU memory used/free/total (MiB): 966 / 15314 / 16280
------------------
     ethr =  1.08E-07,  avg # of iterations =  1.0

     negative rho (up, down):  1.723E-01 1.719E-01

     total cpu time spent up to now is      481.7 secs

     total energy              =    -894.79926982 Ry
     estimated scf accuracy    <       0.00114173 Ry

     total magnetization       =     3.26 Bohr mag/cell
     absolute magnetization    =     3.53 Bohr mag/cell
[tb_dev] Currently allocated     7.95E-01 Mbytes, locked:    0 /   8
[tb_pin] Currently allocated     0.00E+00 Mbytes, locked:    0 /   0

     iteration # 72     ecut=    45.00 Ry     beta= 0.40
     Davidson diagonalization with overlap

---- Real-time Memory Report at c_bands before calling an iterative solver
          1226 MiB given to the printing process from OS
          1022 MiB allocation reported by mallinfo(arena+hblkhd)
         58554 MiB available memory on the node where the printing process lives
     GPU memory used/free/total (MiB): 966 / 15314 / 16280
------------------
     ethr =  1.08E-07,  avg # of iterations =  2.7

     negative rho (up, down):  1.723E-01 1.719E-01

     total cpu time spent up to now is      488.4 secs

     total energy              =    -894.79939851 Ry
     estimated scf accuracy    <       0.00165651 Ry

     total magnetization       =     3.20 Bohr mag/cell
     absolute magnetization    =     3.47 Bohr mag/cell
[tb_dev] Currently allocated     7.95E-01 Mbytes, locked:    0 /   8
[tb_pin] Currently allocated     0.00E+00 Mbytes, locked:    0 /   0

     iteration # 73     ecut=    45.00 Ry     beta= 0.40
     Davidson diagonalization with overlap

---- Real-time Memory Report at c_bands before calling an iterative solver
          1226 MiB given to the printing process from OS
          1022 MiB allocation reported by mallinfo(arena+hblkhd)
         58554 MiB available memory on the node where the printing process lives
     GPU memory used/free/total (MiB): 966 / 15314 / 16280
------------------
     ethr =  1.08E-07,  avg # of iterations =  1.0

     negative rho (up, down):  1.723E-01 1.719E-01

     total cpu time spent up to now is      493.1 secs

     total energy              =    -894.79943257 Ry
     estimated scf accuracy    <       0.00176023 Ry

     total magnetization       =     3.19 Bohr mag/cell
     absolute magnetization    =     3.46 Bohr mag/cell
[tb_dev] Currently allocated     7.95E-01 Mbytes, locked:    0 /   8
[tb_pin] Currently allocated     0.00E+00 Mbytes, locked:    0 /   0

     iteration # 74     ecut=    45.00 Ry     beta= 0.40
     Davidson diagonalization with overlap

---- Real-time Memory Report at c_bands before calling an iterative solver
          1226 MiB given to the printing process from OS
          1022 MiB allocation reported by mallinfo(arena+hblkhd)
         58554 MiB available memory on the node where the printing process lives
     GPU memory used/free/total (MiB): 966 / 15314 / 16280
------------------
     ethr =  1.08E-07,  avg # of iterations =  1.5

     negative rho (up, down):  1.726E-01 1.716E-01

     total cpu time spent up to now is      498.3 secs

     total energy              =    -894.79498729 Ry
     estimated scf accuracy    <       0.00200230 Ry

     total magnetization       =     3.17 Bohr mag/cell
     absolute magnetization    =     3.44 Bohr mag/cell
[tb_dev] Currently allocated     7.95E-01 Mbytes, locked:    0 /   8
[tb_pin] Currently allocated     0.00E+00 Mbytes, locked:    0 /   0

     iteration # 75     ecut=    45.00 Ry     beta= 0.40
     Davidson diagonalization with overlap

---- Real-time Memory Report at c_bands before calling an iterative solver
          1226 MiB given to the printing process from OS
          1022 MiB allocation reported by mallinfo(arena+hblkhd)
         58555 MiB available memory on the node where the printing process lives
     GPU memory used/free/total (MiB): 966 / 15314 / 16280
------------------
     ethr =  1.08E-07,  avg # of iterations =  4.9

     negative rho (up, down):  1.726E-01 1.715E-01

     total cpu time spent up to now is      508.6 secs

     total energy              =    -894.79808576 Ry
     estimated scf accuracy    <       0.00169943 Ry

     total magnetization       =     3.56 Bohr mag/cell
     absolute magnetization    =     3.82 Bohr mag/cell
[tb_dev] Currently allocated     7.95E-01 Mbytes, locked:    0 /   8
[tb_pin] Currently allocated     0.00E+00 Mbytes, locked:    0 /   0

     iteration # 76     ecut=    45.00 Ry     beta= 0.40
     Davidson diagonalization with overlap

---- Real-time Memory Report at c_bands before calling an iterative solver
          1226 MiB given to the printing process from OS
          1022 MiB allocation reported by mallinfo(arena+hblkhd)
         58555 MiB available memory on the node where the printing process lives
     GPU memory used/free/total (MiB): 966 / 15314 / 16280
------------------
     ethr =  1.08E-07,  avg # of iterations =  3.9

     negative rho (up, down):  1.725E-01 1.717E-01

     total cpu time spent up to now is      517.4 secs

     total energy              =    -894.79793487 Ry
     estimated scf accuracy    <       0.00430747 Ry

     total magnetization       =     3.69 Bohr mag/cell
     absolute magnetization    =     3.94 Bohr mag/cell
[tb_dev] Currently allocated     7.95E-01 Mbytes, locked:    0 /   8
[tb_pin] Currently allocated     0.00E+00 Mbytes, locked:    0 /   0

     iteration # 77     ecut=    45.00 Ry     beta= 0.40
     Davidson diagonalization with overlap

---- Real-time Memory Report at c_bands before calling an iterative solver
          1226 MiB given to the printing process from OS
          1022 MiB allocation reported by mallinfo(arena+hblkhd)
         58555 MiB available memory on the node where the printing process lives
     GPU memory used/free/total (MiB): 966 / 15314 / 16280
------------------
     ethr =  1.08E-07,  avg # of iterations =  4.4

     negative rho (up, down):  1.724E-01 1.718E-01

     total cpu time spent up to now is      526.8 secs

     total energy              =    -894.79877920 Ry
     estimated scf accuracy    <       0.00084935 Ry

     total magnetization       =     3.46 Bohr mag/cell
     absolute magnetization    =     3.71 Bohr mag/cell
[tb_dev] Currently allocated     7.95E-01 Mbytes, locked:    0 /   8
[tb_pin] Currently allocated     0.00E+00 Mbytes, locked:    0 /   0

     iteration # 78     ecut=    45.00 Ry     beta= 0.40
     Davidson diagonalization with overlap

---- Real-time Memory Report at c_bands before calling an iterative solver
          1226 MiB given to the printing process from OS
          1022 MiB allocation reported by mallinfo(arena+hblkhd)
         58555 MiB available memory on the node where the printing process lives
     GPU memory used/free/total (MiB): 966 / 15314 / 16280
------------------
     ethr =  1.08E-07,  avg # of iterations =  3.9

     negative rho (up, down):  1.724E-01 1.718E-01

     total cpu time spent up to now is      535.6 secs

     total energy              =    -894.79916613 Ry
     estimated scf accuracy    <       0.00062626 Ry

     total magnetization       =     3.33 Bohr mag/cell
     absolute magnetization    =     3.59 Bohr mag/cell
[tb_dev] Currently allocated     7.95E-01 Mbytes, locked:    0 /   8
[tb_pin] Currently allocated     0.00E+00 Mbytes, locked:    0 /   0

     iteration # 79     ecut=    45.00 Ry     beta= 0.40
     Davidson diagonalization with overlap

---- Real-time Memory Report at c_bands before calling an iterative solver
          1226 MiB given to the printing process from OS
          1022 MiB allocation reported by mallinfo(arena+hblkhd)
         58555 MiB available memory on the node where the printing process lives
     GPU memory used/free/total (MiB): 966 / 15314 / 16280
------------------
     ethr =  1.08E-07,  avg # of iterations =  1.0

     negative rho (up, down):  1.724E-01 1.718E-01

     total cpu time spent up to now is      540.3 secs

     total energy              =    -894.79917216 Ry
     estimated scf accuracy    <       0.00064870 Ry

     total magnetization       =     3.31 Bohr mag/cell
     absolute magnetization    =     3.58 Bohr mag/cell
[tb_dev] Currently allocated     7.95E-01 Mbytes, locked:    0 /   8
[tb_pin] Currently allocated     0.00E+00 Mbytes, locked:    0 /   0

     iteration # 80     ecut=    45.00 Ry     beta= 0.40
     Davidson diagonalization with overlap

---- Real-time Memory Report at c_bands before calling an iterative solver
          1226 MiB given to the printing process from OS
          1022 MiB allocation reported by mallinfo(arena+hblkhd)
         58555 MiB available memory on the node where the printing process lives
     GPU memory used/free/total (MiB): 966 / 15314 / 16280
------------------
     ethr =  1.08E-07,  avg # of iterations =  1.0

     negative rho (up, down):  1.724E-01 1.718E-01

     total cpu time spent up to now is      544.9 secs

     total energy              =    -894.79898554 Ry
     estimated scf accuracy    <       0.00065434 Ry

     total magnetization       =     3.31 Bohr mag/cell
     absolute magnetization    =     3.58 Bohr mag/cell

     End of self-consistent calculation

     convergence NOT achieved after  80 iterations: stopping

     Writing config to output data dir ./out/aiida.save/
 
     init_run     :     11.76s CPU      4.95s WALL (       1 calls)
     electrons    :    629.94s CPU    539.11s WALL (       1 calls)

     Called by init_run:
     wfcinit      :      2.39s CPU      3.44s WALL (       1 calls)
                                        3.44s GPU  (       1 calls)
     wfcinit:atom :      0.10s CPU      0.11s WALL (     294 calls)
                                        0.11s GPU  (     294 calls)
     wfcinit:wfcr :      1.50s CPU      2.24s WALL (     294 calls)
                                        2.23s GPU  (     294 calls)
     potinit      :      0.42s CPU      0.04s WALL (       1 calls)
     hinit0       :      6.76s CPU      0.95s WALL (       1 calls)

     Called by electrons:
     c_bands      :    542.42s CPU    473.04s WALL (      80 calls)
     sum_band     :     50.96s CPU     62.63s WALL (      80 calls)
     v_of_rho     :      6.99s CPU      0.62s WALL (      81 calls)
     v_h          :      1.02s CPU      0.09s WALL (      81 calls)
     v_xc         :      5.97s CPU      0.53s WALL (      81 calls)
     newd         :     20.96s CPU      2.19s WALL (      81 calls)
                                        2.19s GPU  (      81 calls)
     mix_rho      :      8.36s CPU      0.81s WALL (      80 calls)

     Called by c_bands:
     init_us_2    :     49.07s CPU     48.26s WALL (   47334 calls)
     init_us_2:gp :     48.22s CPU     47.49s WALL (   47334 calls)
     cegterg      :    479.36s CPU    420.36s WALL (   23520 calls)

     Called by sum_band:
     sum_band:wei :      0.86s CPU      0.87s WALL (      80 calls)
                                        0.87s GPU  (      80 calls)
     sum_band:loo :     47.70s CPU     59.09s WALL (      80 calls)
                                       59.09s GPU  (      80 calls)
     sum_band:buf :      7.02s CPU      8.63s WALL (   23520 calls)
                                        8.49s GPU  (   23520 calls)
     sum_band:ini :     18.48s CPU     23.72s WALL (   23520 calls)
                                       23.59s GPU  (   23520 calls)
     sum_band:cal :      0.69s CPU      1.68s WALL (   23520 calls)
                                        1.53s GPU  (   23520 calls)
     sum_band:bec :      3.67s CPU      4.67s WALL (   23520 calls)
                                        4.51s GPU  (   23520 calls)
     addusdens    :      1.98s CPU      2.22s WALL (      80 calls)
                                        2.22s GPU  (      80 calls)
     addusd:skk   :      0.01s CPU      0.01s WALL (     240 calls)
                                        0.01s GPU  (     240 calls)

     Called by *egterg:
     cdiaghg      :    274.89s CPU    248.09s WALL (   83073 calls)
                                      247.54s GPU  (   83073 calls)
     cegterg:over :      8.89s CPU      7.57s WALL (   59553 calls)
     cegterg:upda :     24.50s CPU     21.10s WALL (   59553 calls)
     cegterg:last :      5.24s CPU      4.48s WALL (   42369 calls)
     h_psi        :    127.05s CPU    108.96s WALL (   83367 calls)
                                      108.51s GPU  (   83367 calls)
     s_psi        :      8.66s CPU     11.08s WALL (   83367 calls)
                                       10.45s GPU  (   83367 calls)
     g_psi        :      0.53s CPU      1.30s WALL (   59553 calls)
                                        0.93s GPU  (   59553 calls)

     Called by h_psi:
     h_psi:calbec :      3.31s CPU      6.23s WALL (   83367 calls)
                                        5.73s GPU  (   83367 calls)
     vloc_psi     :     99.64s CPU     85.94s WALL (   83367 calls)
                                       85.45s GPU  (   83367 calls)
     add_vuspsi   :     10.70s CPU     11.66s WALL (   83367 calls)
                                       11.17s GPU  (   83367 calls)

     General routines
     calbec       :      3.03s CPU      2.74s WALL (  106887 calls)
     fft          :      2.33s CPU      0.27s WALL (    2023 calls)
                                        0.22s GPU  (    1861 calls)
     ffts         :      0.02s CPU      0.01s WALL (     322 calls)
                                        0.01s GPU  (     160 calls)
     fftw         :      9.94s CPU     45.64s WALL (  446924 calls)
                                       43.18s GPU  (  446924 calls)
     interpolate  :      0.96s CPU      0.09s WALL (     162 calls)
     davcio       :      1.24s CPU      0.23s WALL (     312 calls)
 
     Parallel routines
 
     PWSCF        :  10m46.02s CPU   9m 5.25s WALL

 
   This run was terminated on:  17:38:39  23Oct2023            

=------------------------------------------------------------------------------=
   JOB DONE.
=------------------------------------------------------------------------------=
