
     Program PWSCF v.7.2 starts on 23Oct2023 at 18:16:44 

     This program is part of the open-source Quantum ESPRESSO suite
     for quantum simulation of materials; please cite
         "P. Giannozzi et al., J. Phys.:Condens. Matter 21 395502 (2009);
         "P. Giannozzi et al., J. Phys.:Condens. Matter 29 465901 (2017);
         "P. Giannozzi et al., J. Chem. Phys. 152 154105 (2020);
          URL http://www.quantum-espresso.org", 
     in publications or presentations arising from this work. More details at
     http://www.quantum-espresso.org/quote

     Parallel version (MPI & OpenMP), running on      12 processor cores
     Number of MPI processes:                 1
     Threads/MPI process:                    12

     MPI processes distributed on     1 nodes
     60395 MiB available memory on the printing compute node when the environment starts
 
     Reading input from aiida.in

     Current dimensions of program PWSCF are:
     Max number of different atomic species (ntypx) = 10
     Max number of k-points (npk) =  40000
     Max angular momentum in pseudopotentials (lmaxx) =  4
     file O.pbesol-n-kjpaw_psl.0.1.UPF: wavefunction(s)  2P renormalized
     Message from routine setup:
     using ibrav=0 with symmetry is DISCOURAGED, use correct ibrav instead
 
     Subspace diagonalization in iterative solution of the eigenvalue problem:
     a serial algorithm will be used

 
     G-vector sticks info
     --------------------
     sticks:   dense  smooth     PW     G-vecs:    dense   smooth      PW
     Sum        4879    2431    721               156471    55363    8959
 
     Using Slab Decomposition
 


     bravais-lattice index     =            0
     lattice parameter (alat)  =      12.3701  a.u.
     unit-cell volume          =    1158.2074 (a.u.)^3
     number of atoms/cell      =            8
     number of atomic types    =            1
     number of electrons       =        48.00
     number of Kohn-Sham states=           29
     kinetic-energy cutoff     =      50.0000  Ry
     charge density cutoff     =     400.0000  Ry
     scf convergence threshold =      1.6E-09
     mixing beta               =       0.1000
     number of iterations used =            8  plain     mixing
     Exchange-correlation= SLA  PW   PSX  PSC
                           (   1   4  10   8   0   0   0)

     GPU acceleration is ACTIVE.


     GPU used by master process:

        Device Number: 0
        Device name: Tesla P100-PCIE-16GB
        Compute capability : 60
        Ratio of single to double precision performance  : 2
        Memory Clock Rate (KHz): 715000
        Memory Bus Width (bits): 4096
        Peak Memory Bandwidth (GB/s): 732.16

     celldm(1)=  12.370059  celldm(2)=   0.000000  celldm(3)=   0.000000
     celldm(4)=   0.000000  celldm(5)=   0.000000  celldm(6)=   0.000000

     crystal axes: (cart. coord. in units of alat)
               a(1) = (   0.689763   0.724035   0.000000 )  
               a(2) = (  -0.689763   0.724035   0.000000 )  
               a(3) = (  -0.315278   0.000000   0.612606 )  

     reciprocal axes: (cart. coord. in units 2 pi/alat)
               b(1) = (  0.724887  0.690574  0.373064 )  
               b(2) = ( -0.724887  0.690574 -0.373064 )  
               b(3) = (  0.000000 -0.000000  1.632370 )  


     PseudoPot. # 1 for O  read from file:
     ./pseudo/O.pbesol-n-kjpaw_psl.0.1.UPF
     MD5 check sum: 81d73d1479e654e5638b0319f0d6c2c7
     Pseudo is Projector augmented-wave + core cor, Zval =  6.0
     Generated using "atomic" code by A. Dal Corso  v.6.0 svn rev. 13079
     Shape of augmentation charge: BESSEL
     Using radial grid of 1095 points,  4 beta functions with: 
                l(1) =   0
                l(2) =   0
                l(3) =   1
                l(4) =   1
     Q(r) pseudized with 0 coefficients 


     atomic species   valence    mass     pseudopotential
        O              6.00    15.99940     O ( 1.00)

     Starting magnetic structure 
     atomic species   magnetization
        O            0.100

      4 Sym. Ops., with inversion, found ( 2 have fractional translation)


                                    s                        frac. trans.

      isym =  1     identity                                     

 cryst.   s( 1) = (     1          0          0      )
                  (     0          1          0      )
                  (     0          0          1      )

 cart.    s( 1) = (  1.0000000 -0.0000000 -0.0000000 )
                  ( -0.0000000  1.0000000  0.0000000 )
                  (  0.0000000  0.0000000  1.0000000 )


      isym =  2     180 deg rotation - cart. axis [0,1,0]        

 cryst.   s( 2) = (     0          1          0      )    f =( -0.0000000 )
                  (     1          0          0      )       (  0.0000000 )
                  (     0          0         -1      )       (  0.5000000 )

 cart.    s( 2) = ( -1.0000000 -0.0000000  0.0000000 )    f =( -0.1576392 )
                  (  0.0000000  1.0000000 -0.0000000 )       (  0.0000000 )
                  (  0.0000000  0.0000000 -1.0000000 )       (  0.3063031 )


      isym =  3     inversion                                    

 cryst.   s( 3) = (    -1          0          0      )
                  (     0         -1          0      )
                  (     0          0         -1      )

 cart.    s( 3) = ( -1.0000000  0.0000000  0.0000000 )
                  (  0.0000000 -1.0000000 -0.0000000 )
                  (  0.0000000  0.0000000 -1.0000000 )


      isym =  4     inv. 180 deg rotation - cart. axis [0,1,0]   

 cryst.   s( 4) = (     0         -1          0      )    f =( -0.0000000 )
                  (    -1          0          0      )       (  0.0000000 )
                  (     0          0          1      )       (  0.5000000 )

 cart.    s( 4) = (  1.0000000  0.0000000 -0.0000000 )    f =( -0.1576392 )
                  ( -0.0000000 -1.0000000  0.0000000 )       (  0.0000000 )
                  (  0.0000000  0.0000000  1.0000000 )       (  0.3063031 )


   Cartesian axes

     site n.     atom                  positions (alat units)
         1           O   tau(   1) = (   0.5129918   0.9859910   0.3635818  )
         2           O   tau(   2) = (   0.3936168   0.9859910   0.5553276  )
         3           O   tau(   3) = (   0.5512560   0.4620792   0.2490245  )
         4           O   tau(   4) = (   0.6706310   0.4620792   0.0572787  )
         5           O   tau(   5) = (   0.9088398   0.1190314   0.1157826  )
         6           O   tau(   6) = (   0.3130472   0.1190314   0.1905206  )
         7           O   tau(   7) = (   0.1554080   1.3290389   0.4968237  )
         8           O   tau(   8) = (   0.7512006   1.3290389   0.4220857  )

   Crystallographic axes

     site n.     atom                  positions (cryst. coord.)
         1           O   tau(   1) = (  1.1884000  0.1734000  0.5935000  )
         2           O   tau(   2) = (  1.1734000  0.1884000  0.9065000  )
         3           O   tau(   3) = (  0.8116000 -0.1734000  0.4065000  )
         4           O   tau(   4) = (  0.8266000 -0.1884000  0.0935000  )
         5           O   tau(   5) = (  0.7842000 -0.6198000  0.1890000  )
         6           O   tau(   6) = (  0.3802000 -0.2158000  0.3110000  )
         7           O   tau(   7) = (  1.2158000  0.6198000  0.8110000  )
         8           O   tau(   8) = (  1.6198000  0.2158000  0.6890000  )

     number of k points=   156  Marzari-Vanderbilt smearing, width (Ry)=  0.0100
                       cart. coord. in units 2pi/alat
        k(    1) = (   0.0000000   0.0000000   0.0000000), wk =   0.0018553
        k(    2) = (   0.0000000   0.0000000   0.1483973), wk =   0.0037106
        k(    3) = (   0.0000000   0.0000000   0.2967945), wk =   0.0037106
        k(    4) = (   0.0000000   0.0000000   0.4451918), wk =   0.0037106
        k(    5) = (   0.0000000   0.0000000   0.5935890), wk =   0.0037106
        k(    6) = (   0.0000000   0.0000000   0.7419863), wk =   0.0037106
        k(    7) = (  -0.1035552   0.0986535  -0.0532948), wk =   0.0074212
        k(    8) = (  -0.1035552   0.0986535   0.0951025), wk =   0.0074212
        k(    9) = (  -0.1035552   0.0986535   0.2434997), wk =   0.0074212
        k(   10) = (  -0.1035552   0.0986535   0.3918970), wk =   0.0074212
        k(   11) = (  -0.1035552   0.0986535   0.5402942), wk =   0.0074212
        k(   12) = (  -0.1035552   0.0986535   0.6886915), wk =   0.0074212
        k(   13) = (  -0.1035552   0.0986535  -0.7952811), wk =   0.0074212
        k(   14) = (  -0.1035552   0.0986535  -0.6468838), wk =   0.0074212
        k(   15) = (  -0.1035552   0.0986535  -0.4984866), wk =   0.0074212
        k(   16) = (  -0.1035552   0.0986535  -0.3500893), wk =   0.0074212
        k(   17) = (  -0.1035552   0.0986535  -0.2016921), wk =   0.0074212
        k(   18) = (  -0.2071104   0.1973069  -0.1065896), wk =   0.0074212
        k(   19) = (  -0.2071104   0.1973069   0.0418077), wk =   0.0074212
        k(   20) = (  -0.2071104   0.1973069   0.1902049), wk =   0.0074212
        k(   21) = (  -0.2071104   0.1973069   0.3386022), wk =   0.0074212
        k(   22) = (  -0.2071104   0.1973069   0.4869994), wk =   0.0074212
        k(   23) = (  -0.2071104   0.1973069   0.6353967), wk =   0.0074212
        k(   24) = (  -0.2071104   0.1973069  -0.8485759), wk =   0.0074212
        k(   25) = (  -0.2071104   0.1973069  -0.7001786), wk =   0.0074212
        k(   26) = (  -0.2071104   0.1973069  -0.5517814), wk =   0.0074212
        k(   27) = (  -0.2071104   0.1973069  -0.4033841), wk =   0.0074212
        k(   28) = (  -0.2071104   0.1973069  -0.2549869), wk =   0.0074212
        k(   29) = (  -0.3106657   0.2959604  -0.1598844), wk =   0.0074212
        k(   30) = (  -0.3106657   0.2959604  -0.0114871), wk =   0.0074212
        k(   31) = (  -0.3106657   0.2959604   0.1369101), wk =   0.0074212
        k(   32) = (  -0.3106657   0.2959604   0.2853074), wk =   0.0074212
        k(   33) = (  -0.3106657   0.2959604   0.4337046), wk =   0.0074212
        k(   34) = (  -0.3106657   0.2959604   0.5821019), wk =   0.0074212
        k(   35) = (  -0.3106657   0.2959604  -0.9018707), wk =   0.0074212
        k(   36) = (  -0.3106657   0.2959604  -0.7534734), wk =   0.0074212
        k(   37) = (  -0.3106657   0.2959604  -0.6050762), wk =   0.0074212
        k(   38) = (  -0.3106657   0.2959604  -0.4566789), wk =   0.0074212
        k(   39) = (  -0.3106657   0.2959604  -0.3082816), wk =   0.0074212
        k(   40) = (   0.0000000   0.1973069   0.0000000), wk =   0.0037106
        k(   41) = (   0.0000000   0.1973069   0.1483973), wk =   0.0074212
        k(   42) = (   0.0000000   0.1973069   0.2967945), wk =   0.0074212
        k(   43) = (   0.0000000   0.1973069   0.4451918), wk =   0.0074212
        k(   44) = (   0.0000000   0.1973069   0.5935890), wk =   0.0074212
        k(   45) = (   0.0000000   0.1973069   0.7419863), wk =   0.0074212
        k(   46) = (  -0.1035552   0.2959604  -0.0532948), wk =   0.0074212
        k(   47) = (  -0.1035552   0.2959604   0.0951025), wk =   0.0074212
        k(   48) = (  -0.1035552   0.2959604   0.2434997), wk =   0.0074212
        k(   49) = (  -0.1035552   0.2959604   0.3918970), wk =   0.0074212
        k(   50) = (  -0.1035552   0.2959604   0.5402942), wk =   0.0074212
        k(   51) = (  -0.1035552   0.2959604   0.6886915), wk =   0.0074212
        k(   52) = (  -0.1035552   0.2959604  -0.7952811), wk =   0.0074212
        k(   53) = (  -0.1035552   0.2959604  -0.6468838), wk =   0.0074212
        k(   54) = (  -0.1035552   0.2959604  -0.4984866), wk =   0.0074212
        k(   55) = (  -0.1035552   0.2959604  -0.3500893), wk =   0.0074212
        k(   56) = (  -0.1035552   0.2959604  -0.2016921), wk =   0.0074212
        k(   57) = (  -0.2071104   0.3946138  -0.1065896), wk =   0.0074212
        k(   58) = (  -0.2071104   0.3946138   0.0418077), wk =   0.0074212
        k(   59) = (  -0.2071104   0.3946138   0.1902049), wk =   0.0074212
        k(   60) = (  -0.2071104   0.3946138   0.3386022), wk =   0.0074212
        k(   61) = (  -0.2071104   0.3946138   0.4869994), wk =   0.0074212
        k(   62) = (  -0.2071104   0.3946138   0.6353967), wk =   0.0074212
        k(   63) = (  -0.2071104   0.3946138  -0.8485759), wk =   0.0074212
        k(   64) = (  -0.2071104   0.3946138  -0.7001786), wk =   0.0074212
        k(   65) = (  -0.2071104   0.3946138  -0.5517814), wk =   0.0074212
        k(   66) = (  -0.2071104   0.3946138  -0.4033841), wk =   0.0074212
        k(   67) = (  -0.2071104   0.3946138  -0.2549869), wk =   0.0074212
        k(   68) = (   0.4142209  -0.1973069   0.2131792), wk =   0.0074212
        k(   69) = (   0.4142209  -0.1973069   0.3615764), wk =   0.0074212
        k(   70) = (   0.4142209  -0.1973069   0.5099737), wk =   0.0074212
        k(   71) = (   0.4142209  -0.1973069   0.6583710), wk =   0.0074212
        k(   72) = (   0.4142209  -0.1973069   0.8067682), wk =   0.0074212
        k(   73) = (   0.4142209  -0.1973069   0.9551655), wk =   0.0074212
        k(   74) = (   0.4142209  -0.1973069  -0.5288071), wk =   0.0074212
        k(   75) = (   0.4142209  -0.1973069  -0.3804098), wk =   0.0074212
        k(   76) = (   0.4142209  -0.1973069  -0.2320126), wk =   0.0074212
        k(   77) = (   0.4142209  -0.1973069  -0.0836153), wk =   0.0074212
        k(   78) = (   0.4142209  -0.1973069   0.0647819), wk =   0.0074212
        k(   79) = (   0.3106657  -0.0986535   0.1598844), wk =   0.0074212
        k(   80) = (   0.3106657  -0.0986535   0.3082816), wk =   0.0074212
        k(   81) = (   0.3106657  -0.0986535   0.4566789), wk =   0.0074212
        k(   82) = (   0.3106657  -0.0986535   0.6050762), wk =   0.0074212
        k(   83) = (   0.3106657  -0.0986535   0.7534734), wk =   0.0074212
        k(   84) = (   0.3106657  -0.0986535   0.9018707), wk =   0.0074212
        k(   85) = (   0.3106657  -0.0986535  -0.5821019), wk =   0.0074212
        k(   86) = (   0.3106657  -0.0986535  -0.4337046), wk =   0.0074212
        k(   87) = (   0.3106657  -0.0986535  -0.2853074), wk =   0.0074212
        k(   88) = (   0.3106657  -0.0986535  -0.1369101), wk =   0.0074212
        k(   89) = (   0.3106657  -0.0986535   0.0114871), wk =   0.0074212
        k(   90) = (   0.2071104  -0.0000000   0.1065896), wk =   0.0037106
        k(   91) = (   0.2071104  -0.0000000   0.2549869), wk =   0.0037106
        k(   92) = (   0.2071104  -0.0000000   0.4033841), wk =   0.0037106
        k(   93) = (   0.2071104  -0.0000000   0.5517814), wk =   0.0037106
        k(   94) = (   0.2071104  -0.0000000   0.7001786), wk =   0.0037106
        k(   95) = (   0.2071104  -0.0000000   0.8485759), wk =   0.0037106
        k(   96) = (   0.2071104  -0.0000000  -0.6353967), wk =   0.0037106
        k(   97) = (   0.2071104  -0.0000000  -0.4869994), wk =   0.0037106
        k(   98) = (   0.2071104  -0.0000000  -0.3386022), wk =   0.0037106
        k(   99) = (   0.2071104  -0.0000000  -0.1902049), wk =   0.0037106
        k(  100) = (   0.2071104  -0.0000000  -0.0418077), wk =   0.0037106
        k(  101) = (   0.0000000   0.3946138   0.0000000), wk =   0.0037106
        k(  102) = (   0.0000000   0.3946138   0.1483973), wk =   0.0074212
        k(  103) = (   0.0000000   0.3946138   0.2967945), wk =   0.0074212
        k(  104) = (   0.0000000   0.3946138   0.4451918), wk =   0.0074212
        k(  105) = (   0.0000000   0.3946138   0.5935890), wk =   0.0074212
        k(  106) = (   0.0000000   0.3946138   0.7419863), wk =   0.0074212
        k(  107) = (  -0.1035552   0.4932673  -0.0532948), wk =   0.0074212
        k(  108) = (  -0.1035552   0.4932673   0.0951025), wk =   0.0074212
        k(  109) = (  -0.1035552   0.4932673   0.2434997), wk =   0.0074212
        k(  110) = (  -0.1035552   0.4932673   0.3918970), wk =   0.0074212
        k(  111) = (  -0.1035552   0.4932673   0.5402942), wk =   0.0074212
        k(  112) = (  -0.1035552   0.4932673   0.6886915), wk =   0.0074212
        k(  113) = (  -0.1035552   0.4932673  -0.7952811), wk =   0.0074212
        k(  114) = (  -0.1035552   0.4932673  -0.6468838), wk =   0.0074212
        k(  115) = (  -0.1035552   0.4932673  -0.4984866), wk =   0.0074212
        k(  116) = (  -0.1035552   0.4932673  -0.3500893), wk =   0.0074212
        k(  117) = (  -0.1035552   0.4932673  -0.2016921), wk =   0.0074212
        k(  118) = (   0.5177761  -0.0986535   0.2664740), wk =   0.0074212
        k(  119) = (   0.5177761  -0.0986535   0.4148712), wk =   0.0074212
        k(  120) = (   0.5177761  -0.0986535   0.5632685), wk =   0.0074212
        k(  121) = (   0.5177761  -0.0986535   0.7116658), wk =   0.0074212
        k(  122) = (   0.5177761  -0.0986535   0.8600630), wk =   0.0074212
        k(  123) = (   0.5177761  -0.0986535   1.0084603), wk =   0.0074212
        k(  124) = (   0.5177761  -0.0986535  -0.4755123), wk =   0.0074212
        k(  125) = (   0.5177761  -0.0986535  -0.3271150), wk =   0.0074212
        k(  126) = (   0.5177761  -0.0986535  -0.1787178), wk =   0.0074212
        k(  127) = (   0.5177761  -0.0986535  -0.0303205), wk =   0.0074212
        k(  128) = (   0.5177761  -0.0986535   0.1180767), wk =   0.0074212
        k(  129) = (   0.4142209  -0.0000000   0.2131792), wk =   0.0037106
        k(  130) = (   0.4142209  -0.0000000   0.3615764), wk =   0.0037106
        k(  131) = (   0.4142209  -0.0000000   0.5099737), wk =   0.0037106
        k(  132) = (   0.4142209  -0.0000000   0.6583710), wk =   0.0037106
        k(  133) = (   0.4142209  -0.0000000   0.8067682), wk =   0.0037106
        k(  134) = (   0.4142209  -0.0000000   0.9551655), wk =   0.0037106
        k(  135) = (   0.4142209  -0.0000000  -0.5288071), wk =   0.0037106
        k(  136) = (   0.4142209  -0.0000000  -0.3804098), wk =   0.0037106
        k(  137) = (   0.4142209  -0.0000000  -0.2320126), wk =   0.0037106
        k(  138) = (   0.4142209  -0.0000000  -0.0836153), wk =   0.0037106
        k(  139) = (   0.4142209  -0.0000000   0.0647819), wk =   0.0037106
        k(  140) = (   0.0000000   0.5919208   0.0000000), wk =   0.0037106
        k(  141) = (   0.0000000   0.5919208   0.1483973), wk =   0.0074212
        k(  142) = (   0.0000000   0.5919208   0.2967945), wk =   0.0074212
        k(  143) = (   0.0000000   0.5919208   0.4451918), wk =   0.0074212
        k(  144) = (   0.0000000   0.5919208   0.5935890), wk =   0.0074212
        k(  145) = (   0.0000000   0.5919208   0.7419863), wk =   0.0074212
        k(  146) = (   0.6213313  -0.0000000   0.3197688), wk =   0.0037106
        k(  147) = (   0.6213313  -0.0000000   0.4681660), wk =   0.0037106
        k(  148) = (   0.6213313  -0.0000000   0.6165633), wk =   0.0037106
        k(  149) = (   0.6213313  -0.0000000   0.7649606), wk =   0.0037106
        k(  150) = (   0.6213313  -0.0000000   0.9133578), wk =   0.0037106
        k(  151) = (   0.6213313  -0.0000000   1.0617551), wk =   0.0037106
        k(  152) = (   0.6213313  -0.0000000  -0.4222175), wk =   0.0037106
        k(  153) = (   0.6213313  -0.0000000  -0.2738202), wk =   0.0037106
        k(  154) = (   0.6213313  -0.0000000  -0.1254230), wk =   0.0037106
        k(  155) = (   0.6213313  -0.0000000   0.0229743), wk =   0.0037106
        k(  156) = (   0.6213313  -0.0000000   0.1713715), wk =   0.0037106

                       cryst. coord.
        k(    1) = (   0.0000000   0.0000000   0.0000000), wk =   0.0018553
        k(    2) = (   0.0000000   0.0000000   0.0909091), wk =   0.0037106
        k(    3) = (   0.0000000   0.0000000   0.1818182), wk =   0.0037106
        k(    4) = (   0.0000000   0.0000000   0.2727273), wk =   0.0037106
        k(    5) = (   0.0000000   0.0000000   0.3636364), wk =   0.0037106
        k(    6) = (   0.0000000   0.0000000   0.4545455), wk =   0.0037106
        k(    7) = (   0.0000000   0.1428571  -0.0000000), wk =   0.0074212
        k(    8) = (   0.0000000   0.1428571   0.0909091), wk =   0.0074212
        k(    9) = (   0.0000000   0.1428571   0.1818182), wk =   0.0074212
        k(   10) = (   0.0000000   0.1428571   0.2727273), wk =   0.0074212
        k(   11) = (   0.0000000   0.1428571   0.3636364), wk =   0.0074212
        k(   12) = (   0.0000000   0.1428571   0.4545455), wk =   0.0074212
        k(   13) = (   0.0000000   0.1428571  -0.4545455), wk =   0.0074212
        k(   14) = (   0.0000000   0.1428571  -0.3636364), wk =   0.0074212
        k(   15) = (   0.0000000   0.1428571  -0.2727273), wk =   0.0074212
        k(   16) = (   0.0000000   0.1428571  -0.1818182), wk =   0.0074212
        k(   17) = (   0.0000000   0.1428571  -0.0909091), wk =   0.0074212
        k(   18) = (   0.0000000   0.2857143  -0.0000000), wk =   0.0074212
        k(   19) = (   0.0000000   0.2857143   0.0909091), wk =   0.0074212
        k(   20) = (   0.0000000   0.2857143   0.1818182), wk =   0.0074212
        k(   21) = (   0.0000000   0.2857143   0.2727273), wk =   0.0074212
        k(   22) = (   0.0000000   0.2857143   0.3636364), wk =   0.0074212
        k(   23) = (   0.0000000   0.2857143   0.4545455), wk =   0.0074212
        k(   24) = (   0.0000000   0.2857143  -0.4545455), wk =   0.0074212
        k(   25) = (   0.0000000   0.2857143  -0.3636364), wk =   0.0074212
        k(   26) = (   0.0000000   0.2857143  -0.2727273), wk =   0.0074212
        k(   27) = (   0.0000000   0.2857143  -0.1818182), wk =   0.0074212
        k(   28) = (   0.0000000   0.2857143  -0.0909091), wk =   0.0074212
        k(   29) = (   0.0000000   0.4285714  -0.0000000), wk =   0.0074212
        k(   30) = (   0.0000000   0.4285714   0.0909091), wk =   0.0074212
        k(   31) = (   0.0000000   0.4285714   0.1818182), wk =   0.0074212
        k(   32) = (   0.0000000   0.4285714   0.2727273), wk =   0.0074212
        k(   33) = (   0.0000000   0.4285714   0.3636364), wk =   0.0074212
        k(   34) = (   0.0000000   0.4285714   0.4545455), wk =   0.0074212
        k(   35) = (   0.0000000   0.4285714  -0.4545455), wk =   0.0074212
        k(   36) = (   0.0000000   0.4285714  -0.3636364), wk =   0.0074212
        k(   37) = (   0.0000000   0.4285714  -0.2727273), wk =   0.0074212
        k(   38) = (   0.0000000   0.4285714  -0.1818182), wk =   0.0074212
        k(   39) = (   0.0000000   0.4285714  -0.0909091), wk =   0.0074212
        k(   40) = (   0.1428571   0.1428571  -0.0000000), wk =   0.0037106
        k(   41) = (   0.1428571   0.1428571   0.0909091), wk =   0.0074212
        k(   42) = (   0.1428571   0.1428571   0.1818182), wk =   0.0074212
        k(   43) = (   0.1428571   0.1428571   0.2727273), wk =   0.0074212
        k(   44) = (   0.1428571   0.1428571   0.3636364), wk =   0.0074212
        k(   45) = (   0.1428571   0.1428571   0.4545455), wk =   0.0074212
        k(   46) = (   0.1428571   0.2857143  -0.0000000), wk =   0.0074212
        k(   47) = (   0.1428571   0.2857143   0.0909091), wk =   0.0074212
        k(   48) = (   0.1428571   0.2857143   0.1818182), wk =   0.0074212
        k(   49) = (   0.1428571   0.2857143   0.2727273), wk =   0.0074212
        k(   50) = (   0.1428571   0.2857143   0.3636364), wk =   0.0074212
        k(   51) = (   0.1428571   0.2857143   0.4545455), wk =   0.0074212
        k(   52) = (   0.1428571   0.2857143  -0.4545455), wk =   0.0074212
        k(   53) = (   0.1428571   0.2857143  -0.3636364), wk =   0.0074212
        k(   54) = (   0.1428571   0.2857143  -0.2727273), wk =   0.0074212
        k(   55) = (   0.1428571   0.2857143  -0.1818182), wk =   0.0074212
        k(   56) = (   0.1428571   0.2857143  -0.0909091), wk =   0.0074212
        k(   57) = (   0.1428571   0.4285714  -0.0000000), wk =   0.0074212
        k(   58) = (   0.1428571   0.4285714   0.0909091), wk =   0.0074212
        k(   59) = (   0.1428571   0.4285714   0.1818182), wk =   0.0074212
        k(   60) = (   0.1428571   0.4285714   0.2727273), wk =   0.0074212
        k(   61) = (   0.1428571   0.4285714   0.3636364), wk =   0.0074212
        k(   62) = (   0.1428571   0.4285714   0.4545455), wk =   0.0074212
        k(   63) = (   0.1428571   0.4285714  -0.4545455), wk =   0.0074212
        k(   64) = (   0.1428571   0.4285714  -0.3636364), wk =   0.0074212
        k(   65) = (   0.1428571   0.4285714  -0.2727273), wk =   0.0074212
        k(   66) = (   0.1428571   0.4285714  -0.1818182), wk =   0.0074212
        k(   67) = (   0.1428571   0.4285714  -0.0909091), wk =   0.0074212
        k(   68) = (   0.1428571  -0.4285714   0.0000000), wk =   0.0074212
        k(   69) = (   0.1428571  -0.4285714   0.0909091), wk =   0.0074212
        k(   70) = (   0.1428571  -0.4285714   0.1818182), wk =   0.0074212
        k(   71) = (   0.1428571  -0.4285714   0.2727273), wk =   0.0074212
        k(   72) = (   0.1428571  -0.4285714   0.3636364), wk =   0.0074212
        k(   73) = (   0.1428571  -0.4285714   0.4545455), wk =   0.0074212
        k(   74) = (   0.1428571  -0.4285714  -0.4545455), wk =   0.0074212
        k(   75) = (   0.1428571  -0.4285714  -0.3636364), wk =   0.0074212
        k(   76) = (   0.1428571  -0.4285714  -0.2727273), wk =   0.0074212
        k(   77) = (   0.1428571  -0.4285714  -0.1818182), wk =   0.0074212
        k(   78) = (   0.1428571  -0.4285714  -0.0909091), wk =   0.0074212
        k(   79) = (   0.1428571  -0.2857143   0.0000000), wk =   0.0074212
        k(   80) = (   0.1428571  -0.2857143   0.0909091), wk =   0.0074212
        k(   81) = (   0.1428571  -0.2857143   0.1818182), wk =   0.0074212
        k(   82) = (   0.1428571  -0.2857143   0.2727273), wk =   0.0074212
        k(   83) = (   0.1428571  -0.2857143   0.3636364), wk =   0.0074212
        k(   84) = (   0.1428571  -0.2857143   0.4545455), wk =   0.0074212
        k(   85) = (   0.1428571  -0.2857143  -0.4545455), wk =   0.0074212
        k(   86) = (   0.1428571  -0.2857143  -0.3636364), wk =   0.0074212
        k(   87) = (   0.1428571  -0.2857143  -0.2727273), wk =   0.0074212
        k(   88) = (   0.1428571  -0.2857143  -0.1818182), wk =   0.0074212
        k(   89) = (   0.1428571  -0.2857143  -0.0909091), wk =   0.0074212
        k(   90) = (   0.1428571  -0.1428571   0.0000000), wk =   0.0037106
        k(   91) = (   0.1428571  -0.1428571   0.0909091), wk =   0.0037106
        k(   92) = (   0.1428571  -0.1428571   0.1818182), wk =   0.0037106
        k(   93) = (   0.1428571  -0.1428571   0.2727273), wk =   0.0037106
        k(   94) = (   0.1428571  -0.1428571   0.3636364), wk =   0.0037106
        k(   95) = (   0.1428571  -0.1428571   0.4545455), wk =   0.0037106
        k(   96) = (   0.1428571  -0.1428571  -0.4545455), wk =   0.0037106
        k(   97) = (   0.1428571  -0.1428571  -0.3636364), wk =   0.0037106
        k(   98) = (   0.1428571  -0.1428571  -0.2727273), wk =   0.0037106
        k(   99) = (   0.1428571  -0.1428571  -0.1818182), wk =   0.0037106
        k(  100) = (   0.1428571  -0.1428571  -0.0909091), wk =   0.0037106
        k(  101) = (   0.2857143   0.2857143  -0.0000000), wk =   0.0037106
        k(  102) = (   0.2857143   0.2857143   0.0909091), wk =   0.0074212
        k(  103) = (   0.2857143   0.2857143   0.1818182), wk =   0.0074212
        k(  104) = (   0.2857143   0.2857143   0.2727273), wk =   0.0074212
        k(  105) = (   0.2857143   0.2857143   0.3636364), wk =   0.0074212
        k(  106) = (   0.2857143   0.2857143   0.4545455), wk =   0.0074212
        k(  107) = (   0.2857143   0.4285714  -0.0000000), wk =   0.0074212
        k(  108) = (   0.2857143   0.4285714   0.0909091), wk =   0.0074212
        k(  109) = (   0.2857143   0.4285714   0.1818182), wk =   0.0074212
        k(  110) = (   0.2857143   0.4285714   0.2727273), wk =   0.0074212
        k(  111) = (   0.2857143   0.4285714   0.3636364), wk =   0.0074212
        k(  112) = (   0.2857143   0.4285714   0.4545455), wk =   0.0074212
        k(  113) = (   0.2857143   0.4285714  -0.4545455), wk =   0.0074212
        k(  114) = (   0.2857143   0.4285714  -0.3636364), wk =   0.0074212
        k(  115) = (   0.2857143   0.4285714  -0.2727273), wk =   0.0074212
        k(  116) = (   0.2857143   0.4285714  -0.1818182), wk =   0.0074212
        k(  117) = (   0.2857143   0.4285714  -0.0909091), wk =   0.0074212
        k(  118) = (   0.2857143  -0.4285714   0.0000000), wk =   0.0074212
        k(  119) = (   0.2857143  -0.4285714   0.0909091), wk =   0.0074212
        k(  120) = (   0.2857143  -0.4285714   0.1818182), wk =   0.0074212
        k(  121) = (   0.2857143  -0.4285714   0.2727273), wk =   0.0074212
        k(  122) = (   0.2857143  -0.4285714   0.3636364), wk =   0.0074212
        k(  123) = (   0.2857143  -0.4285714   0.4545455), wk =   0.0074212
        k(  124) = (   0.2857143  -0.4285714  -0.4545455), wk =   0.0074212
        k(  125) = (   0.2857143  -0.4285714  -0.3636364), wk =   0.0074212
        k(  126) = (   0.2857143  -0.4285714  -0.2727273), wk =   0.0074212
        k(  127) = (   0.2857143  -0.4285714  -0.1818182), wk =   0.0074212
        k(  128) = (   0.2857143  -0.4285714  -0.0909091), wk =   0.0074212
        k(  129) = (   0.2857143  -0.2857143   0.0000000), wk =   0.0037106
        k(  130) = (   0.2857143  -0.2857143   0.0909091), wk =   0.0037106
        k(  131) = (   0.2857143  -0.2857143   0.1818182), wk =   0.0037106
        k(  132) = (   0.2857143  -0.2857143   0.2727273), wk =   0.0037106
        k(  133) = (   0.2857143  -0.2857143   0.3636364), wk =   0.0037106
        k(  134) = (   0.2857143  -0.2857143   0.4545455), wk =   0.0037106
        k(  135) = (   0.2857143  -0.2857143  -0.4545455), wk =   0.0037106
        k(  136) = (   0.2857143  -0.2857143  -0.3636364), wk =   0.0037106
        k(  137) = (   0.2857143  -0.2857143  -0.2727273), wk =   0.0037106
        k(  138) = (   0.2857143  -0.2857143  -0.1818182), wk =   0.0037106
        k(  139) = (   0.2857143  -0.2857143  -0.0909091), wk =   0.0037106
        k(  140) = (   0.4285714   0.4285714   0.0000000), wk =   0.0037106
        k(  141) = (   0.4285714   0.4285714   0.0909091), wk =   0.0074212
        k(  142) = (   0.4285714   0.4285714   0.1818182), wk =   0.0074212
        k(  143) = (   0.4285714   0.4285714   0.2727273), wk =   0.0074212
        k(  144) = (   0.4285714   0.4285714   0.3636364), wk =   0.0074212
        k(  145) = (   0.4285714   0.4285714   0.4545455), wk =   0.0074212
        k(  146) = (   0.4285714  -0.4285714   0.0000000), wk =   0.0037106
        k(  147) = (   0.4285714  -0.4285714   0.0909091), wk =   0.0037106
        k(  148) = (   0.4285714  -0.4285714   0.1818182), wk =   0.0037106
        k(  149) = (   0.4285714  -0.4285714   0.2727273), wk =   0.0037106
        k(  150) = (   0.4285714  -0.4285714   0.3636364), wk =   0.0037106
        k(  151) = (   0.4285714  -0.4285714   0.4545455), wk =   0.0037106
        k(  152) = (   0.4285714  -0.4285714  -0.4545455), wk =   0.0037106
        k(  153) = (   0.4285714  -0.4285714  -0.3636364), wk =   0.0037106
        k(  154) = (   0.4285714  -0.4285714  -0.2727273), wk =   0.0037106
        k(  155) = (   0.4285714  -0.4285714  -0.1818182), wk =   0.0037106
        k(  156) = (   0.4285714  -0.4285714  -0.0909091), wk =   0.0037106

     Dense  grid:   156471 G-vectors     FFT dimensions: (  80,  80,  60)

     Smooth grid:    55363 G-vectors     FFT dimensions: (  60,  60,  40)

     Dynamical RAM for                 wfc:       3.06 MB

     Dynamical RAM for     wfc (w. buffer):     957.76 MB

     Dynamical RAM for           str. fact:       2.39 MB

     Dynamical RAM for           local pot:       0.00 MB

     Dynamical RAM for          nlocal pot:       6.75 MB

     Dynamical RAM for                qrad:       0.46 MB

     Dynamical RAM for          rho,v,vnew:      31.90 MB

     Dynamical RAM for               rhoin:      10.63 MB

     Dynamical RAM for            rho*nmix:      76.40 MB

     Dynamical RAM for           G-vectors:       9.38 MB

     Dynamical RAM for          h,s,v(r/c):       0.15 MB

     Dynamical RAM for          <psi|beta>:       0.03 MB

     Dynamical RAM for                 psi:       6.12 MB

     Dynamical RAM for                hpsi:       6.12 MB

     Dynamical RAM for                spsi:       6.12 MB

     Dynamical RAM for      wfcinit/wfcrot:       6.14 MB

     Dynamical RAM for           addusdens:     124.15 MB

     Dynamical RAM for          addusforce:     157.59 MB

     Dynamical RAM for         addusstress:     122.96 MB

     Estimated static dynamical RAM per process >       1.02 GB

     Estimated max dynamical RAM per process >       1.25 GB

     Atomic positions and unit cell read from directory:
     ./out/aiida.save/
 

     Check: negative core charge=   -0.000003
     Generating pointlists ...
     new r_m :   0.0932 (alat units)  1.1525 (a.u.) for type    1

     The initial density is read from file :
     ./out/aiida.save/charge-density

     Starting wfcs from file
     Checking if some PAW data can be deallocated... 

     total cpu time spent up to now is        3.7 secs

     per-process dynamical memory:   461.2 Mb

     Self-consistent Calculation
[tb_dev] Currently allocated     6.10E-05 Mbytes, locked:    0 /   2
[tb_pin] Currently allocated     0.00E+00 Mbytes, locked:    0 /   0

     iteration #  1     ecut=    50.00 Ry     beta= 0.10
     Davidson diagonalization with overlap

---- Real-time Memory Report at c_bands before calling an iterative solver
           784 MiB given to the printing process from OS
           459 MiB allocation reported by mallinfo(arena+hblkhd)
         58957 MiB available memory on the node where the printing process lives
     GPU memory used/free/total (MiB): 1004 / 15276 / 16280
------------------
     ethr =  1.00E-05,  avg # of iterations =  2.0

     Threshold (ethr) on eigenvalues was too large:
     Diagonalizing with lowered threshold

     Davidson diagonalization with overlap

---- Real-time Memory Report at c_bands before calling an iterative solver
          2094 MiB given to the printing process from OS
          1739 MiB allocation reported by mallinfo(arena+hblkhd)
         56209 MiB available memory on the node where the printing process lives
     GPU memory used/free/total (MiB): 1504 / 14776 / 16280
------------------
     ethr =  5.82E-08,  avg # of iterations =  5.2

     total cpu time spent up to now is       24.3 secs

     total energy              =    -326.72150235 Ry
     estimated scf accuracy    <       0.00001962 Ry

     total magnetization       =     0.49 Bohr mag/cell
     absolute magnetization    =     4.22 Bohr mag/cell
[tb_dev] Currently allocated     4.12E+00 Mbytes, locked:    0 /  14
[tb_pin] Currently allocated     0.00E+00 Mbytes, locked:    0 /   0

     iteration #  2     ecut=    50.00 Ry     beta= 0.10
     Davidson diagonalization with overlap

---- Real-time Memory Report at c_bands before calling an iterative solver
          2308 MiB given to the printing process from OS
          1751 MiB allocation reported by mallinfo(arena+hblkhd)
         56171 MiB available memory on the node where the printing process lives
     GPU memory used/free/total (MiB): 1556 / 14724 / 16280
------------------
     ethr =  4.09E-08,  avg # of iterations =  1.1

     total cpu time spent up to now is       31.3 secs

     total energy              =    -326.72150309 Ry
     estimated scf accuracy    <       0.00005999 Ry

     total magnetization       =     0.50 Bohr mag/cell
     absolute magnetization    =     4.21 Bohr mag/cell
[tb_dev] Currently allocated     4.12E+00 Mbytes, locked:    0 /  14
[tb_pin] Currently allocated     0.00E+00 Mbytes, locked:    0 /   0

     iteration #  3     ecut=    50.00 Ry     beta= 0.10
     Davidson diagonalization with overlap

---- Real-time Memory Report at c_bands before calling an iterative solver
          2479 MiB given to the printing process from OS
          1770 MiB allocation reported by mallinfo(arena+hblkhd)
         56148 MiB available memory on the node where the printing process lives
     GPU memory used/free/total (MiB): 1556 / 14724 / 16280
------------------
     ethr =  4.09E-08,  avg # of iterations =  1.0

     total cpu time spent up to now is       38.2 secs

     total energy              =    -326.72151117 Ry
     estimated scf accuracy    <       0.00000656 Ry

     total magnetization       =     0.50 Bohr mag/cell
     absolute magnetization    =     4.22 Bohr mag/cell
[tb_dev] Currently allocated     4.12E+00 Mbytes, locked:    0 /  14
[tb_pin] Currently allocated     0.00E+00 Mbytes, locked:    0 /   0

     iteration #  4     ecut=    50.00 Ry     beta= 0.10
     Davidson diagonalization with overlap

---- Real-time Memory Report at c_bands before calling an iterative solver
          2570 MiB given to the printing process from OS
          1790 MiB allocation reported by mallinfo(arena+hblkhd)
         56127 MiB available memory on the node where the printing process lives
     GPU memory used/free/total (MiB): 1556 / 14724 / 16280
------------------
     ethr =  1.37E-08,  avg # of iterations =  4.8

     total cpu time spent up to now is       49.1 secs

     total energy              =    -326.72151206 Ry
     estimated scf accuracy    <       0.00000553 Ry

     total magnetization       =     0.50 Bohr mag/cell
     absolute magnetization    =     4.22 Bohr mag/cell
[tb_dev] Currently allocated     4.12E+00 Mbytes, locked:    0 /  14
[tb_pin] Currently allocated     0.00E+00 Mbytes, locked:    0 /   0

     iteration #  5     ecut=    50.00 Ry     beta= 0.10
     Davidson diagonalization with overlap

---- Real-time Memory Report at c_bands before calling an iterative solver
          2644 MiB given to the printing process from OS
          1810 MiB allocation reported by mallinfo(arena+hblkhd)
         56110 MiB available memory on the node where the printing process lives
     GPU memory used/free/total (MiB): 1584 / 14696 / 16280
------------------
     ethr =  1.15E-08,  avg # of iterations =  1.0

     total cpu time spent up to now is       56.2 secs

     total energy              =    -326.72149386 Ry
     estimated scf accuracy    <       0.00000913 Ry

     total magnetization       =     0.49 Bohr mag/cell
     absolute magnetization    =     4.22 Bohr mag/cell
[tb_dev] Currently allocated     4.12E+00 Mbytes, locked:    0 /  14
[tb_pin] Currently allocated     0.00E+00 Mbytes, locked:    0 /   0

     iteration #  6     ecut=    50.00 Ry     beta= 0.10
     Davidson diagonalization with overlap

---- Real-time Memory Report at c_bands before calling an iterative solver
          2718 MiB given to the printing process from OS
          1830 MiB allocation reported by mallinfo(arena+hblkhd)
         56090 MiB available memory on the node where the printing process lives
     GPU memory used/free/total (MiB): 1584 / 14696 / 16280
------------------
     ethr =  1.15E-08,  avg # of iterations =  8.0

     total cpu time spent up to now is       73.2 secs

     total energy              =    -326.72151241 Ry
     estimated scf accuracy    <       0.00000792 Ry

     total magnetization       =     0.49 Bohr mag/cell
     absolute magnetization    =     4.22 Bohr mag/cell
[tb_dev] Currently allocated     4.12E+00 Mbytes, locked:    0 /  14
[tb_pin] Currently allocated     0.00E+00 Mbytes, locked:    0 /   0

     iteration #  7     ecut=    50.00 Ry     beta= 0.10
     Davidson diagonalization with overlap

---- Real-time Memory Report at c_bands before calling an iterative solver
          2750 MiB given to the printing process from OS
          1850 MiB allocation reported by mallinfo(arena+hblkhd)
         56073 MiB available memory on the node where the printing process lives
     GPU memory used/free/total (MiB): 1618 / 14662 / 16280
------------------
     ethr =  1.15E-08,  avg # of iterations =  5.7

     total cpu time spent up to now is       86.8 secs

     total energy              =    -326.72153019 Ry
     estimated scf accuracy    <       0.00000612 Ry

     total magnetization       =     0.50 Bohr mag/cell
     absolute magnetization    =     4.22 Bohr mag/cell
[tb_dev] Currently allocated     4.12E+00 Mbytes, locked:    0 /  14
[tb_pin] Currently allocated     0.00E+00 Mbytes, locked:    0 /   0

     iteration #  8     ecut=    50.00 Ry     beta= 0.10
     Davidson diagonalization with overlap

---- Real-time Memory Report at c_bands before calling an iterative solver
          2782 MiB given to the printing process from OS
          1870 MiB allocation reported by mallinfo(arena+hblkhd)
         56052 MiB available memory on the node where the printing process lives
     GPU memory used/free/total (MiB): 1650 / 14630 / 16280
------------------
     ethr =  1.15E-08,  avg # of iterations =  1.0

     total cpu time spent up to now is       93.7 secs

     total energy              =    -326.72152885 Ry
     estimated scf accuracy    <       0.00000603 Ry

     total magnetization       =     0.50 Bohr mag/cell
     absolute magnetization    =     4.22 Bohr mag/cell
[tb_dev] Currently allocated     4.12E+00 Mbytes, locked:    0 /  14
[tb_pin] Currently allocated     0.00E+00 Mbytes, locked:    0 /   0

     iteration #  9     ecut=    50.00 Ry     beta= 0.10
     Davidson diagonalization with overlap

---- Real-time Memory Report at c_bands before calling an iterative solver
          2802 MiB given to the printing process from OS
          1889 MiB allocation reported by mallinfo(arena+hblkhd)
         56033 MiB available memory on the node where the printing process lives
     GPU memory used/free/total (MiB): 1650 / 14630 / 16280
------------------
     ethr =  1.15E-08,  avg # of iterations =  1.0

     total cpu time spent up to now is      100.7 secs

     total energy              =    -326.72153770 Ry
     estimated scf accuracy    <       0.00000558 Ry

     total magnetization       =     0.50 Bohr mag/cell
     absolute magnetization    =     4.21 Bohr mag/cell
[tb_dev] Currently allocated     4.12E+00 Mbytes, locked:    0 /  14
[tb_pin] Currently allocated     0.00E+00 Mbytes, locked:    0 /   0

     iteration # 10     ecut=    50.00 Ry     beta= 0.10
     Davidson diagonalization with overlap

---- Real-time Memory Report at c_bands before calling an iterative solver
          2821 MiB given to the printing process from OS
          1909 MiB allocation reported by mallinfo(arena+hblkhd)
         56013 MiB available memory on the node where the printing process lives
     GPU memory used/free/total (MiB): 1650 / 14630 / 16280
------------------
     ethr =  1.15E-08,  avg # of iterations =  4.9

     total cpu time spent up to now is      113.2 secs

     total energy              =    -326.72154918 Ry
     estimated scf accuracy    <       0.00000494 Ry

     total magnetization       =     0.50 Bohr mag/cell
     absolute magnetization    =     4.22 Bohr mag/cell
[tb_dev] Currently allocated     4.12E+00 Mbytes, locked:    0 /  14
[tb_pin] Currently allocated     0.00E+00 Mbytes, locked:    0 /   0

     iteration # 11     ecut=    50.00 Ry     beta= 0.10
     Davidson diagonalization with overlap

---- Real-time Memory Report at c_bands before calling an iterative solver
          2838 MiB given to the printing process from OS
          1924 MiB allocation reported by mallinfo(arena+hblkhd)
         55999 MiB available memory on the node where the printing process lives
     GPU memory used/free/total (MiB): 1650 / 14630 / 16280
------------------
     ethr =  1.03E-08,  avg # of iterations =  1.2

     total cpu time spent up to now is      120.3 secs

     total energy              =    -326.72154771 Ry
     estimated scf accuracy    <       0.00000537 Ry

     total magnetization       =     0.50 Bohr mag/cell
     absolute magnetization    =     4.22 Bohr mag/cell
[tb_dev] Currently allocated     4.12E+00 Mbytes, locked:    0 /  14
[tb_pin] Currently allocated     0.00E+00 Mbytes, locked:    0 /   0

     iteration # 12     ecut=    50.00 Ry     beta= 0.10
     Davidson diagonalization with overlap

---- Real-time Memory Report at c_bands before calling an iterative solver
          2852 MiB given to the printing process from OS
          1939 MiB allocation reported by mallinfo(arena+hblkhd)
         55986 MiB available memory on the node where the printing process lives
     GPU memory used/free/total (MiB): 1650 / 14630 / 16280
------------------
     ethr =  1.03E-08,  avg # of iterations =  1.0

     total cpu time spent up to now is      127.1 secs

     total energy              =    -326.72153982 Ry
     estimated scf accuracy    <       0.00000487 Ry

     total magnetization       =     0.51 Bohr mag/cell
     absolute magnetization    =     4.22 Bohr mag/cell
[tb_dev] Currently allocated     4.12E+00 Mbytes, locked:    0 /  14
[tb_pin] Currently allocated     0.00E+00 Mbytes, locked:    0 /   0

     iteration # 13     ecut=    50.00 Ry     beta= 0.10
     Davidson diagonalization with overlap

---- Real-time Memory Report at c_bands before calling an iterative solver
          2867 MiB given to the printing process from OS
          1953 MiB allocation reported by mallinfo(arena+hblkhd)
         55973 MiB available memory on the node where the printing process lives
     GPU memory used/free/total (MiB): 1650 / 14630 / 16280
------------------
     ethr =  1.01E-08,  avg # of iterations =  1.6

     total cpu time spent up to now is      134.7 secs

     total energy              =    -326.72152999 Ry
     estimated scf accuracy    <       0.00000583 Ry

     total magnetization       =     0.50 Bohr mag/cell
     absolute magnetization    =     4.21 Bohr mag/cell
[tb_dev] Currently allocated     4.12E+00 Mbytes, locked:    0 /  14
[tb_pin] Currently allocated     0.00E+00 Mbytes, locked:    0 /   0

     iteration # 14     ecut=    50.00 Ry     beta= 0.10
     Davidson diagonalization with overlap

---- Real-time Memory Report at c_bands before calling an iterative solver
          2882 MiB given to the printing process from OS
          1968 MiB allocation reported by mallinfo(arena+hblkhd)
         55957 MiB available memory on the node where the printing process lives
     GPU memory used/free/total (MiB): 1650 / 14630 / 16280
------------------
     ethr =  1.01E-08,  avg # of iterations =  5.5

     total cpu time spent up to now is      147.1 secs

     total energy              =    -326.72152071 Ry
     estimated scf accuracy    <       0.00001385 Ry

     total magnetization       =     0.51 Bohr mag/cell
     absolute magnetization    =     4.21 Bohr mag/cell
[tb_dev] Currently allocated     4.12E+00 Mbytes, locked:    0 /  14
[tb_pin] Currently allocated     0.00E+00 Mbytes, locked:    0 /   0

     iteration # 15     ecut=    50.00 Ry     beta= 0.10
     Davidson diagonalization with overlap

---- Real-time Memory Report at c_bands before calling an iterative solver
          2898 MiB given to the printing process from OS
          1983 MiB allocation reported by mallinfo(arena+hblkhd)
         55943 MiB available memory on the node where the printing process lives
     GPU memory used/free/total (MiB): 1650 / 14630 / 16280
------------------
     ethr =  1.01E-08,  avg # of iterations =  4.4

     total cpu time spent up to now is      158.0 secs

     total energy              =    -326.72143597 Ry
     estimated scf accuracy    <       0.00001606 Ry

     total magnetization       =     0.51 Bohr mag/cell
     absolute magnetization    =     4.22 Bohr mag/cell
[tb_dev] Currently allocated     4.12E+00 Mbytes, locked:    0 /  14
[tb_pin] Currently allocated     0.00E+00 Mbytes, locked:    0 /   0

     iteration # 16     ecut=    50.00 Ry     beta= 0.10
     Davidson diagonalization with overlap

---- Real-time Memory Report at c_bands before calling an iterative solver
          2918 MiB given to the printing process from OS
          1998 MiB allocation reported by mallinfo(arena+hblkhd)
         55928 MiB available memory on the node where the printing process lives
     GPU memory used/free/total (MiB): 1650 / 14630 / 16280
------------------
     ethr =  1.01E-08,  avg # of iterations =  8.6

     total cpu time spent up to now is      176.2 secs

     total energy              =    -326.72141521 Ry
     estimated scf accuracy    <       0.00000534 Ry

     total magnetization       =     0.51 Bohr mag/cell
     absolute magnetization    =     4.21 Bohr mag/cell
[tb_dev] Currently allocated     4.12E+00 Mbytes, locked:    0 /  14
[tb_pin] Currently allocated     0.00E+00 Mbytes, locked:    0 /   0

     iteration # 17     ecut=    50.00 Ry     beta= 0.10
     Davidson diagonalization with overlap

---- Real-time Memory Report at c_bands before calling an iterative solver
          2931 MiB given to the printing process from OS
          2012 MiB allocation reported by mallinfo(arena+hblkhd)
         55912 MiB available memory on the node where the printing process lives
     GPU memory used/free/total (MiB): 1650 / 14630 / 16280
------------------
     ethr =  1.01E-08,  avg # of iterations =  7.4

     total cpu time spent up to now is      192.6 secs

     total energy              =    -326.72153953 Ry
     estimated scf accuracy    <       0.00001072 Ry

     total magnetization       =     0.50 Bohr mag/cell
     absolute magnetization    =     4.22 Bohr mag/cell
[tb_dev] Currently allocated     4.12E+00 Mbytes, locked:    0 /  14
[tb_pin] Currently allocated     0.00E+00 Mbytes, locked:    0 /   0

     iteration # 18     ecut=    50.00 Ry     beta= 0.10
     Davidson diagonalization with overlap

---- Real-time Memory Report at c_bands before calling an iterative solver
          2946 MiB given to the printing process from OS
          2027 MiB allocation reported by mallinfo(arena+hblkhd)
         55898 MiB available memory on the node where the printing process lives
     GPU memory used/free/total (MiB): 1650 / 14630 / 16280
------------------
     ethr =  1.01E-08,  avg # of iterations =  5.8

     total cpu time spent up to now is      206.2 secs

     total energy              =    -326.72153532 Ry
     estimated scf accuracy    <       0.00001585 Ry

     total magnetization       =     0.50 Bohr mag/cell
     absolute magnetization    =     4.22 Bohr mag/cell
[tb_dev] Currently allocated     4.12E+00 Mbytes, locked:    0 /  14
[tb_pin] Currently allocated     0.00E+00 Mbytes, locked:    0 /   0

     iteration # 19     ecut=    50.00 Ry     beta= 0.10
     Davidson diagonalization with overlap

---- Real-time Memory Report at c_bands before calling an iterative solver
          2963 MiB given to the printing process from OS
         -2035 MiB allocation reported by mallinfo(arena+hblkhd)
         55878 MiB available memory on the node where the printing process lives
     GPU memory used/free/total (MiB): 1650 / 14630 / 16280
------------------
     ethr =  1.01E-08,  avg # of iterations =  7.9

     total cpu time spent up to now is      223.3 secs

     total energy              =    -326.72153930 Ry
     estimated scf accuracy    <       0.00000901 Ry

     total magnetization       =     0.50 Bohr mag/cell
     absolute magnetization    =     4.21 Bohr mag/cell
[tb_dev] Currently allocated     4.12E+00 Mbytes, locked:    0 /  14
[tb_pin] Currently allocated     0.00E+00 Mbytes, locked:    0 /   0

     iteration # 20     ecut=    50.00 Ry     beta= 0.10
     Davidson diagonalization with overlap

---- Real-time Memory Report at c_bands before calling an iterative solver
          2983 MiB given to the printing process from OS
         -2021 MiB allocation reported by mallinfo(arena+hblkhd)
         55854 MiB available memory on the node where the printing process lives
     GPU memory used/free/total (MiB): 1650 / 14630 / 16280
------------------
     ethr =  1.01E-08,  avg # of iterations =  8.1

     total cpu time spent up to now is      241.1 secs

     total energy              =    -326.72144577 Ry
     estimated scf accuracy    <       0.00000875 Ry

     total magnetization       =     0.50 Bohr mag/cell
     absolute magnetization    =     4.20 Bohr mag/cell
[tb_dev] Currently allocated     4.12E+00 Mbytes, locked:    0 /  14
[tb_pin] Currently allocated     0.00E+00 Mbytes, locked:    0 /   0

     iteration # 21     ecut=    50.00 Ry     beta= 0.10
     Davidson diagonalization with overlap

---- Real-time Memory Report at c_bands before calling an iterative solver
          2999 MiB given to the printing process from OS
         -2006 MiB allocation reported by mallinfo(arena+hblkhd)
         55838 MiB available memory on the node where the printing process lives
     GPU memory used/free/total (MiB): 1650 / 14630 / 16280
------------------
     ethr =  1.01E-08,  avg # of iterations =  8.1

     total cpu time spent up to now is      258.8 secs

     total energy              =    -326.72156684 Ry
     estimated scf accuracy    <       0.00004362 Ry

     total magnetization       =     0.51 Bohr mag/cell
     absolute magnetization    =     4.22 Bohr mag/cell
[tb_dev] Currently allocated     4.12E+00 Mbytes, locked:    0 /  14
[tb_pin] Currently allocated     0.00E+00 Mbytes, locked:    0 /   0

     iteration # 22     ecut=    50.00 Ry     beta= 0.10
     Davidson diagonalization with overlap

---- Real-time Memory Report at c_bands before calling an iterative solver
          3014 MiB given to the printing process from OS
         -1991 MiB allocation reported by mallinfo(arena+hblkhd)
         55825 MiB available memory on the node where the printing process lives
     GPU memory used/free/total (MiB): 1650 / 14630 / 16280
------------------
     ethr =  1.01E-08,  avg # of iterations =  5.0

     total cpu time spent up to now is      271.2 secs

     total energy              =    -326.72149588 Ry
     estimated scf accuracy    <       0.00001217 Ry

     total magnetization       =     0.51 Bohr mag/cell
     absolute magnetization    =     4.22 Bohr mag/cell
[tb_dev] Currently allocated     4.12E+00 Mbytes, locked:    0 /  14
[tb_pin] Currently allocated     0.00E+00 Mbytes, locked:    0 /   0

     iteration # 23     ecut=    50.00 Ry     beta= 0.10
     Davidson diagonalization with overlap

---- Real-time Memory Report at c_bands before calling an iterative solver
          3030 MiB given to the printing process from OS
         -1976 MiB allocation reported by mallinfo(arena+hblkhd)
         55808 MiB available memory on the node where the printing process lives
     GPU memory used/free/total (MiB): 1650 / 14630 / 16280
------------------
     ethr =  1.01E-08,  avg # of iterations =  7.8

     total cpu time spent up to now is      288.5 secs

     total energy              =    -326.72162341 Ry
     estimated scf accuracy    <       0.00000283 Ry

     total magnetization       =     0.49 Bohr mag/cell
     absolute magnetization    =     4.20 Bohr mag/cell
[tb_dev] Currently allocated     4.12E+00 Mbytes, locked:    0 /  14
[tb_pin] Currently allocated     0.00E+00 Mbytes, locked:    0 /   0

     iteration # 24     ecut=    50.00 Ry     beta= 0.10
     Davidson diagonalization with overlap

---- Real-time Memory Report at c_bands before calling an iterative solver
          3045 MiB given to the printing process from OS
         -1962 MiB allocation reported by mallinfo(arena+hblkhd)
         55793 MiB available memory on the node where the printing process lives
     GPU memory used/free/total (MiB): 1650 / 14630 / 16280
------------------
     ethr =  5.90E-09,  avg # of iterations =  5.7

     total cpu time spent up to now is      302.4 secs

     total energy              =    -326.72163079 Ry
     estimated scf accuracy    <       0.00000309 Ry

     total magnetization       =     0.48 Bohr mag/cell
     absolute magnetization    =     4.19 Bohr mag/cell
[tb_dev] Currently allocated     4.12E+00 Mbytes, locked:    0 /  14
[tb_pin] Currently allocated     0.00E+00 Mbytes, locked:    0 /   0

     iteration # 25     ecut=    50.00 Ry     beta= 0.10
     Davidson diagonalization with overlap

---- Real-time Memory Report at c_bands before calling an iterative solver
          3061 MiB given to the printing process from OS
         -1947 MiB allocation reported by mallinfo(arena+hblkhd)
         55781 MiB available memory on the node where the printing process lives
     GPU memory used/free/total (MiB): 1650 / 14630 / 16280
------------------
     ethr =  5.90E-09,  avg # of iterations =  6.0

     total cpu time spent up to now is      316.3 secs

     total energy              =    -326.72164525 Ry
     estimated scf accuracy    <       0.00000255 Ry

     total magnetization       =     0.49 Bohr mag/cell
     absolute magnetization    =     4.19 Bohr mag/cell
[tb_dev] Currently allocated     4.12E+00 Mbytes, locked:    0 /  14
[tb_pin] Currently allocated     0.00E+00 Mbytes, locked:    0 /   0

     iteration # 26     ecut=    50.00 Ry     beta= 0.10
     Davidson diagonalization with overlap

---- Real-time Memory Report at c_bands before calling an iterative solver
          3078 MiB given to the printing process from OS
         -1932 MiB allocation reported by mallinfo(arena+hblkhd)
         55763 MiB available memory on the node where the printing process lives
     GPU memory used/free/total (MiB): 1650 / 14630 / 16280
------------------
     ethr =  5.30E-09,  avg # of iterations =  5.3

     total cpu time spent up to now is      328.8 secs

     total energy              =    -326.72162510 Ry
     estimated scf accuracy    <       0.00000330 Ry

     total magnetization       =     0.48 Bohr mag/cell
     absolute magnetization    =     4.19 Bohr mag/cell
[tb_dev] Currently allocated     4.12E+00 Mbytes, locked:    0 /  14
[tb_pin] Currently allocated     0.00E+00 Mbytes, locked:    0 /   0

     iteration # 27     ecut=    50.00 Ry     beta= 0.10
     Davidson diagonalization with overlap

---- Real-time Memory Report at c_bands before calling an iterative solver
          3092 MiB given to the printing process from OS
         -1917 MiB allocation reported by mallinfo(arena+hblkhd)
         55745 MiB available memory on the node where the printing process lives
     GPU memory used/free/total (MiB): 1650 / 14630 / 16280
------------------
     ethr =  5.30E-09,  avg # of iterations =  7.6

     total cpu time spent up to now is      345.4 secs

     total energy              =    -326.72163764 Ry
     estimated scf accuracy    <       0.00000184 Ry

     total magnetization       =     0.48 Bohr mag/cell
     absolute magnetization    =     4.18 Bohr mag/cell
[tb_dev] Currently allocated     4.12E+00 Mbytes, locked:    0 /  14
[tb_pin] Currently allocated     0.00E+00 Mbytes, locked:    0 /   0

     iteration # 28     ecut=    50.00 Ry     beta= 0.10
     Davidson diagonalization with overlap

---- Real-time Memory Report at c_bands before calling an iterative solver
          3109 MiB given to the printing process from OS
         -1903 MiB allocation reported by mallinfo(arena+hblkhd)
         55734 MiB available memory on the node where the printing process lives
     GPU memory used/free/total (MiB): 1650 / 14630 / 16280
------------------
     ethr =  3.82E-09,  avg # of iterations =  8.2

     total cpu time spent up to now is      362.7 secs

     total energy              =    -326.72165418 Ry
     estimated scf accuracy    <       0.00000378 Ry

     total magnetization       =     0.49 Bohr mag/cell
     absolute magnetization    =     4.18 Bohr mag/cell
[tb_dev] Currently allocated     4.12E+00 Mbytes, locked:    0 /  14
[tb_pin] Currently allocated     0.00E+00 Mbytes, locked:    0 /   0

     iteration # 29     ecut=    50.00 Ry     beta= 0.10
     Davidson diagonalization with overlap

---- Real-time Memory Report at c_bands before calling an iterative solver
          3125 MiB given to the printing process from OS
         -1885 MiB allocation reported by mallinfo(arena+hblkhd)
         55716 MiB available memory on the node where the printing process lives
     GPU memory used/free/total (MiB): 1650 / 14630 / 16280
------------------
     ethr =  3.82E-09,  avg # of iterations =  7.8

     total cpu time spent up to now is      379.5 secs

     total energy              =    -326.72167658 Ry
     estimated scf accuracy    <       0.00000186 Ry

     total magnetization       =     0.49 Bohr mag/cell
     absolute magnetization    =     4.17 Bohr mag/cell
[tb_dev] Currently allocated     4.12E+00 Mbytes, locked:    0 /  14
[tb_pin] Currently allocated     0.00E+00 Mbytes, locked:    0 /   0

     iteration # 30     ecut=    50.00 Ry     beta= 0.10
     Davidson diagonalization with overlap

---- Real-time Memory Report at c_bands before calling an iterative solver
          3142 MiB given to the printing process from OS
         -1870 MiB allocation reported by mallinfo(arena+hblkhd)
         55702 MiB available memory on the node where the printing process lives
     GPU memory used/free/total (MiB): 1650 / 14630 / 16280
------------------
     ethr =  3.82E-09,  avg # of iterations =  1.3

     total cpu time spent up to now is      386.8 secs

     total energy              =    -326.72134073 Ry
     estimated scf accuracy    <       0.00000176 Ry

     total magnetization       =     0.49 Bohr mag/cell
     absolute magnetization    =     4.17 Bohr mag/cell
[tb_dev] Currently allocated     4.12E+00 Mbytes, locked:    0 /  14
[tb_pin] Currently allocated     0.00E+00 Mbytes, locked:    0 /   0

     iteration # 31     ecut=    50.00 Ry     beta= 0.10
     Davidson diagonalization with overlap

---- Real-time Memory Report at c_bands before calling an iterative solver
          3158 MiB given to the printing process from OS
         -1856 MiB allocation reported by mallinfo(arena+hblkhd)
         55687 MiB available memory on the node where the printing process lives
     GPU memory used/free/total (MiB): 1650 / 14630 / 16280
------------------
     c_bands:  2 eigenvalues not converged
     ethr =  3.68E-09,  avg # of iterations = 12.1

     total cpu time spent up to now is      410.5 secs

     total energy              =    -326.72159812 Ry
     estimated scf accuracy    <       0.00000402 Ry

     total magnetization       =     0.51 Bohr mag/cell
     absolute magnetization    =     4.19 Bohr mag/cell
[tb_dev] Currently allocated     4.12E+00 Mbytes, locked:    0 /  14
[tb_pin] Currently allocated     0.00E+00 Mbytes, locked:    0 /   0

     iteration # 32     ecut=    50.00 Ry     beta= 0.10
     Davidson diagonalization with overlap

---- Real-time Memory Report at c_bands before calling an iterative solver
          3175 MiB given to the printing process from OS
         -1841 MiB allocation reported by mallinfo(arena+hblkhd)
         55671 MiB available memory on the node where the printing process lives
     GPU memory used/free/total (MiB): 1650 / 14630 / 16280
------------------
     ethr =  3.68E-09,  avg # of iterations =  7.6

     total cpu time spent up to now is      427.5 secs

     total energy              =    -326.72143733 Ry
     estimated scf accuracy    <       0.00000284 Ry

     total magnetization       =     0.50 Bohr mag/cell
     absolute magnetization    =     4.18 Bohr mag/cell
[tb_dev] Currently allocated     4.12E+00 Mbytes, locked:    0 /  14
[tb_pin] Currently allocated     0.00E+00 Mbytes, locked:    0 /   0

     iteration # 33     ecut=    50.00 Ry     beta= 0.10
     Davidson diagonalization with overlap

---- Real-time Memory Report at c_bands before calling an iterative solver
          3189 MiB given to the printing process from OS
         -1823 MiB allocation reported by mallinfo(arena+hblkhd)
         55654 MiB available memory on the node where the printing process lives
     GPU memory used/free/total (MiB): 1650 / 14630 / 16280
------------------
     ethr =  3.68E-09,  avg # of iterations = 11.2

     total cpu time spent up to now is      449.8 secs

     total energy              =    -326.72159371 Ry
     estimated scf accuracy    <       0.00000448 Ry

     total magnetization       =     0.50 Bohr mag/cell
     absolute magnetization    =     4.20 Bohr mag/cell
[tb_dev] Currently allocated     4.12E+00 Mbytes, locked:    0 /  14
[tb_pin] Currently allocated     0.00E+00 Mbytes, locked:    0 /   0

     iteration # 34     ecut=    50.00 Ry     beta= 0.10
     Davidson diagonalization with overlap

---- Real-time Memory Report at c_bands before calling an iterative solver
          3206 MiB given to the printing process from OS
         -1808 MiB allocation reported by mallinfo(arena+hblkhd)
         55640 MiB available memory on the node where the printing process lives
     GPU memory used/free/total (MiB): 1650 / 14630 / 16280
------------------
     ethr =  3.68E-09,  avg # of iterations =  6.2

     total cpu time spent up to now is      463.8 secs

     total energy              =    -326.72160729 Ry
     estimated scf accuracy    <       0.00000498 Ry

     total magnetization       =     0.51 Bohr mag/cell
     absolute magnetization    =     4.20 Bohr mag/cell
[tb_dev] Currently allocated     4.12E+00 Mbytes, locked:    0 /  14
[tb_pin] Currently allocated     0.00E+00 Mbytes, locked:    0 /   0

     iteration # 35     ecut=    50.00 Ry     beta= 0.10
     Davidson diagonalization with overlap

---- Real-time Memory Report at c_bands before calling an iterative solver
          3221 MiB given to the printing process from OS
         -1794 MiB allocation reported by mallinfo(arena+hblkhd)
         55625 MiB available memory on the node where the printing process lives
     GPU memory used/free/total (MiB): 1650 / 14630 / 16280
------------------
     ethr =  3.68E-09,  avg # of iterations =  5.6

     total cpu time spent up to now is      477.3 secs

     total energy              =    -326.72149615 Ry
     estimated scf accuracy    <       0.00000434 Ry

     total magnetization       =     0.51 Bohr mag/cell
     absolute magnetization    =     4.19 Bohr mag/cell
[tb_dev] Currently allocated     4.12E+00 Mbytes, locked:    0 /  14
[tb_pin] Currently allocated     0.00E+00 Mbytes, locked:    0 /   0

     iteration # 36     ecut=    50.00 Ry     beta= 0.10
     Davidson diagonalization with overlap

---- Real-time Memory Report at c_bands before calling an iterative solver
          3237 MiB given to the printing process from OS
         -1777 MiB allocation reported by mallinfo(arena+hblkhd)
         55607 MiB available memory on the node where the printing process lives
     GPU memory used/free/total (MiB): 1650 / 14630 / 16280
------------------
     ethr =  3.68E-09,  avg # of iterations = 11.7

     total cpu time spent up to now is      500.9 secs

     total energy              =    -326.72163616 Ry
     estimated scf accuracy    <       0.00000327 Ry

     total magnetization       =     0.50 Bohr mag/cell
     absolute magnetization    =     4.18 Bohr mag/cell
[tb_dev] Currently allocated     4.12E+00 Mbytes, locked:    0 /  14
[tb_pin] Currently allocated     0.00E+00 Mbytes, locked:    0 /   0

     iteration # 37     ecut=    50.00 Ry     beta= 0.10
     Davidson diagonalization with overlap

---- Real-time Memory Report at c_bands before calling an iterative solver
          3254 MiB given to the printing process from OS
         -1759 MiB allocation reported by mallinfo(arena+hblkhd)
         55591 MiB available memory on the node where the printing process lives
     GPU memory used/free/total (MiB): 1650 / 14630 / 16280
------------------
     ethr =  3.68E-09,  avg # of iterations =  7.1

     total cpu time spent up to now is      517.1 secs

     total energy              =    -326.72165271 Ry
     estimated scf accuracy    <       0.00000248 Ry

     total magnetization       =     0.49 Bohr mag/cell
     absolute magnetization    =     4.19 Bohr mag/cell
[tb_dev] Currently allocated     4.12E+00 Mbytes, locked:    0 /  14
[tb_pin] Currently allocated     0.00E+00 Mbytes, locked:    0 /   0

     iteration # 38     ecut=    50.00 Ry     beta= 0.10
     Davidson diagonalization with overlap

---- Real-time Memory Report at c_bands before calling an iterative solver
          3270 MiB given to the printing process from OS
         -1744 MiB allocation reported by mallinfo(arena+hblkhd)
         55575 MiB available memory on the node where the printing process lives
     GPU memory used/free/total (MiB): 1650 / 14630 / 16280
------------------
     ethr =  3.68E-09,  avg # of iterations =  6.5

     total cpu time spent up to now is      532.4 secs

     total energy              =    -326.72161903 Ry
     estimated scf accuracy    <       0.00000350 Ry

     total magnetization       =     0.49 Bohr mag/cell
     absolute magnetization    =     4.18 Bohr mag/cell
[tb_dev] Currently allocated     4.12E+00 Mbytes, locked:    0 /  14
[tb_pin] Currently allocated     0.00E+00 Mbytes, locked:    0 /   0

     iteration # 39     ecut=    50.00 Ry     beta= 0.10
     Davidson diagonalization with overlap

---- Real-time Memory Report at c_bands before calling an iterative solver
          3285 MiB given to the printing process from OS
         -1729 MiB allocation reported by mallinfo(arena+hblkhd)
         55560 MiB available memory on the node where the printing process lives
     GPU memory used/free/total (MiB): 1650 / 14630 / 16280
------------------
     ethr =  3.68E-09,  avg # of iterations =  9.7

     total cpu time spent up to now is      552.3 secs

     total energy              =    -326.72169147 Ry
     estimated scf accuracy    <       0.00000203 Ry

     total magnetization       =     0.49 Bohr mag/cell
     absolute magnetization    =     4.17 Bohr mag/cell
[tb_dev] Currently allocated     4.12E+00 Mbytes, locked:    0 /  14
[tb_pin] Currently allocated     0.00E+00 Mbytes, locked:    0 /   0

     iteration # 40     ecut=    50.00 Ry     beta= 0.10
     Davidson diagonalization with overlap

---- Real-time Memory Report at c_bands before calling an iterative solver
          3301 MiB given to the printing process from OS
         -1713 MiB allocation reported by mallinfo(arena+hblkhd)
         55546 MiB available memory on the node where the printing process lives
     GPU memory used/free/total (MiB): 1650 / 14630 / 16280
------------------
     ethr =  3.68E-09,  avg # of iterations =  3.1

     total cpu time spent up to now is      561.7 secs

     total energy              =    -326.72166388 Ry
     estimated scf accuracy    <       0.00000186 Ry

     total magnetization       =     0.49 Bohr mag/cell
     absolute magnetization    =     4.17 Bohr mag/cell
[tb_dev] Currently allocated     4.12E+00 Mbytes, locked:    0 /  14
[tb_pin] Currently allocated     0.00E+00 Mbytes, locked:    0 /   0

     iteration # 41     ecut=    50.00 Ry     beta= 0.10
     Davidson diagonalization with overlap

---- Real-time Memory Report at c_bands before calling an iterative solver
          3319 MiB given to the printing process from OS
         -1695 MiB allocation reported by mallinfo(arena+hblkhd)
         55527 MiB available memory on the node where the printing process lives
     GPU memory used/free/total (MiB): 1650 / 14630 / 16280
------------------
     ethr =  3.68E-09,  avg # of iterations =  7.0

     total cpu time spent up to now is      577.2 secs

     total energy              =    -326.72168263 Ry
     estimated scf accuracy    <       0.00000515 Ry

     total magnetization       =     0.48 Bohr mag/cell
     absolute magnetization    =     4.17 Bohr mag/cell
[tb_dev] Currently allocated     4.12E+00 Mbytes, locked:    0 /  14
[tb_pin] Currently allocated     0.00E+00 Mbytes, locked:    0 /   0

     iteration # 42     ecut=    50.00 Ry     beta= 0.10
     Davidson diagonalization with overlap

---- Real-time Memory Report at c_bands before calling an iterative solver
          3334 MiB given to the printing process from OS
         -1680 MiB allocation reported by mallinfo(arena+hblkhd)
         55511 MiB available memory on the node where the printing process lives
     GPU memory used/free/total (MiB): 1650 / 14630 / 16280
------------------
     ethr =  3.68E-09,  avg # of iterations =  3.6

     total cpu time spent up to now is      587.0 secs

     total energy              =    -326.72167173 Ry
     estimated scf accuracy    <       0.00000429 Ry

     total magnetization       =     0.48 Bohr mag/cell
     absolute magnetization    =     4.17 Bohr mag/cell
[tb_dev] Currently allocated     4.12E+00 Mbytes, locked:    0 /  14
[tb_pin] Currently allocated     0.00E+00 Mbytes, locked:    0 /   0

     iteration # 43     ecut=    50.00 Ry     beta= 0.10
     Davidson diagonalization with overlap

---- Real-time Memory Report at c_bands before calling an iterative solver
          3349 MiB given to the printing process from OS
         -1665 MiB allocation reported by mallinfo(arena+hblkhd)
         55497 MiB available memory on the node where the printing process lives
     GPU memory used/free/total (MiB): 1650 / 14630 / 16280
------------------
     ethr =  3.68E-09,  avg # of iterations =  7.9

     total cpu time spent up to now is      603.7 secs

     total energy              =    -326.72168757 Ry
     estimated scf accuracy    <       0.00000601 Ry

     total magnetization       =     0.49 Bohr mag/cell
     absolute magnetization    =     4.18 Bohr mag/cell
[tb_dev] Currently allocated     4.12E+00 Mbytes, locked:    0 /  14
[tb_pin] Currently allocated     0.00E+00 Mbytes, locked:    0 /   0

     iteration # 44     ecut=    50.00 Ry     beta= 0.10
     Davidson diagonalization with overlap

---- Real-time Memory Report at c_bands before calling an iterative solver
          3366 MiB given to the printing process from OS
         -1649 MiB allocation reported by mallinfo(arena+hblkhd)
         55480 MiB available memory on the node where the printing process lives
     GPU memory used/free/total (MiB): 1650 / 14630 / 16280
------------------
     ethr =  3.68E-09,  avg # of iterations =  5.0

     total cpu time spent up to now is      616.3 secs

     total energy              =    -326.72161756 Ry
     estimated scf accuracy    <       0.00000172 Ry

     total magnetization       =     0.49 Bohr mag/cell
     absolute magnetization    =     4.17 Bohr mag/cell
[tb_dev] Currently allocated     4.12E+00 Mbytes, locked:    0 /  14
[tb_pin] Currently allocated     0.00E+00 Mbytes, locked:    0 /   0

     iteration # 45     ecut=    50.00 Ry     beta= 0.10
     Davidson diagonalization with overlap

---- Real-time Memory Report at c_bands before calling an iterative solver
          3382 MiB given to the printing process from OS
         -1631 MiB allocation reported by mallinfo(arena+hblkhd)
         55461 MiB available memory on the node where the printing process lives
     GPU memory used/free/total (MiB): 1650 / 14630 / 16280
------------------
     ethr =  3.58E-09,  avg # of iterations =  8.0

     total cpu time spent up to now is      633.4 secs

     total energy              =    -326.72164883 Ry
     estimated scf accuracy    <       0.00000291 Ry

     total magnetization       =     0.48 Bohr mag/cell
     absolute magnetization    =     4.18 Bohr mag/cell
[tb_dev] Currently allocated     4.12E+00 Mbytes, locked:    0 /  14
[tb_pin] Currently allocated     0.00E+00 Mbytes, locked:    0 /   0

     iteration # 46     ecut=    50.00 Ry     beta= 0.10
     Davidson diagonalization with overlap

---- Real-time Memory Report at c_bands before calling an iterative solver
          3398 MiB given to the printing process from OS
         -1616 MiB allocation reported by mallinfo(arena+hblkhd)
         55450 MiB available memory on the node where the printing process lives
     GPU memory used/free/total (MiB): 1650 / 14630 / 16280
------------------
     ethr =  3.58E-09,  avg # of iterations =  7.8

     total cpu time spent up to now is      650.3 secs

     total energy              =    -326.72169006 Ry
     estimated scf accuracy    <       0.00000279 Ry

     total magnetization       =     0.49 Bohr mag/cell
     absolute magnetization    =     4.18 Bohr mag/cell
[tb_dev] Currently allocated     4.12E+00 Mbytes, locked:    0 /  14
[tb_pin] Currently allocated     0.00E+00 Mbytes, locked:    0 /   0

     iteration # 47     ecut=    50.00 Ry     beta= 0.10
     Davidson diagonalization with overlap

---- Real-time Memory Report at c_bands before calling an iterative solver
          3413 MiB given to the printing process from OS
         -1601 MiB allocation reported by mallinfo(arena+hblkhd)
         55431 MiB available memory on the node where the printing process lives
     GPU memory used/free/total (MiB): 1650 / 14630 / 16280
------------------
     ethr =  3.58E-09,  avg # of iterations =  7.3

     total cpu time spent up to now is      666.4 secs

     total energy              =    -326.72164515 Ry
     estimated scf accuracy    <       0.00000214 Ry

     total magnetization       =     0.49 Bohr mag/cell
     absolute magnetization    =     4.16 Bohr mag/cell
[tb_dev] Currently allocated     4.12E+00 Mbytes, locked:    0 /  14
[tb_pin] Currently allocated     0.00E+00 Mbytes, locked:    0 /   0

     iteration # 48     ecut=    50.00 Ry     beta= 0.10
     Davidson diagonalization with overlap

---- Real-time Memory Report at c_bands before calling an iterative solver
          3431 MiB given to the printing process from OS
         -1581 MiB allocation reported by mallinfo(arena+hblkhd)
         55411 MiB available memory on the node where the printing process lives
     GPU memory used/free/total (MiB): 1650 / 14630 / 16280
------------------
     ethr =  3.58E-09,  avg # of iterations =  7.0

     total cpu time spent up to now is      682.0 secs

     total energy              =    -326.72168122 Ry
     estimated scf accuracy    <       0.00000304 Ry

     total magnetization       =     0.50 Bohr mag/cell
     absolute magnetization    =     4.18 Bohr mag/cell
[tb_dev] Currently allocated     4.12E+00 Mbytes, locked:    0 /  14
[tb_pin] Currently allocated     0.00E+00 Mbytes, locked:    0 /   0

     iteration # 49     ecut=    50.00 Ry     beta= 0.10
     Davidson diagonalization with overlap

---- Real-time Memory Report at c_bands before calling an iterative solver
          3448 MiB given to the printing process from OS
         -1567 MiB allocation reported by mallinfo(arena+hblkhd)
         55398 MiB available memory on the node where the printing process lives
     GPU memory used/free/total (MiB): 1650 / 14630 / 16280
------------------
     ethr =  3.58E-09,  avg # of iterations =  2.5

     total cpu time spent up to now is      690.6 secs

     total energy              =    -326.72168237 Ry
     estimated scf accuracy    <       0.00000201 Ry

     total magnetization       =     0.49 Bohr mag/cell
     absolute magnetization    =     4.18 Bohr mag/cell
[tb_dev] Currently allocated     4.12E+00 Mbytes, locked:    0 /  14
[tb_pin] Currently allocated     0.00E+00 Mbytes, locked:    0 /   0

     iteration # 50     ecut=    50.00 Ry     beta= 0.10
     Davidson diagonalization with overlap

---- Real-time Memory Report at c_bands before calling an iterative solver
          3464 MiB given to the printing process from OS
         -1548 MiB allocation reported by mallinfo(arena+hblkhd)
         55381 MiB available memory on the node where the printing process lives
     GPU memory used/free/total (MiB): 1650 / 14630 / 16280
------------------
     ethr =  3.58E-09,  avg # of iterations =  1.0

     total cpu time spent up to now is      697.5 secs

     total energy              =    -326.72165461 Ry
     estimated scf accuracy    <       0.00000204 Ry

[...]
     absolute magnetization    =     4.18 Bohr mag/cell
[tb_dev] Currently allocated     4.12E+00 Mbytes, locked:    0 /  14
[tb_pin] Currently allocated     0.00E+00 Mbytes, locked:    0 /   0

     iteration # 65     ecut=    50.00 Ry     beta= 0.10
     Davidson diagonalization with overlap

---- Real-time Memory Report at c_bands before calling an iterative solver
          3705 MiB given to the printing process from OS
         -1309 MiB allocation reported by mallinfo(arena+hblkhd)
         55138 MiB available memory on the node where the printing process lives
     GPU memory used/free/total (MiB): 1650 / 14630 / 16280
------------------
     ethr =  3.58E-09,  avg # of iterations =  5.5

     total cpu time spent up to now is      910.0 secs

     total energy              =    -326.72168871 Ry
     estimated scf accuracy    <       0.00000195 Ry

     total magnetization       =     0.46 Bohr mag/cell
     absolute magnetization    =     4.18 Bohr mag/cell
[tb_dev] Currently allocated     4.12E+00 Mbytes, locked:    0 /  14
[tb_pin] Currently allocated     0.00E+00 Mbytes, locked:    0 /   0

     iteration # 66     ecut=    50.00 Ry     beta= 0.10
     Davidson diagonalization with overlap

---- Real-time Memory Report at c_bands before calling an iterative solver
          3719 MiB given to the printing process from OS
         -1295 MiB allocation reported by mallinfo(arena+hblkhd)
         55122 MiB available memory on the node where the printing process lives
     GPU memory used/free/total (MiB): 1650 / 14630 / 16280
------------------
     ethr =  3.58E-09,  avg # of iterations =  5.1

     total cpu time spent up to now is      922.0 secs

     total energy              =    -326.72169016 Ry
     estimated scf accuracy    <       0.00000228 Ry

     total magnetization       =     0.47 Bohr mag/cell
     absolute magnetization    =     4.18 Bohr mag/cell
[tb_dev] Currently allocated     4.12E+00 Mbytes, locked:    0 /  14
[tb_pin] Currently allocated     0.00E+00 Mbytes, locked:    0 /   0

     iteration # 67     ecut=    50.00 Ry     beta= 0.10
     Davidson diagonalization with overlap

---- Real-time Memory Report at c_bands before calling an iterative solver
          3737 MiB given to the printing process from OS
         -1278 MiB allocation reported by mallinfo(arena+hblkhd)
         55105 MiB available memory on the node where the printing process lives
     GPU memory used/free/total (MiB): 1650 / 14630 / 16280
------------------
     ethr =  3.58E-09,  avg # of iterations =  6.1

     total cpu time spent up to now is      936.0 secs

     total energy              =    -326.72159066 Ry
     estimated scf accuracy    <       0.00000219 Ry

     total magnetization       =     0.47 Bohr mag/cell
     absolute magnetization    =     4.18 Bohr mag/cell
[tb_dev] Currently allocated     4.12E+00 Mbytes, locked:    0 /  14
[tb_pin] Currently allocated     0.00E+00 Mbytes, locked:    0 /   0

     iteration # 68     ecut=    50.00 Ry     beta= 0.10
     Davidson diagonalization with overlap

---- Real-time Memory Report at c_bands before calling an iterative solver
          3755 MiB given to the printing process from OS
         -1260 MiB allocation reported by mallinfo(arena+hblkhd)
         55089 MiB available memory on the node where the printing process lives
     GPU memory used/free/total (MiB): 1650 / 14630 / 16280
------------------
     c_bands:  1 eigenvalues not converged
     ethr =  3.58E-09,  avg # of iterations = 10.3

     total cpu time spent up to now is      956.6 secs

     total energy              =    -326.72166913 Ry
     estimated scf accuracy    <       0.00000363 Ry

     total magnetization       =     0.48 Bohr mag/cell
     absolute magnetization    =     4.19 Bohr mag/cell
[tb_dev] Currently allocated     4.12E+00 Mbytes, locked:    0 /  14
[tb_pin] Currently allocated     0.00E+00 Mbytes, locked:    0 /   0

     iteration # 69     ecut=    50.00 Ry     beta= 0.10
     Davidson diagonalization with overlap

---- Real-time Memory Report at c_bands before calling an iterative solver
          3769 MiB given to the printing process from OS
         -1245 MiB allocation reported by mallinfo(arena+hblkhd)
         55074 MiB available memory on the node where the printing process lives
     GPU memory used/free/total (MiB): 1650 / 14630 / 16280
------------------
     ethr =  3.58E-09,  avg # of iterations =  1.3

     total cpu time spent up to now is      963.8 secs

     total energy              =    -326.72160561 Ry
     estimated scf accuracy    <       0.00000342 Ry

     total magnetization       =     0.48 Bohr mag/cell
     absolute magnetization    =     4.19 Bohr mag/cell
[tb_dev] Currently allocated     4.12E+00 Mbytes, locked:    0 /  14
[tb_pin] Currently allocated     0.00E+00 Mbytes, locked:    0 /   0

     iteration # 70     ecut=    50.00 Ry     beta= 0.10
     Davidson diagonalization with overlap

---- Real-time Memory Report at c_bands before calling an iterative solver
          3784 MiB given to the printing process from OS
         -1231 MiB allocation reported by mallinfo(arena+hblkhd)
         55059 MiB available memory on the node where the printing process lives
     GPU memory used/free/total (MiB): 1650 / 14630 / 16280
------------------
     c_bands:  1 eigenvalues not converged
     c_bands:  1 eigenvalues not converged
     c_bands:  1 eigenvalues not converged
     c_bands:  1 eigenvalues not converged
     ethr =  3.58E-09,  avg # of iterations = 10.6

     total cpu time spent up to now is      984.7 secs

     total energy              =    -326.72170112 Ry
     estimated scf accuracy    <       0.00000179 Ry

     total magnetization       =     0.47 Bohr mag/cell
     absolute magnetization    =     4.19 Bohr mag/cell
[tb_dev] Currently allocated     4.12E+00 Mbytes, locked:    0 /  14
[tb_pin] Currently allocated     0.00E+00 Mbytes, locked:    0 /   0

     iteration # 71     ecut=    50.00 Ry     beta= 0.10
     Davidson diagonalization with overlap

---- Real-time Memory Report at c_bands before calling an iterative solver
          3799 MiB given to the printing process from OS
         -1214 MiB allocation reported by mallinfo(arena+hblkhd)
         55043 MiB available memory on the node where the printing process lives
     GPU memory used/free/total (MiB): 1650 / 14630 / 16280
------------------
     ethr =  3.58E-09,  avg # of iterations =  5.8

     total cpu time spent up to now is      998.2 secs

     total energy              =    -326.72170608 Ry
     estimated scf accuracy    <       0.00000144 Ry

     total magnetization       =     0.47 Bohr mag/cell
     absolute magnetization    =     4.19 Bohr mag/cell
[tb_dev] Currently allocated     4.12E+00 Mbytes, locked:    0 /  14
[tb_pin] Currently allocated     0.00E+00 Mbytes, locked:    0 /   0

     iteration # 72     ecut=    50.00 Ry     beta= 0.10
     Davidson diagonalization with overlap

---- Real-time Memory Report at c_bands before calling an iterative solver
          3819 MiB given to the printing process from OS
         -1196 MiB allocation reported by mallinfo(arena+hblkhd)
         55026 MiB available memory on the node where the printing process lives
     GPU memory used/free/total (MiB): 1650 / 14630 / 16280
------------------
     ethr =  3.01E-09,  avg # of iterations =  1.7

     total cpu time spent up to now is     1005.6 secs

     total energy              =    -326.72170419 Ry
     estimated scf accuracy    <       0.00000130 Ry

     total magnetization       =     0.47 Bohr mag/cell
     absolute magnetization    =     4.19 Bohr mag/cell
[tb_dev] Currently allocated     4.12E+00 Mbytes, locked:    0 /  14
[tb_pin] Currently allocated     0.00E+00 Mbytes, locked:    0 /   0

     iteration # 73     ecut=    50.00 Ry     beta= 0.10
     Davidson diagonalization with overlap

---- Real-time Memory Report at c_bands before calling an iterative solver
          3834 MiB given to the printing process from OS
         -1181 MiB allocation reported by mallinfo(arena+hblkhd)
         55010 MiB available memory on the node where the printing process lives
     GPU memory used/free/total (MiB): 1650 / 14630 / 16280
------------------
     ethr =  2.71E-09,  avg # of iterations =  2.4

     total cpu time spent up to now is     1014.2 secs

     total energy              =    -326.72166093 Ry
     estimated scf accuracy    <       0.00000139 Ry

     total magnetization       =     0.47 Bohr mag/cell
     absolute magnetization    =     4.19 Bohr mag/cell
[tb_dev] Currently allocated     4.12E+00 Mbytes, locked:    0 /  14
[tb_pin] Currently allocated     0.00E+00 Mbytes, locked:    0 /   0

     iteration # 74     ecut=    50.00 Ry     beta= 0.10
     Davidson diagonalization with overlap

---- Real-time Memory Report at c_bands before calling an iterative solver
          3850 MiB given to the printing process from OS
         -1162 MiB allocation reported by mallinfo(arena+hblkhd)
         54993 MiB available memory on the node where the printing process lives
     GPU memory used/free/total (MiB): 1650 / 14630 / 16280
------------------
     ethr =  2.71E-09,  avg # of iterations =  8.1

     total cpu time spent up to now is     1031.2 secs

     total energy              =    -326.72169121 Ry
     estimated scf accuracy    <       0.00000158 Ry

     total magnetization       =     0.47 Bohr mag/cell
     absolute magnetization    =     4.19 Bohr mag/cell
[tb_dev] Currently allocated     4.12E+00 Mbytes, locked:    0 /  14
[tb_pin] Currently allocated     0.00E+00 Mbytes, locked:    0 /   0

     iteration # 75     ecut=    50.00 Ry     beta= 0.10
     Davidson diagonalization with overlap

---- Real-time Memory Report at c_bands before calling an iterative solver
          3865 MiB given to the printing process from OS
         -1147 MiB allocation reported by mallinfo(arena+hblkhd)
         54976 MiB available memory on the node where the printing process lives
     GPU memory used/free/total (MiB): 1650 / 14630 / 16280
------------------
     ethr =  2.71E-09,  avg # of iterations =  5.5

     total cpu time spent up to now is     1044.1 secs

     total energy              =    -326.72169072 Ry
     estimated scf accuracy    <       0.00000175 Ry

     total magnetization       =     0.48 Bohr mag/cell
     absolute magnetization    =     4.19 Bohr mag/cell
[tb_dev] Currently allocated     4.12E+00 Mbytes, locked:    0 /  14
[tb_pin] Currently allocated     0.00E+00 Mbytes, locked:    0 /   0

     iteration # 76     ecut=    50.00 Ry     beta= 0.10
     Davidson diagonalization with overlap

---- Real-time Memory Report at c_bands before calling an iterative solver
          3881 MiB given to the printing process from OS
         -1133 MiB allocation reported by mallinfo(arena+hblkhd)
         54961 MiB available memory on the node where the printing process lives
     GPU memory used/free/total (MiB): 1650 / 14630 / 16280
------------------
     ethr =  2.71E-09,  avg # of iterations =  2.0

     total cpu time spent up to now is     1052.2 secs

     total energy              =    -326.72158070 Ry
     estimated scf accuracy    <       0.00000171 Ry

     total magnetization       =     0.49 Bohr mag/cell
     absolute magnetization    =     4.19 Bohr mag/cell
[tb_dev] Currently allocated     4.12E+00 Mbytes, locked:    0 /  14
[tb_pin] Currently allocated     0.00E+00 Mbytes, locked:    0 /   0

     iteration # 77     ecut=    50.00 Ry     beta= 0.10
     Davidson diagonalization with overlap

---- Real-time Memory Report at c_bands before calling an iterative solver
          3897 MiB given to the printing process from OS
         -1118 MiB allocation reported by mallinfo(arena+hblkhd)
         54948 MiB available memory on the node where the printing process lives
     GPU memory used/free/total (MiB): 1650 / 14630 / 16280
------------------
     ethr =  2.71E-09,  avg # of iterations = 10.9

     total cpu time spent up to now is     1074.4 secs

     total energy              =    -326.72165080 Ry
     estimated scf accuracy    <       0.00000227 Ry

     total magnetization       =     0.48 Bohr mag/cell
     absolute magnetization    =     4.20 Bohr mag/cell
[tb_dev] Currently allocated     4.12E+00 Mbytes, locked:    0 /  14
[tb_pin] Currently allocated     0.00E+00 Mbytes, locked:    0 /   0

     iteration # 78     ecut=    50.00 Ry     beta= 0.10
     Davidson diagonalization with overlap

---- Real-time Memory Report at c_bands before calling an iterative solver
          3913 MiB given to the printing process from OS
         -1101 MiB allocation reported by mallinfo(arena+hblkhd)
         54930 MiB available memory on the node where the printing process lives
     GPU memory used/free/total (MiB): 1650 / 14630 / 16280
------------------
     ethr =  2.71E-09,  avg # of iterations =  7.3

     total cpu time spent up to now is     1090.8 secs

     total energy              =    -326.72168349 Ry
     estimated scf accuracy    <       0.00000162 Ry

     total magnetization       =     0.47 Bohr mag/cell
     absolute magnetization    =     4.18 Bohr mag/cell
[tb_dev] Currently allocated     4.12E+00 Mbytes, locked:    0 /  14
[tb_pin] Currently allocated     0.00E+00 Mbytes, locked:    0 /   0

     iteration # 79     ecut=    50.00 Ry     beta= 0.10
     Davidson diagonalization with overlap

---- Real-time Memory Report at c_bands before calling an iterative solver
          3930 MiB given to the printing process from OS
         -1083 MiB allocation reported by mallinfo(arena+hblkhd)
         54913 MiB available memory on the node where the printing process lives
     GPU memory used/free/total (MiB): 1650 / 14630 / 16280
------------------
     ethr =  2.71E-09,  avg # of iterations =  5.6

     total cpu time spent up to now is     1104.5 secs

     total energy              =    -326.72168525 Ry
     estimated scf accuracy    <       0.00000173 Ry

     total magnetization       =     0.48 Bohr mag/cell
     absolute magnetization    =     4.19 Bohr mag/cell
[tb_dev] Currently allocated     4.12E+00 Mbytes, locked:    0 /  14
[tb_pin] Currently allocated     0.00E+00 Mbytes, locked:    0 /   0

     iteration # 80     ecut=    50.00 Ry     beta= 0.10
     Davidson diagonalization with overlap

---- Real-time Memory Report at c_bands before calling an iterative solver
          3946 MiB given to the printing process from OS
         -1068 MiB allocation reported by mallinfo(arena+hblkhd)
         54881 MiB available memory on the node where the printing process lives
     GPU memory used/free/total (MiB): 1650 / 14630 / 16280
------------------
     ethr =  2.71E-09,  avg # of iterations =  4.2

     total cpu time spent up to now is     1116.0 secs

     total energy              =    -326.72165607 Ry
     estimated scf accuracy    <       0.00000185 Ry

     total magnetization       =     0.48 Bohr mag/cell
     absolute magnetization    =     4.19 Bohr mag/cell

     End of self-consistent calculation

     convergence NOT achieved after  80 iterations: stopping

     Writing config to output data dir ./out/aiida.save/
 
     init_run     :     22.72s CPU      3.43s WALL (       1 calls)
     electrons    :   1677.41s CPU   1112.34s WALL (       1 calls)

     Called by init_run:
     wfcinit      :      0.44s CPU      0.44s WALL (       1 calls)
                                        0.44s GPU  (       1 calls)
     potinit      :     10.76s CPU      1.14s WALL (       1 calls)
     hinit0       :      6.00s CPU      1.08s WALL (       1 calls)

     Called by electrons:
     c_bands      :    991.04s CPU    965.86s WALL (      81 calls)
     sum_band     :     80.49s CPU     89.88s WALL (      81 calls)
     v_of_rho     :     25.43s CPU      2.32s WALL (      81 calls)
     v_h          :      3.64s CPU      0.32s WALL (      81 calls)
     v_xc         :     21.79s CPU      2.00s WALL (      81 calls)
     newd         :     15.63s CPU      1.69s WALL (      81 calls)
                                        1.69s GPU  (      81 calls)
     PAW_pot      :    536.30s CPU     49.85s WALL (      81 calls)
     mix_rho      :     29.40s CPU      3.06s WALL (      81 calls)

     Called by c_bands:
     init_us_2    :     34.73s CPU     36.20s WALL (   50544 calls)
     init_us_2:gp :     33.84s CPU     35.37s WALL (   50544 calls)
     cegterg      :    904.70s CPU    871.39s WALL (   25272 calls)

     Called by sum_band:
     sum_band:wei :      0.96s CPU      0.97s WALL (      81 calls)
                                        0.97s GPU  (      81 calls)
     sum_band:loo :     76.97s CPU     86.31s WALL (      81 calls)
                                       86.31s GPU  (      81 calls)
     sum_band:buf :     21.46s CPU     24.06s WALL (   25272 calls)
                                       23.91s GPU  (   25272 calls)
     sum_band:ini :     15.10s CPU     17.74s WALL (   25272 calls)
                                       17.61s GPU  (   25272 calls)
     sum_band:cal :      0.80s CPU      2.98s WALL (   25272 calls)
                                        1.96s GPU  (   25272 calls)
     sum_band:bec :      3.71s CPU      4.44s WALL (   25272 calls)
                                        4.27s GPU  (   25272 calls)
     addusdens    :      0.54s CPU      0.57s WALL (      81 calls)
                                        0.57s GPU  (      81 calls)
     addusd:skk   :      0.02s CPU      0.03s WALL (      81 calls)
                                        0.03s GPU  (      81 calls)

     Called by *egterg:
     cdiaghg      :    379.50s CPU    378.00s WALL (  170458 calls)
                                      376.88s GPU  (  170458 calls)
     cegterg:over :     24.92s CPU     23.76s WALL (  145810 calls)
     cegterg:upda :     40.44s CPU     39.53s WALL (  145810 calls)
     cegterg:last :     11.49s CPU     11.58s WALL (   71191 calls)
     h_psi        :    364.55s CPU    342.44s WALL (  171082 calls)
                                      341.41s GPU  (  171082 calls)
     s_psi        :     18.71s CPU     28.62s WALL (  171082 calls)
                                       26.69s GPU  (  171082 calls)
     g_psi        :      1.06s CPU      3.67s WALL (  145810 calls)
                                        2.73s GPU  (  145810 calls)

     Called by h_psi:
     h_psi:calbec :      6.42s CPU     19.94s WALL (  171082 calls)
                                       18.93s GPU  (  171082 calls)
     vloc_psi     :    289.54s CPU    272.75s WALL (  171082 calls)
                                      271.67s GPU  (  171082 calls)
     add_vuspsi   :     33.25s CPU     38.80s WALL (  171082 calls)
                                       37.80s GPU  (  171082 calls)

     General routines
     calbec       :      5.40s CPU      5.23s WALL (  196354 calls)
     fft          :      2.76s CPU      0.47s WALL (    2025 calls)
                                        0.37s GPU  (    1863 calls)
     ffts         :      0.09s CPU      0.04s WALL (     324 calls)
                                        0.01s GPU  (     162 calls)
     fftw         :     10.84s CPU    188.17s WALL (  517002 calls)
                                      185.32s GPU  (  517002 calls)
     interpolate  :      3.59s CPU      0.32s WALL (     162 calls)
     davcio       :      1.11s CPU      1.29s WALL (     642 calls)
 
     Parallel routines

     PAW routines
     PAW_pot      :    536.30s CPU     49.85s WALL (      81 calls)
     PAW_symme    :      0.06s CPU      0.01s WALL (     161 calls)
 
     PWSCF        :  28m23.47s CPU  18m36.98s WALL

 
   This run was terminated on:  18:35:21  23Oct2023            

=------------------------------------------------------------------------------=
   JOB DONE.
=------------------------------------------------------------------------------=
