
     Program PWSCF v.7.2 starts on 28Nov2023 at 19: 9:37 
        Git branch: develop
        Last git commit: 9055681be6fc8200e6fffe76ed5fda34c2696339
        Last git commit date: Wed Nov 8 16:29:39 2023 +0000
        Last git commit subject: Merge branch 'calbec_fix' into 'develop'

     This program is part of the open-source Quantum ESPRESSO suite
     for quantum simulation of materials; please cite
         "P. Giannozzi et al., J. Phys.:Condens. Matter 21 395502 (2009);
         "P. Giannozzi et al., J. Phys.:Condens. Matter 29 465901 (2017);
         "P. Giannozzi et al., J. Chem. Phys. 152 154105 (2020);
          URL http://www.quantum-espresso.org", 
     in publications or presentations arising from this work. More details at
     http://www.quantum-espresso.org/quote

     Parallel version (MPI), running on    56 processors

     MPI processes distributed on     1 nodes
     488043 MiB available memory on the printing compute node when the environment starts

     Reading input from aiida.in

     Current dimensions of program PWSCF are:
     Max number of different atomic species (ntypx) = 10
     Max number of k-points (npk) =  40000
     Max angular momentum in pseudopotentials (lmaxx) =  4
     file O.pbesol-n-kjpaw_psl.0.1.UPF: wavefunction(s)  2P renormalized
     Message from routine setup:
     using ibrav=0 with symmetry is DISCOURAGED, use correct ibrav instead

     K-points division:     npool     =       8
     R & G space division:  proc/nbgrp/npool/nimage =       7
     Subspace diagonalization in iterative solution of the eigenvalue problem:
     a serial algorithm will be used


     Parallelization info
     --------------------
     sticks:   dense  smooth     PW     G-vecs:    dense   smooth      PW
     Min         390     194     57                15333     5413     853
     Max         391     195     57                15336     5414     854
     Sum        2735    1359    399               107339    37897    5977

     Using Slab Decomposition



     bravais-lattice index     =            0
     lattice parameter (alat)  =       8.4603  a.u.
     unit-cell volume          =     604.0218 (a.u.)^3
     number of atoms/cell      =            5
     number of atomic types    =            3
     number of electrons       =        30.00
     number of Kohn-Sham states=           19
     kinetic-energy cutoff     =      60.0000  Ry
     charge density cutoff     =     480.0000  Ry
     scf convergence threshold =      1.0E-09
     mixing beta               =       0.4000
     number of iterations used =            8  plain     mixing
     Exchange-correlation= SLA  PW   PSX  PSC
                           (   1   4  10   8   0   0   0)

     celldm(1)=   8.460298  celldm(2)=   0.000000  celldm(3)=   0.000000
     celldm(4)=   0.000000  celldm(5)=   0.000000  celldm(6)=   0.000000

     crystal axes: (cart. coord. in units of alat)
               a(1) = (   0.692205   0.399645   0.600946 )  
               a(2) = (  -0.692205   0.399645   0.600946 )  
               a(3) = (   0.000000  -0.799290   0.600946 )  

     reciprocal axes: (cart. coord. in units 2 pi/alat)
               b(1) = (  0.722329  0.417037  0.554681 )  
               b(2) = ( -0.722329  0.417037  0.554681 )  
               b(3) = ( -0.000000 -0.834074  0.554681 )  


     PseudoPot. # 1 for Br read from file:
     ./pseudo/br_pbesol_v1.4.uspp.F.UPF
     MD5 check sum: 7bf6084e715f6bfd1944787c04c43e72
     Pseudo is Ultrasoft + core correction, Zval =  7.0
     Generated by new atomic code, or converted to UPF format
     Using radial grid of  879 points,  6 beta functions with: 
                l(1) =   0
                l(2) =   0
                l(3) =   1
                l(4) =   1
                l(5) =   2
                l(6) =   2
     Q(r) pseudized with  8 coefficients,  rinner =    1.200   1.200   1.200
                                                       1.200   1.200

     PseudoPot. # 2 for N  read from file:
     ./pseudo/N.pbesol-theos.UPF
     MD5 check sum: 1b64827339d390a5a22afef3ff345c9d
     Pseudo is Ultrasoft + core correction, Zval =  5.0
     Generated using "atomic" code by A. Dal Corso  v.5.1
     Using radial grid of 1085 points,  4 beta functions with: 
                l(1) =   0
                l(2) =   0
                l(3) =   1
                l(4) =   1
     Q(r) pseudized with 0 coefficients 


     PseudoPot. # 3 for O  read from file:
     ./pseudo/O.pbesol-n-kjpaw_psl.0.1.UPF
     MD5 check sum: 81d73d1479e654e5638b0319f0d6c2c7
     Pseudo is Projector augmented-wave + core cor, Zval =  6.0
     Generated using "atomic" code by A. Dal Corso  v.6.0 svn rev. 13079
     Shape of augmentation charge: BESSEL
     Using radial grid of 1095 points,  4 beta functions with: 
                l(1) =   0
                l(2) =   0
                l(3) =   1
                l(4) =   1
     Q(r) pseudized with 0 coefficients 


     atomic species   valence    mass     pseudopotential
     Br                7.00    79.90400     Br( 1.00)
     N                 5.00    14.00670     N ( 1.00)
     O                 6.00    15.99940     O ( 1.00)

     Starting magnetic structure 
     atomic species   magnetization
     Br              0.100
     N               0.100
     O               0.100

      6 Sym. Ops. (no inversion) found


                                    s                        frac. trans.

      isym =  1     identity                                     

 cryst.   s( 1) = (     1          0          0      )
                  (     0          1          0      )
                  (     0          0          1      )

 cart.    s( 1) = (  1.0000000  0.0000000  0.0000000 )
                  (  0.0000000  1.0000000 -0.0000000 )
                  ( -0.0000000 -0.0000000  1.0000000 )


      isym =  2     120 deg rotation - cryst. axis [0,0,1]       

 cryst.   s( 2) = (     0          1          0      )
                  (     0          0          1      )
                  (     1          0          0      )

 cart.    s( 2) = ( -0.5000000 -0.8660254  0.0000000 )
                  (  0.8660254 -0.5000000 -0.0000000 )
                  ( -0.0000000  0.0000000  1.0000000 )


      isym =  3     120 deg rotation - cryst. axis [0,0,-1]      

 cryst.   s( 3) = (     0          0          1      )
                  (     1          0          0      )
                  (     0          1          0      )

 cart.    s( 3) = ( -0.5000000  0.8660254  0.0000000 )
                  ( -0.8660254 -0.5000000 -0.0000000 )
                  (  0.0000000 -0.0000000  1.0000000 )


      isym =  4     inv. 180 deg rotation - cart. axis [1,0,0]   

 cryst.   s( 4) = (     0          1          0      )
                  (     1          0          0      )
                  (     0          0          1      )

 cart.    s( 4) = ( -1.0000000  0.0000000  0.0000000 )
                  (  0.0000000  1.0000000 -0.0000000 )
                  (  0.0000000 -0.0000000  1.0000000 )


      isym =  5     inv. 180 deg rotation - cryst. axis [0,1,0]  

 cryst.   s( 5) = (     1          0          0      )
                  (     0          0          1      )
                  (     0          1          0      )

 cart.    s( 5) = (  0.5000000  0.8660254  0.0000000 )
                  (  0.8660254 -0.5000000 -0.0000000 )
                  ( -0.0000000 -0.0000000  1.0000000 )


      isym =  6     inv. 180 deg rotation - cryst. axis [1,1,0]  

 cryst.   s( 6) = (     0          0          1      )
                  (     0          1          0      )
                  (     1          0          0      )

 cart.    s( 6) = (  0.5000000 -0.8660254  0.0000000 )
                  ( -0.8660254 -0.5000000 -0.0000000 )
                  (  0.0000000  0.0000000  1.0000000 )


   Cartesian axes

     site n.     atom                  positions (alat units)
         1        Br     tau(   1) = (  -0.0000000   0.7992896   0.3004730  )
         2        N      tau(   2) = (   0.0000000  -0.0000000   0.0000000  )
         3        O      tau(   3) = (  -0.2906569   0.6314788   0.1545032  )
         4        O      tau(   4) = (   0.2906569   0.6314788   0.1545032  )
         5        O      tau(   5) = (  -0.0000000   1.1349113   0.1545032  )

   Crystallographic axes

     site n.     atom                  positions (cryst. coord.)
         1        Br     tau(   1) = (  0.5000000  0.5000000 -0.5000000  )
         2        N      tau(   2) = (  0.0000000  0.0000000  0.0000000  )
         3        O      tau(   3) = (  0.1391000  0.5590000 -0.4410000  )
         4        O      tau(   4) = (  0.5590000  0.1391000 -0.4410000  )
         5        O      tau(   5) = (  0.5590000  0.5590000 -0.8609000  )

     number of k points=   116  Marzari-Vanderbilt smearing, width (Ry)=  0.0200
                       cart. coord. in units 2pi/alat
        k(    1) = (   0.0000000   0.0000000   0.0000000), wk =   0.0010000
        k(    2) = (  -0.0000000  -0.0834074   0.0554681), wk =   0.0060000
        k(    3) = (  -0.0000000  -0.1668148   0.1109362), wk =   0.0060000
        k(    4) = (  -0.0000000  -0.2502222   0.1664043), wk =   0.0060000
        k(    5) = (  -0.0000000  -0.3336296   0.2218724), wk =   0.0060000
        k(    6) = (   0.0000000   0.4170370  -0.2773405), wk =   0.0030000
        k(    7) = (  -0.0722329  -0.0417037   0.1109362), wk =   0.0060000
        k(    8) = (  -0.0722329  -0.1251111   0.1664043), wk =   0.0120000
        k(    9) = (  -0.0722329  -0.2085185   0.2218724), wk =   0.0120000
        k(   10) = (  -0.0722329  -0.2919259   0.2773405), wk =   0.0120000
        k(   11) = (  -0.0722329   0.4587407  -0.2218724), wk =   0.0120000
        k(   12) = (  -0.0722329   0.3753333  -0.1664043), wk =   0.0120000
        k(   13) = (  -0.0722329   0.2919259  -0.1109362), wk =   0.0120000
        k(   14) = (  -0.0722329   0.2085185  -0.0554681), wk =   0.0120000
        k(   15) = (  -0.0722329   0.1251111   0.0000000), wk =   0.0060000
        k(   16) = (  -0.1444659  -0.0834074   0.2218724), wk =   0.0060000
        k(   17) = (  -0.1444659  -0.1668148   0.2773405), wk =   0.0120000
        k(   18) = (  -0.1444659  -0.2502222   0.3328086), wk =   0.0120000
        k(   19) = (  -0.1444659   0.5004444  -0.1664043), wk =   0.0120000
        k(   20) = (  -0.1444659   0.4170370  -0.1109362), wk =   0.0120000
        k(   21) = (  -0.1444659   0.3336296  -0.0554681), wk =   0.0120000
        k(   22) = (  -0.1444659   0.2502222   0.0000000), wk =   0.0060000
        k(   23) = (  -0.2166988  -0.1251111   0.3328086), wk =   0.0060000
        k(   24) = (  -0.2166988  -0.2085185   0.3882767), wk =   0.0120000
        k(   25) = (  -0.2166988   0.5421481  -0.1109362), wk =   0.0120000
        k(   26) = (  -0.2166988   0.4587407  -0.0554681), wk =   0.0120000
        k(   27) = (  -0.2166988   0.3753333  -0.0000000), wk =   0.0060000
        k(   28) = (  -0.2889317  -0.1668148   0.4437448), wk =   0.0060000
        k(   29) = (  -0.2889317   0.5838518  -0.0554681), wk =   0.0120000
        k(   30) = (  -0.2889317   0.5004444  -0.0000000), wk =   0.0060000
        k(   31) = (   0.3611646   0.2085185  -0.5546810), wk =   0.0030000
        k(   32) = (   0.0000000   0.0000000   0.1664043), wk =   0.0020000
        k(   33) = (   0.0000000  -0.0834074   0.2218724), wk =   0.0060000
        k(   34) = (   0.0000000  -0.1668148   0.2773405), wk =   0.0060000
        k(   35) = (   0.0000000  -0.2502222   0.3328086), wk =   0.0060000
        k(   36) = (   0.0000000   0.5004444  -0.1664043), wk =   0.0060000
        k(   37) = (   0.0000000   0.4170370  -0.1109362), wk =   0.0060000
        k(   38) = (   0.0000000   0.3336296  -0.0554681), wk =   0.0060000
        k(   39) = (   0.0000000   0.2502222   0.0000000), wk =   0.0060000
        k(   40) = (   0.0000000   0.1668148   0.0554681), wk =   0.0060000
        k(   41) = (  -0.0722329  -0.0417037   0.2773405), wk =   0.0060000
        k(   42) = (  -0.0722329  -0.1251111   0.3328086), wk =   0.0120000
        k(   43) = (  -0.0722329  -0.2085185   0.3882767), wk =   0.0120000
        k(   44) = (  -0.0722329   0.5421481  -0.1109362), wk =   0.0120000
        k(   45) = (  -0.0722329   0.4587407  -0.0554681), wk =   0.0120000
        k(   46) = (  -0.0722329   0.3753333  -0.0000000), wk =   0.0120000
        k(   47) = (  -0.0722329   0.2919259   0.0554681), wk =   0.0120000
        k(   48) = (  -0.0722329   0.2085185   0.1109362), wk =   0.0120000
        k(   49) = (  -0.1444659  -0.0834074   0.3882767), wk =   0.0060000
        k(   50) = (  -0.1444659  -0.1668148   0.4437448), wk =   0.0120000
        k(   51) = (  -0.1444659   0.5838518  -0.0554681), wk =   0.0120000
        k(   52) = (  -0.1444659   0.5004444  -0.0000000), wk =   0.0120000
        k(   53) = (  -0.1444659   0.4170370   0.0554681), wk =   0.0120000
        k(   54) = (  -0.1444659   0.3336296   0.1109362), wk =   0.0120000
        k(   55) = (  -0.1444659   0.2502222   0.1664043), wk =   0.0120000
        k(   56) = (  -0.2166988  -0.1251111   0.4992129), wk =   0.0060000
        k(   57) = (  -0.2166988   0.6255555   0.0000000), wk =   0.0120000
        k(   58) = (  -0.2166988   0.5421481   0.0554681), wk =   0.0120000
        k(   59) = (  -0.2166988   0.4587407   0.1109362), wk =   0.0120000
        k(   60) = (  -0.2166988   0.3753333   0.1664043), wk =   0.0120000
        k(   61) = (  -0.2166988   0.2919259   0.2218724), wk =   0.0120000
        k(   62) = (   0.4333976   0.2502222  -0.4992129), wk =   0.0060000
        k(   63) = (   0.4333976   0.1668148  -0.4437448), wk =   0.0120000
        k(   64) = (   0.4333976   0.0834074  -0.3882767), wk =   0.0120000
        k(   65) = (   0.4333976  -0.0000000  -0.3328086), wk =   0.0120000
        k(   66) = (   0.4333976  -0.0834074  -0.2773405), wk =   0.0060000
        k(   67) = (   0.3611646   0.2085185  -0.3882767), wk =   0.0060000
        k(   68) = (   0.3611646   0.1251111  -0.3328086), wk =   0.0120000
        k(   69) = (   0.3611646   0.0417037  -0.2773405), wk =   0.0120000
        k(   70) = (   0.2889317   0.1668148  -0.2773405), wk =   0.0060000
        k(   71) = (   0.2889317   0.0834074  -0.2218724), wk =   0.0120000
        k(   72) = (   0.2166988   0.1251111  -0.1664043), wk =   0.0060000
        k(   73) = (   0.0000000   0.0000000   0.3328086), wk =   0.0020000
        k(   74) = (   0.0000000  -0.0834074   0.3882767), wk =   0.0060000
        k(   75) = (   0.0000000  -0.1668148   0.4437448), wk =   0.0060000
        k(   76) = (   0.0000000   0.5838518  -0.0554681), wk =   0.0060000
        k(   77) = (   0.0000000   0.5004444  -0.0000000), wk =   0.0060000
        k(   78) = (   0.0000000   0.4170370   0.0554681), wk =   0.0060000
        k(   79) = (   0.0000000   0.3336296   0.1109362), wk =   0.0060000
        k(   80) = (  -0.0722329  -0.0417037   0.4437448), wk =   0.0060000
        k(   81) = (  -0.0722329  -0.1251111   0.4992129), wk =   0.0120000
        k(   82) = (  -0.0722329   0.6255555   0.0000000), wk =   0.0120000
        k(   83) = (  -0.0722329   0.5421481   0.0554681), wk =   0.0120000
        k(   84) = (  -0.0722329   0.4587407   0.1109362), wk =   0.0120000
        k(   85) = (  -0.0722329   0.3753333   0.1664043), wk =   0.0120000
        k(   86) = (  -0.1444659  -0.0834074   0.5546810), wk =   0.0060000
        k(   87) = (  -0.1444659   0.6672592   0.0554681), wk =   0.0120000
        k(   88) = (  -0.1444659   0.5838518   0.1109362), wk =   0.0120000
        k(   89) = (  -0.1444659   0.5004444   0.1664043), wk =   0.0120000
        k(   90) = (  -0.1444659   0.4170370   0.2218724), wk =   0.0120000
        k(   91) = (   0.5056305   0.2919259  -0.4437448), wk =   0.0060000
        k(   92) = (   0.5056305   0.2085185  -0.3882767), wk =   0.0120000
        k(   93) = (   0.5056305   0.1251111  -0.3328086), wk =   0.0120000
        k(   94) = (   0.5056305   0.0417037  -0.2773405), wk =   0.0060000
        k(   95) = (   0.4333976   0.2502222  -0.3328086), wk =   0.0060000
        k(   96) = (   0.4333976   0.1668148  -0.2773405), wk =   0.0120000
        k(   97) = (   0.3611646   0.2085185  -0.2218724), wk =   0.0060000
        k(   98) = (  -0.0000000  -0.0000000   0.4992129), wk =   0.0020000
        k(   99) = (  -0.0000000  -0.0834074   0.5546810), wk =   0.0060000
        k(  100) = (  -0.0000000   0.6672592   0.0554681), wk =   0.0060000
        k(  101) = (  -0.0000000   0.5838518   0.1109362), wk =   0.0060000
        k(  102) = (  -0.0000000   0.5004444   0.1664043), wk =   0.0060000
        k(  103) = (  -0.0722329  -0.0417037   0.6101491), wk =   0.0060000
        k(  104) = (  -0.0722329   0.7089629   0.1109362), wk =   0.0120000
        k(  105) = (  -0.0722329   0.6255555   0.1664043), wk =   0.0120000
        k(  106) = (  -0.0722329   0.5421481   0.2218724), wk =   0.0120000
        k(  107) = (   0.5778634   0.3336296  -0.3882767), wk =   0.0060000
        k(  108) = (   0.5778634   0.2502222  -0.3328086), wk =   0.0120000
        k(  109) = (   0.5778634   0.1668148  -0.2773405), wk =   0.0060000
        k(  110) = (   0.5056305   0.2919259  -0.2773405), wk =   0.0060000
        k(  111) = (   0.0000000   0.0000000   0.6656172), wk =   0.0020000
        k(  112) = (   0.0000000   0.7506666   0.1664043), wk =   0.0060000
        k(  113) = (   0.0000000   0.6672592   0.2218724), wk =   0.0060000
        k(  114) = (   0.6500963   0.3753333  -0.3328086), wk =   0.0060000
        k(  115) = (   0.6500963   0.2919259  -0.2773405), wk =   0.0060000
        k(  116) = (   0.0000000   0.0000000  -0.8320215), wk =   0.0010000

                       cryst. coord.
        k(    1) = (   0.0000000   0.0000000   0.0000000), wk =   0.0010000
        k(    2) = (  -0.0000000  -0.0000000   0.1000000), wk =   0.0060000
        k(    3) = (  -0.0000000  -0.0000000   0.2000000), wk =   0.0060000
        k(    4) = (  -0.0000000  -0.0000000   0.3000000), wk =   0.0060000
        k(    5) = (  -0.0000000  -0.0000000   0.4000000), wk =   0.0060000
        k(    6) = (   0.0000000   0.0000000  -0.5000000), wk =   0.0030000
        k(    7) = (  -0.0000000   0.1000000   0.1000000), wk =   0.0060000
        k(    8) = (  -0.0000000   0.1000000   0.2000000), wk =   0.0120000
        k(    9) = (  -0.0000000   0.1000000   0.3000000), wk =   0.0120000
        k(   10) = (  -0.0000000   0.1000000   0.4000000), wk =   0.0120000
        k(   11) = (   0.0000000   0.1000000  -0.5000000), wk =   0.0120000
        k(   12) = (   0.0000000   0.1000000  -0.4000000), wk =   0.0120000
        k(   13) = (   0.0000000   0.1000000  -0.3000000), wk =   0.0120000
        k(   14) = (   0.0000000   0.1000000  -0.2000000), wk =   0.0120000
        k(   15) = (   0.0000000   0.1000000  -0.1000000), wk =   0.0060000
        k(   16) = (  -0.0000000   0.2000000   0.2000000), wk =   0.0060000
        k(   17) = (  -0.0000000   0.2000000   0.3000000), wk =   0.0120000
        k(   18) = (  -0.0000000   0.2000000   0.4000000), wk =   0.0120000
        k(   19) = (   0.0000000   0.2000000  -0.5000000), wk =   0.0120000
        k(   20) = (   0.0000000   0.2000000  -0.4000000), wk =   0.0120000
        k(   21) = (  -0.0000000   0.2000000  -0.3000000), wk =   0.0120000
        k(   22) = (   0.0000000   0.2000000  -0.2000000), wk =   0.0060000
        k(   23) = (  -0.0000000   0.3000000   0.3000000), wk =   0.0060000
        k(   24) = (  -0.0000000   0.3000000   0.4000000), wk =   0.0120000
        k(   25) = (   0.0000000   0.3000000  -0.5000000), wk =   0.0120000
        k(   26) = (  -0.0000000   0.3000000  -0.4000000), wk =   0.0120000
        k(   27) = (  -0.0000000   0.3000000  -0.3000000), wk =   0.0060000
        k(   28) = (  -0.0000000   0.4000000   0.4000000), wk =   0.0060000
        k(   29) = (  -0.0000000   0.4000000  -0.5000000), wk =   0.0120000
        k(   30) = (  -0.0000000   0.4000000  -0.4000000), wk =   0.0060000
        k(   31) = (   0.0000000  -0.5000000  -0.5000000), wk =   0.0030000
        k(   32) = (   0.1000000   0.1000000   0.1000000), wk =   0.0020000
        k(   33) = (   0.1000000   0.1000000   0.2000000), wk =   0.0060000
        k(   34) = (   0.1000000   0.1000000   0.3000000), wk =   0.0060000
        k(   35) = (   0.1000000   0.1000000   0.4000000), wk =   0.0060000
        k(   36) = (   0.1000000   0.1000000  -0.5000000), wk =   0.0060000
        k(   37) = (   0.1000000   0.1000000  -0.4000000), wk =   0.0060000
        k(   38) = (   0.1000000   0.1000000  -0.3000000), wk =   0.0060000
        k(   39) = (   0.1000000   0.1000000  -0.2000000), wk =   0.0060000
        k(   40) = (   0.1000000   0.1000000  -0.1000000), wk =   0.0060000
        k(   41) = (   0.1000000   0.2000000   0.2000000), wk =   0.0060000
        k(   42) = (   0.1000000   0.2000000   0.3000000), wk =   0.0120000
        k(   43) = (   0.1000000   0.2000000   0.4000000), wk =   0.0120000
        k(   44) = (   0.1000000   0.2000000  -0.5000000), wk =   0.0120000
        k(   45) = (   0.1000000   0.2000000  -0.4000000), wk =   0.0120000
        k(   46) = (   0.1000000   0.2000000  -0.3000000), wk =   0.0120000
        k(   47) = (   0.1000000   0.2000000  -0.2000000), wk =   0.0120000
        k(   48) = (   0.1000000   0.2000000  -0.1000000), wk =   0.0120000
        k(   49) = (   0.1000000   0.3000000   0.3000000), wk =   0.0060000
        k(   50) = (   0.1000000   0.3000000   0.4000000), wk =   0.0120000
        k(   51) = (   0.1000000   0.3000000  -0.5000000), wk =   0.0120000
        k(   52) = (   0.1000000   0.3000000  -0.4000000), wk =   0.0120000
        k(   53) = (   0.1000000   0.3000000  -0.3000000), wk =   0.0120000
        k(   54) = (   0.1000000   0.3000000  -0.2000000), wk =   0.0120000
        k(   55) = (   0.1000000   0.3000000  -0.1000000), wk =   0.0120000
        k(   56) = (   0.1000000   0.4000000   0.4000000), wk =   0.0060000
        k(   57) = (   0.1000000   0.4000000  -0.5000000), wk =   0.0120000
        k(   58) = (   0.1000000   0.4000000  -0.4000000), wk =   0.0120000
        k(   59) = (   0.1000000   0.4000000  -0.3000000), wk =   0.0120000
        k(   60) = (   0.1000000   0.4000000  -0.2000000), wk =   0.0120000
        k(   61) = (   0.1000000   0.4000000  -0.1000000), wk =   0.0120000
        k(   62) = (   0.1000000  -0.5000000  -0.5000000), wk =   0.0060000
        k(   63) = (   0.1000000  -0.5000000  -0.4000000), wk =   0.0120000
        k(   64) = (   0.1000000  -0.5000000  -0.3000000), wk =   0.0120000
        k(   65) = (   0.1000000  -0.5000000  -0.2000000), wk =   0.0120000
        k(   66) = (   0.1000000  -0.5000000  -0.1000000), wk =   0.0060000
        k(   67) = (   0.1000000  -0.4000000  -0.4000000), wk =   0.0060000
        k(   68) = (   0.1000000  -0.4000000  -0.3000000), wk =   0.0120000
        k(   69) = (   0.1000000  -0.4000000  -0.2000000), wk =   0.0120000
        k(   70) = (   0.1000000  -0.3000000  -0.3000000), wk =   0.0060000
        k(   71) = (   0.1000000  -0.3000000  -0.2000000), wk =   0.0120000
        k(   72) = (   0.1000000  -0.2000000  -0.2000000), wk =   0.0060000
        k(   73) = (   0.2000000   0.2000000   0.2000000), wk =   0.0020000
        k(   74) = (   0.2000000   0.2000000   0.3000000), wk =   0.0060000
        k(   75) = (   0.2000000   0.2000000   0.4000000), wk =   0.0060000
        k(   76) = (   0.2000000   0.2000000  -0.5000000), wk =   0.0060000
        k(   77) = (   0.2000000   0.2000000  -0.4000000), wk =   0.0060000
        k(   78) = (   0.2000000   0.2000000  -0.3000000), wk =   0.0060000
        k(   79) = (   0.2000000   0.2000000  -0.2000000), wk =   0.0060000
        k(   80) = (   0.2000000   0.3000000   0.3000000), wk =   0.0060000
        k(   81) = (   0.2000000   0.3000000   0.4000000), wk =   0.0120000
        k(   82) = (   0.2000000   0.3000000  -0.5000000), wk =   0.0120000
        k(   83) = (   0.2000000   0.3000000  -0.4000000), wk =   0.0120000
        k(   84) = (   0.2000000   0.3000000  -0.3000000), wk =   0.0120000
        k(   85) = (   0.2000000   0.3000000  -0.2000000), wk =   0.0120000
        k(   86) = (   0.2000000   0.4000000   0.4000000), wk =   0.0060000
        k(   87) = (   0.2000000   0.4000000  -0.5000000), wk =   0.0120000
        k(   88) = (   0.2000000   0.4000000  -0.4000000), wk =   0.0120000
        k(   89) = (   0.2000000   0.4000000  -0.3000000), wk =   0.0120000
        k(   90) = (   0.2000000   0.4000000  -0.2000000), wk =   0.0120000
        k(   91) = (   0.2000000  -0.5000000  -0.5000000), wk =   0.0060000
        k(   92) = (   0.2000000  -0.5000000  -0.4000000), wk =   0.0120000
        k(   93) = (   0.2000000  -0.5000000  -0.3000000), wk =   0.0120000
        k(   94) = (   0.2000000  -0.5000000  -0.2000000), wk =   0.0060000
        k(   95) = (   0.2000000  -0.4000000  -0.4000000), wk =   0.0060000
        k(   96) = (   0.2000000  -0.4000000  -0.3000000), wk =   0.0120000
        k(   97) = (   0.2000000  -0.3000000  -0.3000000), wk =   0.0060000
        k(   98) = (   0.3000000   0.3000000   0.3000000), wk =   0.0020000
        k(   99) = (   0.3000000   0.3000000   0.4000000), wk =   0.0060000
        k(  100) = (   0.3000000   0.3000000  -0.5000000), wk =   0.0060000
        k(  101) = (   0.3000000   0.3000000  -0.4000000), wk =   0.0060000
        k(  102) = (   0.3000000   0.3000000  -0.3000000), wk =   0.0060000
        k(  103) = (   0.3000000   0.4000000   0.4000000), wk =   0.0060000
        k(  104) = (   0.3000000   0.4000000  -0.5000000), wk =   0.0120000
        k(  105) = (   0.3000000   0.4000000  -0.4000000), wk =   0.0120000
        k(  106) = (   0.3000000   0.4000000  -0.3000000), wk =   0.0120000
        k(  107) = (   0.3000000  -0.5000000  -0.5000000), wk =   0.0060000
        k(  108) = (   0.3000000  -0.5000000  -0.4000000), wk =   0.0120000
        k(  109) = (   0.3000000  -0.5000000  -0.3000000), wk =   0.0060000
        k(  110) = (   0.3000000  -0.4000000  -0.4000000), wk =   0.0060000
        k(  111) = (   0.4000000   0.4000000   0.4000000), wk =   0.0020000
        k(  112) = (   0.4000000   0.4000000  -0.5000000), wk =   0.0060000
        k(  113) = (   0.4000000   0.4000000  -0.4000000), wk =   0.0060000
        k(  114) = (   0.4000000  -0.5000000  -0.5000000), wk =   0.0060000
        k(  115) = (   0.4000000  -0.5000000  -0.4000000), wk =   0.0060000
        k(  116) = (  -0.5000000  -0.5000000  -0.5000000), wk =   0.0010000

     Dense  grid:   107339 G-vectors     FFT dimensions: (  60,  60,  60)

     Smooth grid:    37897 G-vectors     FFT dimensions: (  45,  45,  45)

     Dynamical RAM for                 wfc:       0.20 MB

     Dynamical RAM for     wfc (w. buffer):       5.89 MB

     Dynamical RAM for           str. fact:       0.70 MB

     Dynamical RAM for           local pot:       0.00 MB

     Dynamical RAM for          nlocal pot:       0.52 MB

     Dynamical RAM for                qrad:       5.27 MB

     Dynamical RAM for          rho,v,vnew:       2.89 MB

     Dynamical RAM for               rhoin:       0.96 MB

     Dynamical RAM for            rho*nmix:       7.49 MB

     Dynamical RAM for           G-vectors:       0.92 MB

     Dynamical RAM for          h,s,v(r/c):       0.07 MB

     Dynamical RAM for          <psi|beta>:       0.01 MB

     Dynamical RAM for                 psi:       0.39 MB

     Dynamical RAM for                hpsi:       0.39 MB

     Dynamical RAM for                spsi:       0.39 MB

     Dynamical RAM for      wfcinit/wfcrot:       0.42 MB

     Dynamical RAM for           addusdens:       5.96 MB

     Dynamical RAM for          addusforce:       5.90 MB

     Dynamical RAM for         addusstress:       6.12 MB

     Estimated static dynamical RAM per process >      19.57 MB

     Estimated max dynamical RAM per process >      33.18 MB

     Estimated total dynamical RAM >       1.46 GB
     Generating pointlists ...
     new r_m :   0.1510 (alat units)  1.2773 (a.u.) for type    1
     new r_m :   0.2655 (alat units)  2.2463 (a.u.) for type    2
     new r_m :   0.1510 (alat units)  1.2773 (a.u.) for type    3

     Initial potential from superposition of free atoms

     starting charge      30.0000, renormalised to      30.0000
     Starting wfcs are   20 randomized atomic wfcs
     Checking if some PAW data can be deallocated... 
       PAW data deallocated on   23 nodes for type:  3

     total cpu time spent up to now is        2.0 secs

     per-process dynamical memory:    29.5 Mb

     Self-consistent Calculation

     iteration #  1     ecut=    60.00 Ry     beta= 0.40
     Davidson diagonalization with overlap

---- Real-time Memory Report at c_bands before calling an iterative solver
            65 MiB given to the printing process from OS
            29 MiB allocation reported by mallinfo(arena+hblkhd)
        486449 MiB available memory on the node where the printing process lives
------------------
     ethr =  1.00E-02,  avg # of iterations =  2.3

     total cpu time spent up to now is        3.0 secs

     total energy              =    -182.16173609 Ry
     estimated scf accuracy    <       2.09924130 Ry

     total magnetization       =     1.98 Bohr mag/cell
     absolute magnetization    =     2.09 Bohr mag/cell

     iteration #  2     ecut=    60.00 Ry     beta= 0.40
     Davidson diagonalization with overlap

---- Real-time Memory Report at c_bands before calling an iterative solver
            75 MiB given to the printing process from OS
            37 MiB allocation reported by mallinfo(arena+hblkhd)
        486003 MiB available memory on the node where the printing process lives
------------------
     ethr =  7.00E-03,  avg # of iterations =  3.2

     total cpu time spent up to now is        3.9 secs

     total energy              =    -182.13733767 Ry
     estimated scf accuracy    <       7.52470528 Ry

     total magnetization       =     1.87 Bohr mag/cell
     absolute magnetization    =     1.95 Bohr mag/cell

     iteration #  3     ecut=    60.00 Ry     beta= 0.40
     Davidson diagonalization with overlap

---- Real-time Memory Report at c_bands before calling an iterative solver
            76 MiB given to the printing process from OS
            38 MiB allocation reported by mallinfo(arena+hblkhd)
        485994 MiB available memory on the node where the printing process lives
------------------
     ethr =  7.00E-03,  avg # of iterations =  2.0

     total cpu time spent up to now is        4.7 secs

     total energy              =    -183.02292919 Ry
     estimated scf accuracy    <       0.51254774 Ry

     total magnetization       =     2.00 Bohr mag/cell
     absolute magnetization    =     2.10 Bohr mag/cell

     iteration #  4     ecut=    60.00 Ry     beta= 0.40
     Davidson diagonalization with overlap

---- Real-time Memory Report at c_bands before calling an iterative solver
            77 MiB given to the printing process from OS
            38 MiB allocation reported by mallinfo(arena+hblkhd)
        485982 MiB available memory on the node where the printing process lives
------------------
     ethr =  1.71E-03,  avg # of iterations =  2.0

     total cpu time spent up to now is        5.5 secs

     total energy              =    -182.98070664 Ry
     estimated scf accuracy    <       0.32266436 Ry

     total magnetization       =     1.86 Bohr mag/cell
     absolute magnetization    =     2.01 Bohr mag/cell

     iteration #  5     ecut=    60.00 Ry     beta= 0.40
     Davidson diagonalization with overlap

---- Real-time Memory Report at c_bands before calling an iterative solver
            78 MiB given to the printing process from OS
            38 MiB allocation reported by mallinfo(arena+hblkhd)
        485969 MiB available memory on the node where the printing process lives
------------------
     ethr =  1.08E-03,  avg # of iterations =  1.5

     total cpu time spent up to now is        6.3 secs

     total energy              =    -183.13088481 Ry
     estimated scf accuracy    <       0.36387108 Ry

     total magnetization       =     3.38 Bohr mag/cell
     absolute magnetization    =     3.38 Bohr mag/cell

     iteration #  6     ecut=    60.00 Ry     beta= 0.40
     Davidson diagonalization with overlap

---- Real-time Memory Report at c_bands before calling an iterative solver
            78 MiB given to the printing process from OS
            39 MiB allocation reported by mallinfo(arena+hblkhd)
        485962 MiB available memory on the node where the printing process lives
------------------
     ethr =  1.08E-03,  avg # of iterations =  1.0

     total cpu time spent up to now is        7.0 secs

     total energy              =    -183.13452235 Ry
     estimated scf accuracy    <       0.31807503 Ry

     total magnetization       =     3.41 Bohr mag/cell
     absolute magnetization    =     3.41 Bohr mag/cell

     iteration #  7     ecut=    60.00 Ry     beta= 0.40
     Davidson diagonalization with overlap

---- Real-time Memory Report at c_bands before calling an iterative solver
            79 MiB given to the printing process from OS
            39 MiB allocation reported by mallinfo(arena+hblkhd)
        485956 MiB available memory on the node where the printing process lives
------------------
     ethr =  1.06E-03,  avg # of iterations =  1.0

     total cpu time spent up to now is        7.8 secs

     total energy              =    -183.23169621 Ry
     estimated scf accuracy    <       0.43141747 Ry

     total magnetization       =     3.31 Bohr mag/cell
     absolute magnetization    =     3.31 Bohr mag/cell

     iteration #  8     ecut=    60.00 Ry     beta= 0.40
     Davidson diagonalization with overlap

---- Real-time Memory Report at c_bands before calling an iterative solver
            79 MiB given to the printing process from OS
            39 MiB allocation reported by mallinfo(arena+hblkhd)
        485948 MiB available memory on the node where the printing process lives
------------------
     ethr =  1.06E-03,  avg # of iterations =  1.4

     total cpu time spent up to now is        8.6 secs

     total energy              =    -183.18772128 Ry
     estimated scf accuracy    <       0.47159659 Ry

     total magnetization       =     3.45 Bohr mag/cell
     absolute magnetization    =     3.45 Bohr mag/cell

     iteration #  9     ecut=    60.00 Ry     beta= 0.40
     Davidson diagonalization with overlap

---- Real-time Memory Report at c_bands before calling an iterative solver
            80 MiB given to the printing process from OS
            40 MiB allocation reported by mallinfo(arena+hblkhd)
        485929 MiB available memory on the node where the printing process lives
------------------
     ethr =  1.06E-03,  avg # of iterations =  1.0

     total cpu time spent up to now is        9.4 secs

     total energy              =    -183.17887218 Ry
     estimated scf accuracy    <       0.21147797 Ry

     total magnetization       =     3.68 Bohr mag/cell
     absolute magnetization    =     3.68 Bohr mag/cell

     iteration # 10     ecut=    60.00 Ry     beta= 0.40
     Davidson diagonalization with overlap

---- Real-time Memory Report at c_bands before calling an iterative solver
            80 MiB given to the printing process from OS
            40 MiB allocation reported by mallinfo(arena+hblkhd)
        485920 MiB available memory on the node where the printing process lives
------------------
     ethr =  7.05E-04,  avg # of iterations =  1.0

     total cpu time spent up to now is       10.1 secs

     total energy              =    -183.18301220 Ry
     estimated scf accuracy    <       0.14958848 Ry

     total magnetization       =     3.82 Bohr mag/cell
     absolute magnetization    =     3.83 Bohr mag/cell

     iteration # 11     ecut=    60.00 Ry     beta= 0.40
     Davidson diagonalization with overlap

---- Real-time Memory Report at c_bands before calling an iterative solver
            81 MiB given to the printing process from OS
            40 MiB allocation reported by mallinfo(arena+hblkhd)
        485918 MiB available memory on the node where the printing process lives
------------------
     ethr =  4.99E-04,  avg # of iterations =  1.0

     total cpu time spent up to now is       10.8 secs

     total energy              =    -183.17515910 Ry
     estimated scf accuracy    <       0.15576910 Ry

     total magnetization       =     3.80 Bohr mag/cell
     absolute magnetization    =     3.81 Bohr mag/cell

     iteration # 12     ecut=    60.00 Ry     beta= 0.40
     Davidson diagonalization with overlap

---- Real-time Memory Report at c_bands before calling an iterative solver
            81 MiB given to the printing process from OS
            40 MiB allocation reported by mallinfo(arena+hblkhd)
        485916 MiB available memory on the node where the printing process lives
------------------
     ethr =  4.99E-04,  avg # of iterations =  1.0

     negative rho (up, down):  0.000E+00 1.632E-06

     total cpu time spent up to now is       11.5 secs

     total energy              =    -183.17166923 Ry
     estimated scf accuracy    <       0.13216977 Ry

     total magnetization       =     3.88 Bohr mag/cell
     absolute magnetization    =     3.89 Bohr mag/cell

     iteration # 13     ecut=    60.00 Ry     beta= 0.40
     Davidson diagonalization with overlap

---- Real-time Memory Report at c_bands before calling an iterative solver
            81 MiB given to the printing process from OS
            40 MiB allocation reported by mallinfo(arena+hblkhd)
        485911 MiB available memory on the node where the printing process lives
------------------
     ethr =  4.41E-04,  avg # of iterations =  1.0

     negative rho (up, down):  0.000E+00 1.031E-05

     total cpu time spent up to now is       12.2 secs

     total energy              =    -183.12863164 Ry
     estimated scf accuracy    <       0.12333042 Ry

     total magnetization       =     3.89 Bohr mag/cell
     absolute magnetization    =     3.90 Bohr mag/cell

     iteration # 14     ecut=    60.00 Ry     beta= 0.40
     Davidson diagonalization with overlap

---- Real-time Memory Report at c_bands before calling an iterative solver
            81 MiB given to the printing process from OS
            40 MiB allocation reported by mallinfo(arena+hblkhd)
        485907 MiB available memory on the node where the printing process lives
------------------
     ethr =  4.11E-04,  avg # of iterations =  1.6

     total cpu time spent up to now is       13.0 secs

     total energy              =    -183.12888809 Ry
     estimated scf accuracy    <       0.04571469 Ry

     total magnetization       =     4.12 Bohr mag/cell
     absolute magnetization    =     4.15 Bohr mag/cell

     iteration # 15     ecut=    60.00 Ry     beta= 0.40
     Davidson diagonalization with overlap

---- Real-time Memory Report at c_bands before calling an iterative solver
            81 MiB given to the printing process from OS
            40 MiB allocation reported by mallinfo(arena+hblkhd)
        485904 MiB available memory on the node where the printing process lives
------------------
     ethr =  1.52E-04,  avg # of iterations =  1.6

     total cpu time spent up to now is       13.8 secs

     total energy              =    -183.11777014 Ry
     estimated scf accuracy    <       0.03310256 Ry

     total magnetization       =     4.25 Bohr mag/cell
     absolute magnetization    =     4.28 Bohr mag/cell

     iteration # 16     ecut=    60.00 Ry     beta= 0.40
     Davidson diagonalization with overlap

---- Real-time Memory Report at c_bands before calling an iterative solver
            81 MiB given to the printing process from OS
            40 MiB allocation reported by mallinfo(arena+hblkhd)
        485898 MiB available memory on the node where the printing process lives
------------------
     ethr =  1.10E-04,  avg # of iterations =  2.4

     total cpu time spent up to now is       14.6 secs

     total energy              =    -183.08506497 Ry
     estimated scf accuracy    <       0.25422257 Ry

     total magnetization       =     2.35 Bohr mag/cell
     absolute magnetization    =     2.53 Bohr mag/cell

     iteration # 17     ecut=    60.00 Ry     beta= 0.40
     Davidson diagonalization with overlap

---- Real-time Memory Report at c_bands before calling an iterative solver
            82 MiB given to the printing process from OS
            40 MiB allocation reported by mallinfo(arena+hblkhd)
        485895 MiB available memory on the node where the printing process lives
------------------
     ethr =  1.10E-04,  avg # of iterations =  2.0

     total cpu time spent up to now is       15.4 secs

     total energy              =    -183.14185472 Ry
     estimated scf accuracy    <       0.03392996 Ry

     total magnetization       =     4.13 Bohr mag/cell
     absolute magnetization    =     4.17 Bohr mag/cell

     iteration # 18     ecut=    60.00 Ry     beta= 0.40
     Davidson diagonalization with overlap

---- Real-time Memory Report at c_bands before calling an iterative solver
            82 MiB given to the printing process from OS
            40 MiB allocation reported by mallinfo(arena+hblkhd)
        485891 MiB available memory on the node where the printing process lives
------------------
     ethr =  1.10E-04,  avg # of iterations =  1.5

     total cpu time spent up to now is       16.2 secs

     total energy              =    -183.13634905 Ry
     estimated scf accuracy    <       0.04450602 Ry

     total magnetization       =     4.09 Bohr mag/cell
     absolute magnetization    =     4.12 Bohr mag/cell

     iteration # 19     ecut=    60.00 Ry     beta= 0.40
     Davidson diagonalization with overlap

---- Real-time Memory Report at c_bands before calling an iterative solver
            82 MiB given to the printing process from OS
            40 MiB allocation reported by mallinfo(arena+hblkhd)
        485891 MiB available memory on the node where the printing process lives
------------------
     ethr =  1.10E-04,  avg # of iterations =  1.0

     total cpu time spent up to now is       16.9 secs

     total energy              =    -183.13686862 Ry
     estimated scf accuracy    <       0.04118378 Ry

     total magnetization       =     4.19 Bohr mag/cell
     absolute magnetization    =     4.22 Bohr mag/cell

     iteration # 20     ecut=    60.00 Ry     beta= 0.40
     Davidson diagonalization with overlap

---- Real-time Memory Report at c_bands before calling an iterative solver
            82 MiB given to the printing process from OS
            40 MiB allocation reported by mallinfo(arena+hblkhd)
        485890 MiB available memory on the node where the printing process lives
------------------
     ethr =  1.10E-04,  avg # of iterations =  1.0

     total cpu time spent up to now is       17.6 secs

     total energy              =    -183.13792750 Ry
     estimated scf accuracy    <       0.04117570 Ry

     total magnetization       =     4.18 Bohr mag/cell
     absolute magnetization    =     4.21 Bohr mag/cell

     iteration # 21     ecut=    60.00 Ry     beta= 0.40
     Davidson diagonalization with overlap

---- Real-time Memory Report at c_bands before calling an iterative solver
            82 MiB given to the printing process from OS
            40 MiB allocation reported by mallinfo(arena+hblkhd)
        485889 MiB available memory on the node where the printing process lives
------------------
     ethr =  1.10E-04,  avg # of iterations =  1.0

     total cpu time spent up to now is       18.4 secs

     total energy              =    -183.13524970 Ry
     estimated scf accuracy    <       0.04185746 Ry

     total magnetization       =     4.15 Bohr mag/cell
     absolute magnetization    =     4.18 Bohr mag/cell

     iteration # 22     ecut=    60.00 Ry     beta= 0.40
     Davidson diagonalization with overlap

---- Real-time Memory Report at c_bands before calling an iterative solver
            82 MiB given to the printing process from OS
            40 MiB allocation reported by mallinfo(arena+hblkhd)
        485888 MiB available memory on the node where the printing process lives
------------------
     ethr =  1.10E-04,  avg # of iterations =  1.0

     total cpu time spent up to now is       19.1 secs

     total energy              =    -183.13670339 Ry
     estimated scf accuracy    <       0.04112981 Ry

     total magnetization       =     4.18 Bohr mag/cell
     absolute magnetization    =     4.21 Bohr mag/cell

     iteration # 23     ecut=    60.00 Ry     beta= 0.40
     Davidson diagonalization with overlap

---- Real-time Memory Report at c_bands before calling an iterative solver
            82 MiB given to the printing process from OS
            40 MiB allocation reported by mallinfo(arena+hblkhd)
        485886 MiB available memory on the node where the printing process lives
------------------
     ethr =  1.10E-04,  avg # of iterations =  1.0

     total cpu time spent up to now is       19.8 secs

     total energy              =    -183.13564776 Ry
     estimated scf accuracy    <       0.04139918 Ry

     total magnetization       =     4.15 Bohr mag/cell
     absolute magnetization    =     4.18 Bohr mag/cell

     iteration # 24     ecut=    60.00 Ry     beta= 0.40
     Davidson diagonalization with overlap

---- Real-time Memory Report at c_bands before calling an iterative solver
            82 MiB given to the printing process from OS
            40 MiB allocation reported by mallinfo(arena+hblkhd)
        485880 MiB available memory on the node where the printing process lives
------------------
     ethr =  1.10E-04,  avg # of iterations =  1.0

     total cpu time spent up to now is       20.5 secs

     total energy              =    -183.13786806 Ry
     estimated scf accuracy    <       0.04113205 Ry

     total magnetization       =     4.16 Bohr mag/cell
     absolute magnetization    =     4.19 Bohr mag/cell

     iteration # 25     ecut=    60.00 Ry     beta= 0.40
     Davidson diagonalization with overlap

---- Real-time Memory Report at c_bands before calling an iterative solver
            82 MiB given to the printing process from OS
            40 MiB allocation reported by mallinfo(arena+hblkhd)
        485877 MiB available memory on the node where the printing process lives
------------------
     ethr =  1.10E-04,  avg # of iterations =  1.0

     total cpu time spent up to now is       21.2 secs

     total energy              =    -183.09945392 Ry
     estimated scf accuracy    <       0.04209982 Ry

     total magnetization       =     4.15 Bohr mag/cell
     absolute magnetization    =     4.18 Bohr mag/cell

     iteration # 26     ecut=    60.00 Ry     beta= 0.40
     Davidson diagonalization with overlap

---- Real-time Memory Report at c_bands before calling an iterative solver
            82 MiB given to the printing process from OS
            40 MiB allocation reported by mallinfo(arena+hblkhd)
        485874 MiB available memory on the node where the printing process lives
------------------
     ethr =  1.10E-04,  avg # of iterations =  5.8

     total cpu time spent up to now is       22.6 secs

     total energy              =    -183.10753491 Ry
     estimated scf accuracy    <       0.97562850 Ry

     total magnetization       =     2.00 Bohr mag/cell
     absolute magnetization    =     2.23 Bohr mag/cell

     iteration # 27     ecut=    60.00 Ry     beta= 0.40
     Davidson diagonalization with overlap

---- Real-time Memory Report at c_bands before calling an iterative solver
            82 MiB given to the printing process from OS
            40 MiB allocation reported by mallinfo(arena+hblkhd)
        485872 MiB available memory on the node where the printing process lives
------------------
     ethr =  1.10E-04,  avg # of iterations =  5.8

     total cpu time spent up to now is       23.8 secs

     total energy              =    -183.12096467 Ry
     estimated scf accuracy    <       0.16248497 Ry

     total magnetization       =     2.50 Bohr mag/cell
     absolute magnetization    =     2.65 Bohr mag/cell

     iteration # 28     ecut=    60.00 Ry     beta= 0.40
     Davidson diagonalization with overlap

---- Real-time Memory Report at c_bands before calling an iterative solver
            82 MiB given to the printing process from OS
            40 MiB allocation reported by mallinfo(arena+hblkhd)
        485870 MiB available memory on the node where the printing process lives
------------------
     ethr =  1.10E-04,  avg # of iterations =  1.1

     total cpu time spent up to now is       24.6 secs

     total energy              =    -183.12852532 Ry
     estimated scf accuracy    <       0.00074683 Ry

     total magnetization       =     3.68 Bohr mag/cell
     absolute magnetization    =     3.74 Bohr mag/cell

     iteration # 29     ecut=    60.00 Ry     beta= 0.40
     Davidson diagonalization with overlap

---- Real-time Memory Report at c_bands before calling an iterative solver
            83 MiB given to the printing process from OS
            40 MiB allocation reported by mallinfo(arena+hblkhd)
        485869 MiB available memory on the node where the printing process lives
------------------
     ethr =  2.49E-06,  avg # of iterations = 10.6

     total cpu time spent up to now is       26.0 secs

     total energy              =    -183.12913352 Ry
     estimated scf accuracy    <       0.00057636 Ry

     total magnetization       =     3.66 Bohr mag/cell
     absolute magnetization    =     3.71 Bohr mag/cell

     iteration # 30     ecut=    60.00 Ry     beta= 0.40
     Davidson diagonalization with overlap

---- Real-time Memory Report at c_bands before calling an iterative solver
            83 MiB given to the printing process from OS
            40 MiB allocation reported by mallinfo(arena+hblkhd)
        485868 MiB available memory on the node where the printing process lives
------------------
     ethr =  1.92E-06,  avg # of iterations =  2.2

     total cpu time spent up to now is       26.9 secs

     total energy              =    -183.12895032 Ry
     estimated scf accuracy    <       0.01506127 Ry

     total magnetization       =     3.95 Bohr mag/cell
     absolute magnetization    =     4.00 Bohr mag/cell

     iteration # 31     ecut=    60.00 Ry     beta= 0.40
     Davidson diagonalization with overlap

---- Real-time Memory Report at c_bands before calling an iterative solver
            83 MiB given to the printing process from OS
            40 MiB allocation reported by mallinfo(arena+hblkhd)
        485863 MiB available memory on the node where the printing process lives
------------------
     ethr =  1.92E-06,  avg # of iterations =  1.0

     total cpu time spent up to now is       27.6 secs

     total energy              =    -183.12977667 Ry
     estimated scf accuracy    <       0.00554310 Ry

     total magnetization       =     3.79 Bohr mag/cell
     absolute magnetization    =     3.85 Bohr mag/cell

     iteration # 32     ecut=    60.00 Ry     beta= 0.40
     Davidson diagonalization with overlap

---- Real-time Memory Report at c_bands before calling an iterative solver
            83 MiB given to the printing process from OS
            40 MiB allocation reported by mallinfo(arena+hblkhd)
        485862 MiB available memory on the node where the printing process lives
------------------
     ethr =  1.92E-06,  avg # of iterations =  1.2

     total cpu time spent up to now is       28.4 secs

     total energy              =    -183.13095200 Ry
     estimated scf accuracy    <       0.01731595 Ry

     total magnetization       =     3.99 Bohr mag/cell
     absolute magnetization    =     4.04 Bohr mag/cell

     iteration # 33     ecut=    60.00 Ry     beta= 0.40
     Davidson diagonalization with overlap

---- Real-time Memory Report at c_bands before calling an iterative solver
            83 MiB given to the printing process from OS
            40 MiB allocation reported by mallinfo(arena+hblkhd)
        485862 MiB available memory on the node where the printing process lives
------------------
     ethr =  1.92E-06,  avg # of iterations =  1.9

     total cpu time spent up to now is       29.2 secs

     total energy              =    -183.13071666 Ry
     estimated scf accuracy    <       0.03151575 Ry

     total magnetization       =     4.20 Bohr mag/cell
     absolute magnetization    =     4.25 Bohr mag/cell

     iteration # 34     ecut=    60.00 Ry     beta= 0.40
     Davidson diagonalization with overlap

---- Real-time Memory Report at c_bands before calling an iterative solver
            83 MiB given to the printing process from OS
            40 MiB allocation reported by mallinfo(arena+hblkhd)
        485861 MiB available memory on the node where the printing process lives
------------------
     ethr =  1.92E-06,  avg # of iterations =  1.0

     total cpu time spent up to now is       29.9 secs

     total energy              =    -183.12924632 Ry
     estimated scf accuracy    <       0.02869556 Ry

     total magnetization       =     4.18 Bohr mag/cell
     absolute magnetization    =     4.23 Bohr mag/cell

     iteration # 35     ecut=    60.00 Ry     beta= 0.40
     Davidson diagonalization with overlap

---- Real-time Memory Report at c_bands before calling an iterative solver
            83 MiB given to the printing process from OS
            40 MiB allocation reported by mallinfo(arena+hblkhd)
        485861 MiB available memory on the node where the printing process lives
------------------
     ethr =  1.92E-06,  avg # of iterations =  2.0

     total cpu time spent up to now is       30.7 secs

     total energy              =    -183.12955481 Ry
     estimated scf accuracy    <       0.01445080 Ry

     total magnetization       =     3.98 Bohr mag/cell
     absolute magnetization    =     4.04 Bohr mag/cell

     iteration # 36     ecut=    60.00 Ry     beta= 0.40
     Davidson diagonalization with overlap

---- Real-time Memory Report at c_bands before calling an iterative solver
            83 MiB given to the printing process from OS
            40 MiB allocation reported by mallinfo(arena+hblkhd)
        485861 MiB available memory on the node where the printing process lives
------------------
     ethr =  1.92E-06,  avg # of iterations =  1.1

     total cpu time spent up to now is       31.4 secs

     total energy              =    -183.12601403 Ry
     estimated scf accuracy    <       0.01218798 Ry

     total magnetization       =     3.90 Bohr mag/cell
     absolute magnetization    =     3.95 Bohr mag/cell

     iteration # 37     ecut=    60.00 Ry     beta= 0.40
     Davidson diagonalization with overlap

---- Real-time Memory Report at c_bands before calling an iterative solver
            83 MiB given to the printing process from OS
            40 MiB allocation reported by mallinfo(arena+hblkhd)
        485860 MiB available memory on the node where the printing process lives
------------------
     ethr =  1.92E-06,  avg # of iterations =  2.6

     total cpu time spent up to now is       32.4 secs

     total energy              =    -183.12892830 Ry
     estimated scf accuracy    <       0.00614603 Ry

     total magnetization       =     3.07 Bohr mag/cell
     absolute magnetization    =     3.13 Bohr mag/cell

     iteration # 38     ecut=    60.00 Ry     beta= 0.40
     Davidson diagonalization with overlap

---- Real-time Memory Report at c_bands before calling an iterative solver
            83 MiB given to the printing process from OS
            40 MiB allocation reported by mallinfo(arena+hblkhd)
        485858 MiB available memory on the node where the printing process lives
------------------
     ethr =  1.92E-06,  avg # of iterations =  1.0

     total cpu time spent up to now is       33.1 secs

     total energy              =    -183.12901898 Ry
     estimated scf accuracy    <       0.00065051 Ry

     total magnetization       =     3.27 Bohr mag/cell
     absolute magnetization    =     3.31 Bohr mag/cell

     iteration # 39     ecut=    60.00 Ry     beta= 0.40
     Davidson diagonalization with overlap

---- Real-time Memory Report at c_bands before calling an iterative solver
            83 MiB given to the printing process from OS
            40 MiB allocation reported by mallinfo(arena+hblkhd)
        485858 MiB available memory on the node where the printing process lives
------------------
     ethr =  1.92E-06,  avg # of iterations =  1.0

     total cpu time spent up to now is       33.9 secs

     total energy              =    -183.12908129 Ry
     estimated scf accuracy    <       0.00000337 Ry

     total magnetization       =     3.38 Bohr mag/cell
     absolute magnetization    =     3.42 Bohr mag/cell

     iteration # 40     ecut=    60.00 Ry     beta= 0.40
     Davidson diagonalization with overlap

---- Real-time Memory Report at c_bands before calling an iterative solver
            83 MiB given to the printing process from OS
            40 MiB allocation reported by mallinfo(arena+hblkhd)
        485857 MiB available memory on the node where the printing process lives
------------------
     ethr =  1.12E-08,  avg # of iterations =  7.0

     total cpu time spent up to now is       35.7 secs

     total energy              =    -183.12908989 Ry
     estimated scf accuracy    <       0.00004857 Ry

     total magnetization       =     3.37 Bohr mag/cell
     absolute magnetization    =     3.41 Bohr mag/cell

     iteration # 41     ecut=    60.00 Ry     beta= 0.40
     Davidson diagonalization with overlap

---- Real-time Memory Report at c_bands before calling an iterative solver
            83 MiB given to the printing process from OS
            40 MiB allocation reported by mallinfo(arena+hblkhd)
        485856 MiB available memory on the node where the printing process lives
------------------
     ethr =  1.12E-08,  avg # of iterations =  1.0

     total cpu time spent up to now is       36.4 secs

     total energy              =    -183.12908852 Ry
     estimated scf accuracy    <       0.00001552 Ry

     total magnetization       =     3.38 Bohr mag/cell
     absolute magnetization    =     3.42 Bohr mag/cell

     iteration # 42     ecut=    60.00 Ry     beta= 0.40
     Davidson diagonalization with overlap

---- Real-time Memory Report at c_bands before calling an iterative solver
            83 MiB given to the printing process from OS
            40 MiB allocation reported by mallinfo(arena+hblkhd)
        485856 MiB available memory on the node where the printing process lives
------------------
     ethr =  1.12E-08,  avg # of iterations =  2.0

     total cpu time spent up to now is       37.3 secs

     total energy              =    -183.12908956 Ry
     estimated scf accuracy    <       0.00001877 Ry

     total magnetization       =     3.37 Bohr mag/cell
     absolute magnetization    =     3.40 Bohr mag/cell

     iteration # 43     ecut=    60.00 Ry     beta= 0.40
     Davidson diagonalization with overlap

---- Real-time Memory Report at c_bands before calling an iterative solver
            83 MiB given to the printing process from OS
            40 MiB allocation reported by mallinfo(arena+hblkhd)
        485856 MiB available memory on the node where the printing process lives
------------------
     ethr =  1.12E-08,  avg # of iterations =  1.2

     total cpu time spent up to now is       38.0 secs

     total energy              =    -183.12909115 Ry
     estimated scf accuracy    <       0.00000050 Ry

     total magnetization       =     3.38 Bohr mag/cell
     absolute magnetization    =     3.42 Bohr mag/cell

     iteration # 44     ecut=    60.00 Ry     beta= 0.40
     Davidson diagonalization with overlap

---- Real-time Memory Report at c_bands before calling an iterative solver
            83 MiB given to the printing process from OS
            40 MiB allocation reported by mallinfo(arena+hblkhd)
        485856 MiB available memory on the node where the printing process lives
------------------
     ethr =  1.67E-09,  avg # of iterations =  2.7

     total cpu time spent up to now is       39.0 secs

     total energy              =    -183.12908990 Ry
     estimated scf accuracy    <       0.00000051 Ry

     total magnetization       =     3.38 Bohr mag/cell
     absolute magnetization    =     3.42 Bohr mag/cell

     iteration # 45     ecut=    60.00 Ry     beta= 0.40
     Davidson diagonalization with overlap

---- Real-time Memory Report at c_bands before calling an iterative solver
            83 MiB given to the printing process from OS
            40 MiB allocation reported by mallinfo(arena+hblkhd)
        485855 MiB available memory on the node where the printing process lives
------------------
     ethr =  1.67E-09,  avg # of iterations =  5.1

     total cpu time spent up to now is       40.3 secs

     total energy              =    -183.12909205 Ry
     estimated scf accuracy    <       0.00000003 Ry

     total magnetization       =     3.37 Bohr mag/cell
     absolute magnetization    =     3.41 Bohr mag/cell

     iteration # 46     ecut=    60.00 Ry     beta= 0.40
     Davidson diagonalization with overlap

---- Real-time Memory Report at c_bands before calling an iterative solver
            83 MiB given to the printing process from OS
            40 MiB allocation reported by mallinfo(arena+hblkhd)
        485849 MiB available memory on the node where the printing process lives
------------------
     ethr =  1.11E-10,  avg # of iterations =  6.8

     total cpu time spent up to now is       42.3 secs

     total energy              =    -183.12909193 Ry
     estimated scf accuracy    <       0.00000003 Ry

     total magnetization       =     3.37 Bohr mag/cell
     absolute magnetization    =     3.40 Bohr mag/cell

     iteration # 47     ecut=    60.00 Ry     beta= 0.40
     Davidson diagonalization with overlap

---- Real-time Memory Report at c_bands before calling an iterative solver
            83 MiB given to the printing process from OS
            40 MiB allocation reported by mallinfo(arena+hblkhd)
        485849 MiB available memory on the node where the printing process lives
------------------
     ethr =  1.05E-10,  avg # of iterations =  2.7

     total cpu time spent up to now is       43.3 secs

     total energy              =    -183.12909191 Ry
     estimated scf accuracy    <       0.00000005 Ry

     total magnetization       =     3.37 Bohr mag/cell
     absolute magnetization    =     3.41 Bohr mag/cell

     iteration # 48     ecut=    60.00 Ry     beta= 0.40
     Davidson diagonalization with overlap

---- Real-time Memory Report at c_bands before calling an iterative solver
            83 MiB given to the printing process from OS
            40 MiB allocation reported by mallinfo(arena+hblkhd)
        485849 MiB available memory on the node where the printing process lives
------------------
     ethr =  1.05E-10,  avg # of iterations =  2.8

     total cpu time spent up to now is       44.4 secs

     total energy              =    -183.12909192 Ry
     estimated scf accuracy    <       0.00000005 Ry

     total magnetization       =     3.37 Bohr mag/cell
     absolute magnetization    =     3.41 Bohr mag/cell

     iteration # 49     ecut=    60.00 Ry     beta= 0.40
     Davidson diagonalization with overlap

---- Real-time Memory Report at c_bands before calling an iterative solver
            83 MiB given to the printing process from OS
            40 MiB allocation reported by mallinfo(arena+hblkhd)
        485849 MiB available memory on the node where the printing process lives
------------------
     ethr =  1.05E-10,  avg # of iterations =  1.5

     total cpu time spent up to now is       45.1 secs

     total energy              =    -183.12909191 Ry
     estimated scf accuracy    <       0.00000005 Ry

     total magnetization       =     3.37 Bohr mag/cell
     absolute magnetization    =     3.41 Bohr mag/cell

     iteration # 50     ecut=    60.00 Ry     beta= 0.40
     Davidson diagonalization with overlap

---- Real-time Memory Report at c_bands before calling an iterative solver
            83 MiB given to the printing process from OS
            40 MiB allocation reported by mallinfo(arena+hblkhd)
        485849 MiB available memory on the node where the printing process lives
------------------
     ethr =  1.05E-10,  avg # of iterations =  1.0

     total cpu time spent up to now is       45.9 secs

     total energy              =    -183.12909193 Ry
     estimated scf accuracy    <       0.00000006 Ry

     total magnetization       =     3.37 Bohr mag/cell
     absolute magnetization    =     3.41 Bohr mag/cell

     iteration # 51     ecut=    60.00 Ry     beta= 0.40
     Davidson diagonalization with overlap

---- Real-time Memory Report at c_bands before calling an iterative solver
            84 MiB given to the printing process from OS
            40 MiB allocation reported by mallinfo(arena+hblkhd)
        485849 MiB available memory on the node where the printing process lives
------------------
     ethr =  1.05E-10,  avg # of iterations =  1.0

     total cpu time spent up to now is       46.6 secs

     total energy              =    -183.12909164 Ry
     estimated scf accuracy    <       0.00000004 Ry

     total magnetization       =     3.37 Bohr mag/cell
     absolute magnetization    =     3.41 Bohr mag/cell

     iteration # 52     ecut=    60.00 Ry     beta= 0.40
     Davidson diagonalization with overlap

---- Real-time Memory Report at c_bands before calling an iterative solver
            84 MiB given to the printing process from OS
            40 MiB allocation reported by mallinfo(arena+hblkhd)
        485848 MiB available memory on the node where the printing process lives
------------------
     ethr =  1.05E-10,  avg # of iterations =  6.1

     total cpu time spent up to now is       48.1 secs

     total energy              =    -183.12909031 Ry
     estimated scf accuracy    <       0.00000004 Ry

     total magnetization       =     3.36 Bohr mag/cell
     absolute magnetization    =     3.40 Bohr mag/cell

     iteration # 53     ecut=    60.00 Ry     beta= 0.40
     Davidson diagonalization with overlap

---- Real-time Memory Report at c_bands before calling an iterative solver
            84 MiB given to the printing process from OS
            40 MiB allocation reported by mallinfo(arena+hblkhd)
        485846 MiB available memory on the node where the printing process lives
------------------
     ethr =  1.05E-10,  avg # of iterations =  8.3

     total cpu time spent up to now is       50.1 secs

     total energy              =    -183.12909012 Ry
     estimated scf accuracy    <       0.00000001 Ry

     total magnetization       =     3.35 Bohr mag/cell
     absolute magnetization    =     3.39 Bohr mag/cell

     iteration # 54     ecut=    60.00 Ry     beta= 0.40
     Davidson diagonalization with overlap

---- Real-time Memory Report at c_bands before calling an iterative solver
            84 MiB given to the printing process from OS
            40 MiB allocation reported by mallinfo(arena+hblkhd)
        485845 MiB available memory on the node where the printing process lives
------------------
     ethr =  4.79E-11,  avg # of iterations =  9.6

     total cpu time spent up to now is       52.4 secs

     total energy              =    -183.12909317 Ry
     estimated scf accuracy    <          6.4E-09 Ry

     total magnetization       =     3.34 Bohr mag/cell
     absolute magnetization    =     3.37 Bohr mag/cell

     iteration # 55     ecut=    60.00 Ry     beta= 0.40
     Davidson diagonalization with overlap

---- Real-time Memory Report at c_bands before calling an iterative solver
            84 MiB given to the printing process from OS
            40 MiB allocation reported by mallinfo(arena+hblkhd)
        485838 MiB available memory on the node where the printing process lives
------------------
     ethr =  2.12E-11,  avg # of iterations =  6.1

     total cpu time spent up to now is       53.9 secs

     total energy              =    -183.12909232 Ry
     estimated scf accuracy    <          4.5E-09 Ry

     total magnetization       =     3.34 Bohr mag/cell
     absolute magnetization    =     3.37 Bohr mag/cell

     iteration # 56     ecut=    60.00 Ry     beta= 0.40
     Davidson diagonalization with overlap

---- Real-time Memory Report at c_bands before calling an iterative solver
            84 MiB given to the printing process from OS
            40 MiB allocation reported by mallinfo(arena+hblkhd)
        485838 MiB available memory on the node where the printing process lives
------------------
     ethr =  1.52E-11,  avg # of iterations =  9.8

     total cpu time spent up to now is       56.3 secs

     total energy              =    -183.12909245 Ry
     estimated scf accuracy    <          5.3E-09 Ry

     total magnetization       =     3.33 Bohr mag/cell
     absolute magnetization    =     3.36 Bohr mag/cell

     iteration # 57     ecut=    60.00 Ry     beta= 0.40
     Davidson diagonalization with overlap

---- Real-time Memory Report at c_bands before calling an iterative solver
            84 MiB given to the printing process from OS
            40 MiB allocation reported by mallinfo(arena+hblkhd)
        485838 MiB available memory on the node where the printing process lives
------------------
     ethr =  1.52E-11,  avg # of iterations =  9.5

     total cpu time spent up to now is       58.5 secs

     total energy              =    -183.12909212 Ry
     estimated scf accuracy    <          1.2E-09 Ry

     total magnetization       =     3.32 Bohr mag/cell
     absolute magnetization    =     3.36 Bohr mag/cell

     iteration # 58     ecut=    60.00 Ry     beta= 0.40
     Davidson diagonalization with overlap

---- Real-time Memory Report at c_bands before calling an iterative solver
            84 MiB given to the printing process from OS
            40 MiB allocation reported by mallinfo(arena+hblkhd)
        485837 MiB available memory on the node where the printing process lives
------------------
     ethr =  4.07E-12,  avg # of iterations = 12.2

     total cpu time spent up to now is       61.4 secs

     total energy              =    -183.12909253 Ry
     estimated scf accuracy    <          2.4E-09 Ry

     total magnetization       =     3.31 Bohr mag/cell
     absolute magnetization    =     3.35 Bohr mag/cell

     iteration # 59     ecut=    60.00 Ry     beta= 0.40
     Davidson diagonalization with overlap

---- Real-time Memory Report at c_bands before calling an iterative solver
            84 MiB given to the printing process from OS
            40 MiB allocation reported by mallinfo(arena+hblkhd)
        485837 MiB available memory on the node where the printing process lives
------------------
     ethr =  4.07E-12,  avg # of iterations = 11.4

     total cpu time spent up to now is       64.2 secs

     total energy              =    -183.12909296 Ry
     estimated scf accuracy    <          2.3E-09 Ry

     total magnetization       =     3.30 Bohr mag/cell
     absolute magnetization    =     3.34 Bohr mag/cell

     iteration # 60     ecut=    60.00 Ry     beta= 0.40
     Davidson diagonalization with overlap

---- Real-time Memory Report at c_bands before calling an iterative solver
            84 MiB given to the printing process from OS
            40 MiB allocation reported by mallinfo(arena+hblkhd)
        485837 MiB available memory on the node where the printing process lives
------------------
     ethr =  4.07E-12,  avg # of iterations = 10.4

     total cpu time spent up to now is       66.7 secs

     total energy              =    -183.12909362 Ry
     estimated scf accuracy    <          2.8E-09 Ry

     total magnetization       =     3.30 Bohr mag/cell
     absolute magnetization    =     3.33 Bohr mag/cell

     iteration # 61     ecut=    60.00 Ry     beta= 0.40
     Davidson diagonalization with overlap

---- Real-time Memory Report at c_bands before calling an iterative solver
            84 MiB given to the printing process from OS
            40 MiB allocation reported by mallinfo(arena+hblkhd)
        485835 MiB available memory on the node where the printing process lives
------------------
     ethr =  4.07E-12,  avg # of iterations =  2.0

     total cpu time spent up to now is       67.6 secs

     total energy              =    -183.12909066 Ry
     estimated scf accuracy    <          2.6E-09 Ry

     total magnetization       =     3.30 Bohr mag/cell
     absolute magnetization    =     3.33 Bohr mag/cell

     iteration # 62     ecut=    60.00 Ry     beta= 0.40
     Davidson diagonalization with overlap

---- Real-time Memory Report at c_bands before calling an iterative solver
            84 MiB given to the printing process from OS
            40 MiB allocation reported by mallinfo(arena+hblkhd)
        485835 MiB available memory on the node where the printing process lives
------------------
     ethr =  4.07E-12,  avg # of iterations = 13.0

     total cpu time spent up to now is       70.7 secs

     total energy              =    -183.12908986 Ry
     estimated scf accuracy    <          1.9E-09 Ry

     total magnetization       =     3.31 Bohr mag/cell
     absolute magnetization    =     3.35 Bohr mag/cell

     iteration # 63     ecut=    60.00 Ry     beta= 0.40
     Davidson diagonalization with overlap

---- Real-time Memory Report at c_bands before calling an iterative solver
            84 MiB given to the printing process from OS
            40 MiB allocation reported by mallinfo(arena+hblkhd)
        485835 MiB available memory on the node where the printing process lives
------------------
     ethr =  4.07E-12,  avg # of iterations = 13.6

     total cpu time spent up to now is       73.9 secs

     total energy              =    -183.12906849 Ry
     estimated scf accuracy    <          3.4E-09 Ry

     total magnetization       =     3.29 Bohr mag/cell
     absolute magnetization    =     3.33 Bohr mag/cell

     iteration # 64     ecut=    60.00 Ry     beta= 0.40
     Davidson diagonalization with overlap

---- Real-time Memory Report at c_bands before calling an iterative solver
            84 MiB given to the printing process from OS
            40 MiB allocation reported by mallinfo(arena+hblkhd)
        485835 MiB available memory on the node where the printing process lives
------------------
     c_bands:  1 eigenvalues not converged
     ethr =  4.07E-12,  avg # of iterations = 17.1

     total cpu time spent up to now is       77.9 secs

     total energy              =    -183.12907761 Ry
     estimated scf accuracy    <       0.00000002 Ry

     total magnetization       =     3.33 Bohr mag/cell
     absolute magnetization    =     3.37 Bohr mag/cell

     iteration # 65     ecut=    60.00 Ry     beta= 0.40
     Davidson diagonalization with overlap

---- Real-time Memory Report at c_bands before calling an iterative solver
            84 MiB given to the printing process from OS
            40 MiB allocation reported by mallinfo(arena+hblkhd)
        485834 MiB available memory on the node where the printing process lives
------------------
     ethr =  4.07E-12,  avg # of iterations = 16.4

     total cpu time spent up to now is       81.8 secs

     total energy              =    -183.12909343 Ry
     estimated scf accuracy    <          3.5E-09 Ry

     total magnetization       =     3.30 Bohr mag/cell
     absolute magnetization    =     3.34 Bohr mag/cell

     iteration # 66     ecut=    60.00 Ry     beta= 0.40
     Davidson diagonalization with overlap

---- Real-time Memory Report at c_bands before calling an iterative solver
            84 MiB given to the printing process from OS
            40 MiB allocation reported by mallinfo(arena+hblkhd)
        485833 MiB available memory on the node where the printing process lives
------------------
     ethr =  4.07E-12,  avg # of iterations =  8.4

     total cpu time spent up to now is       83.9 secs

     total energy              =    -183.12909278 Ry
     estimated scf accuracy    <          3.7E-09 Ry

     total magnetization       =     3.30 Bohr mag/cell
     absolute magnetization    =     3.33 Bohr mag/cell

     iteration # 67     ecut=    60.00 Ry     beta= 0.40
     Davidson diagonalization with overlap

---- Real-time Memory Report at c_bands before calling an iterative solver
            84 MiB given to the printing process from OS
            40 MiB allocation reported by mallinfo(arena+hblkhd)
        485833 MiB available memory on the node where the printing process lives
------------------
     ethr =  4.07E-12,  avg # of iterations = 11.1

     total cpu time spent up to now is       86.5 secs

     total energy              =    -183.12909360 Ry
     estimated scf accuracy    <          6.4E-09 Ry

     total magnetization       =     3.29 Bohr mag/cell
     absolute magnetization    =     3.33 Bohr mag/cell

     iteration # 68     ecut=    60.00 Ry     beta= 0.40
     Davidson diagonalization with overlap

---- Real-time Memory Report at c_bands before calling an iterative solver
            84 MiB given to the printing process from OS
            40 MiB allocation reported by mallinfo(arena+hblkhd)
        485833 MiB available memory on the node where the printing process lives
------------------
     ethr =  4.07E-12,  avg # of iterations =  7.4

     total cpu time spent up to now is       88.3 secs

     total energy              =    -183.12909194 Ry
     estimated scf accuracy    <          7.8E-09 Ry

     total magnetization       =     3.29 Bohr mag/cell
     absolute magnetization    =     3.32 Bohr mag/cell

     iteration # 69     ecut=    60.00 Ry     beta= 0.40
     Davidson diagonalization with overlap

---- Real-time Memory Report at c_bands before calling an iterative solver
            84 MiB given to the printing process from OS
            40 MiB allocation reported by mallinfo(arena+hblkhd)
        485833 MiB available memory on the node where the printing process lives
------------------
     ethr =  4.07E-12,  avg # of iterations = 12.1

     total cpu time spent up to now is       91.2 secs

     total energy              =    -183.12909336 Ry
     estimated scf accuracy    <          3.6E-09 Ry

     total magnetization       =     3.30 Bohr mag/cell
     absolute magnetization    =     3.33 Bohr mag/cell

     iteration # 70     ecut=    60.00 Ry     beta= 0.40
     Davidson diagonalization with overlap

---- Real-time Memory Report at c_bands before calling an iterative solver
            84 MiB given to the printing process from OS
            40 MiB allocation reported by mallinfo(arena+hblkhd)
        485832 MiB available memory on the node where the printing process lives
------------------
     ethr =  4.07E-12,  avg # of iterations =  9.0

     total cpu time spent up to now is       93.3 secs

     total energy              =    -183.12908196 Ry
     estimated scf accuracy    <          3.3E-09 Ry

     total magnetization       =     3.30 Bohr mag/cell
     absolute magnetization    =     3.34 Bohr mag/cell

     iteration # 71     ecut=    60.00 Ry     beta= 0.40
     Davidson diagonalization with overlap

---- Real-time Memory Report at c_bands before calling an iterative solver
            84 MiB given to the printing process from OS
            40 MiB allocation reported by mallinfo(arena+hblkhd)
[...]
     estimated scf accuracy    <          8.0E-09 Ry

     total magnetization       =     3.32 Bohr mag/cell
     absolute magnetization    =     3.36 Bohr mag/cell

     iteration #479     ecut=    60.00 Ry     beta= 0.40
     Davidson diagonalization with overlap

---- Real-time Memory Report at c_bands before calling an iterative solver
            85 MiB given to the printing process from OS
            40 MiB allocation reported by mallinfo(arena+hblkhd)
        485798 MiB available memory on the node where the printing process lives
------------------
     ethr =  4.07E-12,  avg # of iterations = 14.2

     total cpu time spent up to now is     1228.0 secs

     total energy              =    -183.12909351 Ry
     estimated scf accuracy    <          3.3E-09 Ry

     total magnetization       =     3.30 Bohr mag/cell
     absolute magnetization    =     3.34 Bohr mag/cell

     iteration #480     ecut=    60.00 Ry     beta= 0.40
     Davidson diagonalization with overlap

---- Real-time Memory Report at c_bands before calling an iterative solver
            85 MiB given to the printing process from OS
            40 MiB allocation reported by mallinfo(arena+hblkhd)
        485798 MiB available memory on the node where the printing process lives
------------------
     ethr =  4.07E-12,  avg # of iterations =  7.3

     total cpu time spent up to now is     1229.8 secs

     total energy              =    -183.12908776 Ry
     estimated scf accuracy    <          3.6E-09 Ry

     total magnetization       =     3.30 Bohr mag/cell
     absolute magnetization    =     3.33 Bohr mag/cell

     iteration #481     ecut=    60.00 Ry     beta= 0.40
     Davidson diagonalization with overlap

---- Real-time Memory Report at c_bands before calling an iterative solver
            85 MiB given to the printing process from OS
            40 MiB allocation reported by mallinfo(arena+hblkhd)
        485798 MiB available memory on the node where the printing process lives
------------------
     ethr =  4.07E-12,  avg # of iterations = 14.5

     total cpu time spent up to now is     1233.3 secs

     total energy              =    -183.12908402 Ry
     estimated scf accuracy    <       0.00000002 Ry

     total magnetization       =     3.28 Bohr mag/cell
     absolute magnetization    =     3.32 Bohr mag/cell

     iteration #482     ecut=    60.00 Ry     beta= 0.40
     Davidson diagonalization with overlap

---- Real-time Memory Report at c_bands before calling an iterative solver
            85 MiB given to the printing process from OS
            40 MiB allocation reported by mallinfo(arena+hblkhd)
        485798 MiB available memory on the node where the printing process lives
------------------
     ethr =  4.07E-12,  avg # of iterations = 15.2

     total cpu time spent up to now is     1236.9 secs

     total energy              =    -183.12909277 Ry
     estimated scf accuracy    <          3.2E-09 Ry

     total magnetization       =     3.30 Bohr mag/cell
     absolute magnetization    =     3.34 Bohr mag/cell

     iteration #483     ecut=    60.00 Ry     beta= 0.40
     Davidson diagonalization with overlap

---- Real-time Memory Report at c_bands before calling an iterative solver
            85 MiB given to the printing process from OS
            40 MiB allocation reported by mallinfo(arena+hblkhd)
        485798 MiB available memory on the node where the printing process lives
------------------
     ethr =  4.07E-12,  avg # of iterations = 10.7

     total cpu time spent up to now is     1239.4 secs

     total energy              =    -183.12909354 Ry
     estimated scf accuracy    <          3.9E-09 Ry

     total magnetization       =     3.31 Bohr mag/cell
     absolute magnetization    =     3.35 Bohr mag/cell

     iteration #484     ecut=    60.00 Ry     beta= 0.40
     Davidson diagonalization with overlap

---- Real-time Memory Report at c_bands before calling an iterative solver
            85 MiB given to the printing process from OS
            40 MiB allocation reported by mallinfo(arena+hblkhd)
        485798 MiB available memory on the node where the printing process lives
------------------
     ethr =  4.07E-12,  avg # of iterations =  2.4

     total cpu time spent up to now is     1240.4 secs

     total energy              =    -183.12909355 Ry
     estimated scf accuracy    <          4.2E-09 Ry

     total magnetization       =     3.31 Bohr mag/cell
     absolute magnetization    =     3.35 Bohr mag/cell

     iteration #485     ecut=    60.00 Ry     beta= 0.40
     Davidson diagonalization with overlap

---- Real-time Memory Report at c_bands before calling an iterative solver
            85 MiB given to the printing process from OS
            40 MiB allocation reported by mallinfo(arena+hblkhd)
        485798 MiB available memory on the node where the printing process lives
------------------
     ethr =  4.07E-12,  avg # of iterations =  1.0

     total cpu time spent up to now is     1241.1 secs

     total energy              =    -183.12909338 Ry
     estimated scf accuracy    <          4.0E-09 Ry

     total magnetization       =     3.31 Bohr mag/cell
     absolute magnetization    =     3.35 Bohr mag/cell

     iteration #486     ecut=    60.00 Ry     beta= 0.40
     Davidson diagonalization with overlap

---- Real-time Memory Report at c_bands before calling an iterative solver
            85 MiB given to the printing process from OS
            40 MiB allocation reported by mallinfo(arena+hblkhd)
        485798 MiB available memory on the node where the printing process lives
------------------
     ethr =  4.07E-12,  avg # of iterations =  8.5

     total cpu time spent up to now is     1243.3 secs

     total energy              =    -183.12908836 Ry
     estimated scf accuracy    <          5.0E-09 Ry

     total magnetization       =     3.31 Bohr mag/cell
     absolute magnetization    =     3.35 Bohr mag/cell

     iteration #487     ecut=    60.00 Ry     beta= 0.40
     Davidson diagonalization with overlap

---- Real-time Memory Report at c_bands before calling an iterative solver
            85 MiB given to the printing process from OS
            40 MiB allocation reported by mallinfo(arena+hblkhd)
        485797 MiB available memory on the node where the printing process lives
------------------
     ethr =  4.07E-12,  avg # of iterations = 14.1

     total cpu time spent up to now is     1246.6 secs

     total energy              =    -183.12908505 Ry
     estimated scf accuracy    <       0.00000003 Ry

     total magnetization       =     3.33 Bohr mag/cell
     absolute magnetization    =     3.37 Bohr mag/cell

     iteration #488     ecut=    60.00 Ry     beta= 0.40
     Davidson diagonalization with overlap

---- Real-time Memory Report at c_bands before calling an iterative solver
            85 MiB given to the printing process from OS
            40 MiB allocation reported by mallinfo(arena+hblkhd)
        485797 MiB available memory on the node where the printing process lives
------------------
     ethr =  4.07E-12,  avg # of iterations = 15.1

     total cpu time spent up to now is     1250.2 secs

     total energy              =    -183.12909345 Ry
     estimated scf accuracy    <          3.5E-09 Ry

     total magnetization       =     3.31 Bohr mag/cell
     absolute magnetization    =     3.34 Bohr mag/cell

     iteration #489     ecut=    60.00 Ry     beta= 0.40
     Davidson diagonalization with overlap

---- Real-time Memory Report at c_bands before calling an iterative solver
            85 MiB given to the printing process from OS
            40 MiB allocation reported by mallinfo(arena+hblkhd)
        485797 MiB available memory on the node where the printing process lives
------------------
     ethr =  4.07E-12,  avg # of iterations =  8.1

     total cpu time spent up to now is     1252.2 secs

     total energy              =    -183.12909204 Ry
     estimated scf accuracy    <          3.2E-09 Ry

     total magnetization       =     3.31 Bohr mag/cell
     absolute magnetization    =     3.34 Bohr mag/cell

     iteration #490     ecut=    60.00 Ry     beta= 0.40
     Davidson diagonalization with overlap

---- Real-time Memory Report at c_bands before calling an iterative solver
            85 MiB given to the printing process from OS
            40 MiB allocation reported by mallinfo(arena+hblkhd)
        485797 MiB available memory on the node where the printing process lives
------------------
     ethr =  4.07E-12,  avg # of iterations = 12.0

     total cpu time spent up to now is     1255.0 secs

     total energy              =    -183.12909164 Ry
     estimated scf accuracy    <          4.3E-09 Ry

     total magnetization       =     3.30 Bohr mag/cell
     absolute magnetization    =     3.33 Bohr mag/cell

     iteration #491     ecut=    60.00 Ry     beta= 0.40
     Davidson diagonalization with overlap

---- Real-time Memory Report at c_bands before calling an iterative solver
            85 MiB given to the printing process from OS
            40 MiB allocation reported by mallinfo(arena+hblkhd)
        485797 MiB available memory on the node where the printing process lives
------------------
     ethr =  4.07E-12,  avg # of iterations = 12.3

     total cpu time spent up to now is     1258.0 secs

     total energy              =    -183.12909314 Ry
     estimated scf accuracy    <       0.00000001 Ry

     total magnetization       =     3.28 Bohr mag/cell
     absolute magnetization    =     3.32 Bohr mag/cell

     iteration #492     ecut=    60.00 Ry     beta= 0.40
     Davidson diagonalization with overlap

---- Real-time Memory Report at c_bands before calling an iterative solver
            85 MiB given to the printing process from OS
            40 MiB allocation reported by mallinfo(arena+hblkhd)
        485797 MiB available memory on the node where the printing process lives
------------------
     ethr =  4.07E-12,  avg # of iterations = 10.2

     total cpu time spent up to now is     1260.4 secs

     total energy              =    -183.12909274 Ry
     estimated scf accuracy    <       0.00000002 Ry

     total magnetization       =     3.28 Bohr mag/cell
     absolute magnetization    =     3.31 Bohr mag/cell

     iteration #493     ecut=    60.00 Ry     beta= 0.40
     Davidson diagonalization with overlap

---- Real-time Memory Report at c_bands before calling an iterative solver
            85 MiB given to the printing process from OS
            40 MiB allocation reported by mallinfo(arena+hblkhd)
        485797 MiB available memory on the node where the printing process lives
------------------
     ethr =  4.07E-12,  avg # of iterations = 11.1

     total cpu time spent up to now is     1263.1 secs

     total energy              =    -183.12909253 Ry
     estimated scf accuracy    <       0.00000001 Ry

     total magnetization       =     3.29 Bohr mag/cell
     absolute magnetization    =     3.32 Bohr mag/cell

     iteration #494     ecut=    60.00 Ry     beta= 0.40
     Davidson diagonalization with overlap

---- Real-time Memory Report at c_bands before calling an iterative solver
            85 MiB given to the printing process from OS
            40 MiB allocation reported by mallinfo(arena+hblkhd)
        485797 MiB available memory on the node where the printing process lives
------------------
     ethr =  4.07E-12,  avg # of iterations = 11.3

     total cpu time spent up to now is     1265.8 secs

     total energy              =    -183.12909160 Ry
     estimated scf accuracy    <          4.9E-09 Ry

     total magnetization       =     3.29 Bohr mag/cell
     absolute magnetization    =     3.33 Bohr mag/cell

     iteration #495     ecut=    60.00 Ry     beta= 0.40
     Davidson diagonalization with overlap

---- Real-time Memory Report at c_bands before calling an iterative solver
            85 MiB given to the printing process from OS
            40 MiB allocation reported by mallinfo(arena+hblkhd)
        485797 MiB available memory on the node where the printing process lives
------------------
     ethr =  4.07E-12,  avg # of iterations = 12.2

     total cpu time spent up to now is     1268.7 secs

     total energy              =    -183.12909331 Ry
     estimated scf accuracy    <          3.2E-09 Ry

     total magnetization       =     3.30 Bohr mag/cell
     absolute magnetization    =     3.34 Bohr mag/cell

     iteration #496     ecut=    60.00 Ry     beta= 0.40
     Davidson diagonalization with overlap

---- Real-time Memory Report at c_bands before calling an iterative solver
            85 MiB given to the printing process from OS
            40 MiB allocation reported by mallinfo(arena+hblkhd)
        485797 MiB available memory on the node where the printing process lives
------------------
     ethr =  4.07E-12,  avg # of iterations =  9.2

     total cpu time spent up to now is     1270.9 secs

     total energy              =    -183.12908764 Ry
     estimated scf accuracy    <          3.3E-09 Ry

     total magnetization       =     3.30 Bohr mag/cell
     absolute magnetization    =     3.34 Bohr mag/cell

     iteration #497     ecut=    60.00 Ry     beta= 0.40
     Davidson diagonalization with overlap

---- Real-time Memory Report at c_bands before calling an iterative solver
            85 MiB given to the printing process from OS
            40 MiB allocation reported by mallinfo(arena+hblkhd)
        485796 MiB available memory on the node where the printing process lives
------------------
     ethr =  4.07E-12,  avg # of iterations = 14.4

     total cpu time spent up to now is     1274.3 secs

     total energy              =    -183.12909101 Ry
     estimated scf accuracy    <          8.4E-09 Ry

     total magnetization       =     3.32 Bohr mag/cell
     absolute magnetization    =     3.36 Bohr mag/cell

     iteration #498     ecut=    60.00 Ry     beta= 0.40
     Davidson diagonalization with overlap

---- Real-time Memory Report at c_bands before calling an iterative solver
            85 MiB given to the printing process from OS
            40 MiB allocation reported by mallinfo(arena+hblkhd)
        485796 MiB available memory on the node where the printing process lives
------------------
     ethr =  4.07E-12,  avg # of iterations = 12.8

     total cpu time spent up to now is     1277.3 secs

     total energy              =    -183.12909171 Ry
     estimated scf accuracy    <       0.00000003 Ry

     total magnetization       =     3.33 Bohr mag/cell
     absolute magnetization    =     3.37 Bohr mag/cell

     iteration #499     ecut=    60.00 Ry     beta= 0.40
     Davidson diagonalization with overlap

---- Real-time Memory Report at c_bands before calling an iterative solver
            85 MiB given to the printing process from OS
            40 MiB allocation reported by mallinfo(arena+hblkhd)
        485796 MiB available memory on the node where the printing process lives
------------------
     ethr =  4.07E-12,  avg # of iterations = 12.1

     total cpu time spent up to now is     1280.2 secs

     total energy              =    -183.12909308 Ry
     estimated scf accuracy    <          9.8E-09 Ry

     total magnetization       =     3.32 Bohr mag/cell
     absolute magnetization    =     3.36 Bohr mag/cell

     iteration #500     ecut=    60.00 Ry     beta= 0.40
     Davidson diagonalization with overlap

---- Real-time Memory Report at c_bands before calling an iterative solver
            85 MiB given to the printing process from OS
            40 MiB allocation reported by mallinfo(arena+hblkhd)
        485796 MiB available memory on the node where the printing process lives
------------------
     ethr =  4.07E-12,  avg # of iterations =  9.8

     total cpu time spent up to now is     1282.6 secs

     total energy              =    -183.12909304 Ry
     estimated scf accuracy    <          6.0E-09 Ry

     total magnetization       =     3.32 Bohr mag/cell
     absolute magnetization    =     3.35 Bohr mag/cell

     End of self-consistent calculation

     convergence NOT achieved after 500 iterations: stopping

     Writing config to output data dir ./out/aiida.save/ :
     XML data file, charge density

     init_run     :      1.22s CPU      1.31s WALL (       1 calls)
     electrons    :   1237.57s CPU   1280.65s WALL (       1 calls)

     Called by init_run:
     wfcinit      :      0.28s CPU      0.31s WALL (       1 calls)
     wfcinit:atom :      0.01s CPU      0.01s WALL (      29 calls)
     wfcinit:wfcr :      0.24s CPU      0.27s WALL (      29 calls)
     potinit      :      0.20s CPU      0.21s WALL (       1 calls)
     hinit0       :      0.56s CPU      0.60s WALL (       1 calls)

     Called by electrons:
     c_bands      :   1133.86s CPU   1173.03s WALL (     500 calls)
     sum_band     :     63.73s CPU     66.52s WALL (     500 calls)
     v_of_rho     :     17.13s CPU     17.62s WALL (     501 calls)
     v_h          :      0.47s CPU      0.52s WALL (     501 calls)
     v_xc         :     16.66s CPU     17.10s WALL (     501 calls)
     newd         :      5.17s CPU      5.20s WALL (     501 calls)
     PAW_pot      :     11.07s CPU     11.07s WALL (     501 calls)
     mix_rho      :      2.73s CPU      2.86s WALL (     500 calls)

     Called by c_bands:
     init_us_2    :      7.18s CPU      7.45s WALL (   29029 calls)
     init_us_2:cp :      7.10s CPU      7.36s WALL (   29029 calls)
     cegterg      :   1087.75s CPU   1120.34s WALL (   14617 calls)

     Called by sum_band:
     sum_band:wei :      0.71s CPU      0.73s WALL (     500 calls)
     sum_band:loo :     51.09s CPU     52.91s WALL (     500 calls)
     sum_band:buf :      0.55s CPU      0.58s WALL (   14500 calls)
     sum_band:ini :      3.58s CPU      3.68s WALL (   14500 calls)
     sum_band:cal :      3.58s CPU      3.69s WALL (   14500 calls)
     sum_band:bec :      0.12s CPU      0.14s WALL (   14500 calls)
     addusdens    :      8.08s CPU      8.39s WALL (     500 calls)
                                        0.00s GPU  (     500 calls)
     addusd:skk   :      0.02s CPU      0.02s WALL (    1500 calls)
                                        0.00s GPU  (    1500 calls)

     Called by *egterg:
     cdiaghg      :     84.15s CPU     85.90s WALL (  168745 calls)
     cegterg:over :     41.47s CPU     42.62s WALL (  154128 calls)
     cegterg:upda :     23.28s CPU     23.87s WALL (  154128 calls)
     cegterg:last :     63.94s CPU     65.08s WALL (  134546 calls)
     h_psi        :    829.30s CPU    855.44s WALL (  168774 calls)
     s_psi        :     29.91s CPU     30.55s WALL (  168774 calls)
     g_psi        :      4.24s CPU      4.40s WALL (  154128 calls)

     Called by h_psi:
     h_psi:calbec :     35.61s CPU     36.70s WALL (  168774 calls)
     vloc_psi     :    760.67s CPU    784.64s WALL (  168774 calls)
     add_vuspsi   :     29.88s CPU     30.53s WALL (  168774 calls)

     General routines
     calbec       :     38.75s CPU     39.84s WALL (  183274 calls)
     fft          :      5.93s CPU      6.65s WALL (   12523 calls)
     ffts         :      0.57s CPU      0.65s WALL (    2002 calls)
     fftw         :    696.71s CPU    716.04s WALL ( 5056736 calls)
     interpolate  :      0.94s CPU      1.06s WALL (    1002 calls)
     davcio       :      0.00s CPU      0.01s WALL (      47 calls)

     Parallel routines

     PAW routines
     PAW_pot      :     11.07s CPU     11.07s WALL (     501 calls)
     PAW_symme    :      0.08s CPU      0.09s WALL (    1001 calls)

     PWSCF        :  20m39.19s CPU  21m22.90s WALL


   This run was terminated on:  19:31: 0  28Nov2023            

=------------------------------------------------------------------------------=
   JOB DONE.
=------------------------------------------------------------------------------=
