
     Program PWSCF v.7.2 starts on 22Oct2023 at 17:14:30 

     This program is part of the open-source Quantum ESPRESSO suite
     for quantum simulation of materials; please cite
         "P. Giannozzi et al., J. Phys.:Condens. Matter 21 395502 (2009);
         "P. Giannozzi et al., J. Phys.:Condens. Matter 29 465901 (2017);
         "P. Giannozzi et al., J. Chem. Phys. 152 154105 (2020);
          URL http://www.quantum-espresso.org", 
     in publications or presentations arising from this work. More details at
     http://www.quantum-espresso.org/quote

     Parallel version (MPI & OpenMP), running on      12 processor cores
     Number of MPI processes:                 1
     Threads/MPI process:                    12

     MPI processes distributed on     1 nodes
     60097 MiB available memory on the printing compute node when the environment starts
 
     Reading input from aiida.in

     Current dimensions of program PWSCF are:
     Max number of different atomic species (ntypx) = 10
     Max number of k-points (npk) =  40000
     Max angular momentum in pseudopotentials (lmaxx) =  4
     Message from routine setup:
     using ibrav=0 with symmetry is DISCOURAGED, use correct ibrav instead
 
     Subspace diagonalization in iterative solution of the eigenvalue problem:
     a serial algorithm will be used

 
     G-vector sticks info
     --------------------
     sticks:   dense  smooth     PW     G-vecs:    dense   smooth      PW
     Sum        5875    2917    817               296685   104579   15353
 
     Using Slab Decomposition
 


     bravais-lattice index     =            0
     lattice parameter (alat)  =      13.3111  a.u.
     unit-cell volume          =    1667.7230 (a.u.)^3
     number of atoms/cell      =            9
     number of atomic types    =            3
     number of electrons       =        58.00
     number of Kohn-Sham states=           35
     kinetic-energy cutoff     =      60.0000  Ry
     charge density cutoff     =     480.0000  Ry
     scf convergence threshold =      1.8E-09
     mixing beta               =       0.4000
     number of iterations used =            8  plain     mixing
     Exchange-correlation= SLA  PW   PSX  PSC
                           (   1   4  10   8   0   0   0)

     GPU acceleration is ACTIVE.


     GPU used by master process:

        Device Number: 0
        Device name: Tesla P100-PCIE-16GB
        Compute capability : 60
        Ratio of single to double precision performance  : 2
        Memory Clock Rate (KHz): 715000
        Memory Bus Width (bits): 4096
        Peak Memory Bandwidth (GB/s): 732.16

     celldm(1)=  13.311070  celldm(2)=   0.000000  celldm(3)=   0.000000
     celldm(4)=   0.000000  celldm(5)=   0.000000  celldm(6)=   0.000000

     crystal axes: (cart. coord. in units of alat)
               a(1) = (   0.000000   0.707107   0.707107 )  
               a(2) = (   0.707107   0.000000   0.707107 )  
               a(3) = (   0.707107   0.707107   0.000000 )  

     reciprocal axes: (cart. coord. in units 2 pi/alat)
               b(1) = ( -0.707107  0.707107  0.707107 )  
               b(2) = (  0.707107 -0.707107  0.707107 )  
               b(3) = (  0.707107  0.707107 -0.707107 )  


     PseudoPot. # 1 for Cl read from file:
     ./pseudo/cl_pbesol_v1.4.uspp.F.UPF
     MD5 check sum: ed6bbcf06f19043c0df9f6394706ff8f
     Pseudo is Ultrasoft + core correction, Zval =  7.0
     Generated by new atomic code, or converted to UPF format
     Using radial grid of  909 points,  6 beta functions with: 
                l(1) =   0
                l(2) =   0
                l(3) =   1
                l(4) =   1
                l(5) =   2
                l(6) =   2
     Q(r) pseudized with  8 coefficients,  rinner =    1.300   1.300   1.300
                                                       1.300   1.300

     PseudoPot. # 2 for N  read from file:
     ./pseudo/N.pbesol-theos.UPF
     MD5 check sum: 1b64827339d390a5a22afef3ff345c9d
     Pseudo is Ultrasoft + core correction, Zval =  5.0
     Generated using "atomic" code by A. Dal Corso  v.5.1
     Using radial grid of 1085 points,  4 beta functions with: 
                l(1) =   0
                l(2) =   0
                l(3) =   1
                l(4) =   1
     Q(r) pseudized with 0 coefficients 


     PseudoPot. # 3 for Se read from file:
     ./pseudo/se_pbesol_v1.uspp.F.UPF
     MD5 check sum: a3b4745ad650bb7419ce2e0d5f176975
     Pseudo is Ultrasoft + core correction, Zval =  6.0
     Generated by new atomic code, or converted to UPF format
     Using radial grid of  877 points,  6 beta functions with: 
                l(1) =   0
                l(2) =   0
                l(3) =   1
                l(4) =   1
                l(5) =   2
                l(6) =   2
     Q(r) pseudized with  8 coefficients,  rinner =    1.300   1.300   1.300
                                                       1.300   1.300

     atomic species   valence    mass     pseudopotential
        Cl             7.00    35.45300     Cl( 1.00)
        N              5.00    14.00670     N ( 1.00)
        Se             6.00    78.96000     Se( 1.00)

     Starting magnetic structure 
     atomic species   magnetization
        Cl           0.100
        N            0.100
        Se           0.100

     48 Sym. Ops., with inversion, found


                                    s                        frac. trans.

      isym =  1     identity                                     

 cryst.   s( 1) = (     1          0          0      )
                  (     0          1          0      )
                  (     0          0          1      )

 cart.    s( 1) = (  1.0000000 -0.0000000  0.0000000 )
                  ( -0.0000000  1.0000000  0.0000000 )
                  ( -0.0000000  0.0000000  1.0000000 )


      isym =  2     180 deg rotation - cart. axis [0,0,1]        

 cryst.   s( 2) = (     0          1         -1      )
                  (     1          0         -1      )
                  (     0          0         -1      )

 cart.    s( 2) = ( -1.0000000  0.0000000  0.0000000 )
                  (  0.0000000 -1.0000000  0.0000000 )
                  (  0.0000000 -0.0000000  1.0000000 )


      isym =  3     180 deg rotation - cart. axis [0,1,0]        

 cryst.   s( 3) = (     0         -1          1      )
                  (     0         -1          0      )
                  (     1         -1          0      )

 cart.    s( 3) = ( -1.0000000 -0.0000000 -0.0000000 )
                  (  0.0000000  1.0000000 -0.0000000 )
                  (  0.0000000  0.0000000 -1.0000000 )


      isym =  4     180 deg rotation - cart. axis [1,0,0]        

 cryst.   s( 4) = (    -1          0          0      )
                  (    -1          0          1      )
                  (    -1          1          0      )

 cart.    s( 4) = (  1.0000000  0.0000000 -0.0000000 )
                  ( -0.0000000 -1.0000000 -0.0000000 )
                  ( -0.0000000 -0.0000000 -1.0000000 )


      isym =  5     180 deg rotation - cart. axis [1,1,0]        

 cryst.   s( 5) = (    -1          0          1      )
                  (     0         -1          1      )
                  (     0          0          1      )

 cart.    s( 5) = ( -0.0000000  1.0000000 -0.0000000 )
                  (  1.0000000 -0.0000000 -0.0000000 )
                  (  0.0000000 -0.0000000 -1.0000000 )


      isym =  6     180 deg rotation - cart. axis [1,-1,0]       

 cryst.   s( 6) = (     0         -1          0      )
                  (    -1          0          0      )
                  (     0          0         -1      )

 cart.    s( 6) = (  0.0000000 -1.0000000 -0.0000000 )
                  ( -1.0000000  0.0000000 -0.0000000 )
                  ( -0.0000000  0.0000000 -1.0000000 )


      isym =  7      90 deg rotation - cart. axis [0,0,-1]       

 cryst.   s( 7) = (     0          1          0      )
                  (     0          1         -1      )
                  (    -1          1          0      )

 cart.    s( 7) = (  0.0000000  1.0000000  0.0000000 )
                  ( -1.0000000 -0.0000000  0.0000000 )
                  ( -0.0000000 -0.0000000  1.0000000 )


      isym =  8      90 deg rotation - cart. axis [0,0,1]        

 cryst.   s( 8) = (     1          0         -1      )
                  (     1          0          0      )
                  (     1         -1          0      )

 cart.    s( 8) = ( -0.0000000 -1.0000000  0.0000000 )
                  (  1.0000000  0.0000000  0.0000000 )
                  (  0.0000000  0.0000000  1.0000000 )


      isym =  9     180 deg rotation - cart. axis [1,0,1]        

 cryst.   s( 9) = (    -1          1          0      )
                  (     0          1          0      )
                  (     0          1         -1      )

 cart.    s( 9) = (  0.0000000  0.0000000  1.0000000 )
                  (  0.0000000 -1.0000000 -0.0000000 )
                  (  1.0000000 -0.0000000 -0.0000000 )


      isym = 10     180 deg rotation - cart. axis [-1,0,1]       

 cryst.   s(10) = (     0          0         -1      )
                  (     0         -1          0      )
                  (    -1          0          0      )

 cart.    s(10) = ( -0.0000000  0.0000000 -1.0000000 )
                  ( -0.0000000 -1.0000000  0.0000000 )
                  ( -1.0000000 -0.0000000  0.0000000 )


      isym = 11      90 deg rotation - cart. axis [0,1,0]        

 cryst.   s(11) = (     0          0          1      )
                  (    -1          0          1      )
                  (     0         -1          1      )

 cart.    s(11) = ( -0.0000000 -0.0000000  1.0000000 )
                  ( -0.0000000  1.0000000 -0.0000000 )
                  ( -1.0000000  0.0000000 -0.0000000 )


      isym = 12      90 deg rotation - cart. axis [0,-1,0]       

 cryst.   s(12) = (     1         -1          0      )
                  (     1          0         -1      )
                  (     1          0          0      )

 cart.    s(12) = (  0.0000000 -0.0000000 -1.0000000 )
                  (  0.0000000  1.0000000  0.0000000 )
                  (  1.0000000  0.0000000  0.0000000 )


      isym = 13     180 deg rotation - cart. axis [0,1,1]        

 cryst.   s(13) = (     1          0          0      )
                  (     1         -1          0      )
                  (     1          0         -1      )

 cart.    s(13) = ( -1.0000000  0.0000000 -0.0000000 )
                  (  0.0000000  0.0000000  1.0000000 )
                  (  0.0000000  1.0000000  0.0000000 )


      isym = 14     180 deg rotation - cart. axis [0,1,-1]       

 cryst.   s(14) = (    -1          0          0      )
                  (     0          0         -1      )
                  (     0         -1          0      )

 cart.    s(14) = ( -1.0000000 -0.0000000  0.0000000 )
                  (  0.0000000 -0.0000000 -1.0000000 )
                  (  0.0000000 -1.0000000 -0.0000000 )


      isym = 15      90 deg rotation - cart. axis [-1,0,0]       

 cryst.   s(15) = (     0         -1          1      )
                  (     0          0          1      )
                  (    -1          0          1      )

 cart.    s(15) = (  1.0000000 -0.0000000 -0.0000000 )
                  ( -0.0000000 -0.0000000  1.0000000 )
                  ( -0.0000000 -1.0000000  0.0000000 )


      isym = 16      90 deg rotation - cart. axis [1,0,0]        

 cryst.   s(16) = (     0          1         -1      )
                  (    -1          1          0      )
                  (     0          1          0      )

 cart.    s(16) = (  1.0000000  0.0000000  0.0000000 )
                  ( -0.0000000  0.0000000 -1.0000000 )
                  ( -0.0000000  1.0000000 -0.0000000 )


      isym = 17     120 deg rotation - cart. axis [-1,-1,-1]     

 cryst.   s(17) = (     0          0          1      )
                  (     1          0          0      )
                  (     0          1          0      )

 cart.    s(17) = (  0.0000000  1.0000000 -0.0000000 )
                  (  0.0000000 -0.0000000  1.0000000 )
                  (  1.0000000 -0.0000000  0.0000000 )


      isym = 18     120 deg rotation - cart. axis [-1,1,1]       

 cryst.   s(18) = (     1         -1          0      )
                  (     0         -1          1      )
                  (     0         -1          0      )

 cart.    s(18) = ( -0.0000000 -1.0000000 -0.0000000 )
                  ( -0.0000000  0.0000000  1.0000000 )
                  ( -1.0000000  0.0000000  0.0000000 )


      isym = 19     120 deg rotation - cart. axis [1,1,-1]       

 cryst.   s(19) = (    -1          1          0      )
                  (    -1          0          0      )
                  (    -1          0          1      )

 cart.    s(19) = ( -0.0000000  1.0000000  0.0000000 )
                  ( -0.0000000 -0.0000000 -1.0000000 )
                  ( -1.0000000 -0.0000000 -0.0000000 )


      isym = 20     120 deg rotation - cart. axis [1,-1,1]       

 cryst.   s(20) = (     0          0         -1      )
                  (     0          1         -1      )
                  (     1          0         -1      )

 cart.    s(20) = (  0.0000000 -1.0000000  0.0000000 )
                  (  0.0000000  0.0000000 -1.0000000 )
                  (  1.0000000  0.0000000 -0.0000000 )


      isym = 21     120 deg rotation - cart. axis [1,1,1]        

 cryst.   s(21) = (     0          1          0      )
                  (     0          0          1      )
                  (     1          0          0      )

 cart.    s(21) = ( -0.0000000  0.0000000  1.0000000 )
                  (  1.0000000  0.0000000 -0.0000000 )
                  (  0.0000000  1.0000000 -0.0000000 )


      isym = 22     120 deg rotation - cart. axis [-1,1,-1]      

 cryst.   s(22) = (    -1          0          1      )
                  (    -1          1          0      )
                  (    -1          0          0      )

 cart.    s(22) = (  0.0000000 -0.0000000  1.0000000 )
                  ( -1.0000000 -0.0000000 -0.0000000 )
                  ( -0.0000000 -1.0000000 -0.0000000 )


      isym = 23     120 deg rotation - cart. axis [1,-1,-1]      

 cryst.   s(23) = (     1          0         -1      )
                  (     0          0         -1      )
                  (     0          1         -1      )

 cart.    s(23) = (  0.0000000  0.0000000 -1.0000000 )
                  ( -1.0000000  0.0000000  0.0000000 )
                  ( -0.0000000  1.0000000  0.0000000 )


      isym = 24     120 deg rotation - cart. axis [-1,-1,1]      

 cryst.   s(24) = (     0         -1          0      )
                  (     1         -1          0      )
                  (     0         -1          1      )

 cart.    s(24) = ( -0.0000000 -0.0000000 -1.0000000 )
                  (  1.0000000 -0.0000000  0.0000000 )
                  (  0.0000000 -1.0000000  0.0000000 )


      isym = 25     inversion                                    

 cryst.   s(25) = (    -1          0          0      )
                  (     0         -1          0      )
                  (     0          0         -1      )

 cart.    s(25) = ( -1.0000000  0.0000000 -0.0000000 )
                  (  0.0000000 -1.0000000 -0.0000000 )
                  (  0.0000000 -0.0000000 -1.0000000 )


      isym = 26     inv. 180 deg rotation - cart. axis [0,0,1]   

 cryst.   s(26) = (     0         -1          1      )
                  (    -1          0          1      )
                  (     0          0          1      )

 cart.    s(26) = (  1.0000000 -0.0000000 -0.0000000 )
                  ( -0.0000000  1.0000000 -0.0000000 )
                  ( -0.0000000  0.0000000 -1.0000000 )


      isym = 27     inv. 180 deg rotation - cart. axis [0,1,0]   

 cryst.   s(27) = (     0          1         -1      )
                  (     0          1          0      )
                  (    -1          1          0      )

 cart.    s(27) = (  1.0000000  0.0000000  0.0000000 )
                  ( -0.0000000 -1.0000000  0.0000000 )
                  ( -0.0000000 -0.0000000  1.0000000 )


      isym = 28     inv. 180 deg rotation - cart. axis [1,0,0]   

 cryst.   s(28) = (     1          0          0      )
                  (     1          0         -1      )
                  (     1         -1          0      )

 cart.    s(28) = ( -1.0000000 -0.0000000  0.0000000 )
                  (  0.0000000  1.0000000  0.0000000 )
                  (  0.0000000  0.0000000  1.0000000 )


      isym = 29     inv. 180 deg rotation - cart. axis [1,1,0]   

 cryst.   s(29) = (     1          0         -1      )
                  (     0          1         -1      )
                  (     0          0         -1      )

 cart.    s(29) = (  0.0000000 -1.0000000  0.0000000 )
                  ( -1.0000000  0.0000000  0.0000000 )
                  ( -0.0000000  0.0000000  1.0000000 )


      isym = 30     inv. 180 deg rotation - cart. axis [1,-1,0]  

 cryst.   s(30) = (     0          1          0      )
                  (     1          0          0      )
                  (     0          0          1      )

 cart.    s(30) = ( -0.0000000  1.0000000  0.0000000 )
                  (  1.0000000 -0.0000000  0.0000000 )
                  (  0.0000000 -0.0000000  1.0000000 )


      isym = 31     inv.  90 deg rotation - cart. axis [0,0,-1]  

 cryst.   s(31) = (     0         -1          0      )
                  (     0         -1          1      )
                  (     1         -1          0      )

 cart.    s(31) = ( -0.0000000 -1.0000000 -0.0000000 )
                  (  1.0000000  0.0000000 -0.0000000 )
                  (  0.0000000  0.0000000 -1.0000000 )


      isym = 32     inv.  90 deg rotation - cart. axis [0,0,1]   

 cryst.   s(32) = (    -1          0          1      )
                  (    -1          0          0      )
                  (    -1          1          0      )

 cart.    s(32) = (  0.0000000  1.0000000 -0.0000000 )
                  ( -1.0000000 -0.0000000 -0.0000000 )
                  ( -0.0000000 -0.0000000 -1.0000000 )


      isym = 33     inv. 180 deg rotation - cart. axis [1,0,1]   

 cryst.   s(33) = (     1         -1          0      )
                  (     0         -1          0      )
                  (     0         -1          1      )

 cart.    s(33) = ( -0.0000000 -0.0000000 -1.0000000 )
                  ( -0.0000000  1.0000000  0.0000000 )
                  ( -1.0000000  0.0000000  0.0000000 )


      isym = 34     inv. 180 deg rotation - cart. axis [-1,0,1]  

 cryst.   s(34) = (     0          0          1      )
                  (     0          1          0      )
                  (     1          0          0      )

 cart.    s(34) = (  0.0000000 -0.0000000  1.0000000 )
                  (  0.0000000  1.0000000 -0.0000000 )
                  (  1.0000000  0.0000000 -0.0000000 )


      isym = 35     inv.  90 deg rotation - cart. axis [0,1,0]   

 cryst.   s(35) = (     0          0         -1      )
                  (     1          0         -1      )
                  (     0          1         -1      )

 cart.    s(35) = (  0.0000000  0.0000000 -1.0000000 )
                  (  0.0000000 -1.0000000  0.0000000 )
                  (  1.0000000 -0.0000000  0.0000000 )


      isym = 36     inv.  90 deg rotation - cart. axis [0,-1,0]  

 cryst.   s(36) = (    -1          1          0      )
                  (    -1          0          1      )
                  (    -1          0          0      )

 cart.    s(36) = ( -0.0000000  0.0000000  1.0000000 )
                  ( -0.0000000 -1.0000000 -0.0000000 )
                  ( -1.0000000 -0.0000000 -0.0000000 )


      isym = 37     inv. 180 deg rotation - cart. axis [0,1,1]   

 cryst.   s(37) = (    -1          0          0      )
                  (    -1          1          0      )
                  (    -1          0          1      )

 cart.    s(37) = (  1.0000000 -0.0000000  0.0000000 )
                  ( -0.0000000 -0.0000000 -1.0000000 )
                  ( -0.0000000 -1.0000000 -0.0000000 )


      isym = 38     inv. 180 deg rotation - cart. axis [0,1,-1]  

 cryst.   s(38) = (     1          0          0      )
                  (     0          0          1      )
                  (     0          1          0      )

 cart.    s(38) = (  1.0000000  0.0000000 -0.0000000 )
                  ( -0.0000000  0.0000000  1.0000000 )
                  ( -0.0000000  1.0000000  0.0000000 )


      isym = 39     inv.  90 deg rotation - cart. axis [-1,0,0]  

 cryst.   s(39) = (     0          1         -1      )
                  (     0          0         -1      )
                  (     1          0         -1      )

 cart.    s(39) = ( -1.0000000  0.0000000  0.0000000 )
                  (  0.0000000  0.0000000 -1.0000000 )
                  (  0.0000000  1.0000000 -0.0000000 )


      isym = 40     inv.  90 deg rotation - cart. axis [1,0,0]   

 cryst.   s(40) = (     0         -1          1      )
                  (     1         -1          0      )
                  (     0         -1          0      )

 cart.    s(40) = ( -1.0000000 -0.0000000 -0.0000000 )
                  (  0.0000000 -0.0000000  1.0000000 )
                  (  0.0000000 -1.0000000  0.0000000 )


      isym = 41     inv. 120 deg rotation - cart. axis [-1,-1,-1]

 cryst.   s(41) = (     0          0         -1      )
                  (    -1          0          0      )
                  (     0         -1          0      )

 cart.    s(41) = ( -0.0000000 -1.0000000  0.0000000 )
                  ( -0.0000000  0.0000000 -1.0000000 )
                  ( -1.0000000  0.0000000 -0.0000000 )


      isym = 42     inv. 120 deg rotation - cart. axis [-1,1,1]  

 cryst.   s(42) = (    -1          1          0      )
                  (     0          1         -1      )
                  (     0          1          0      )

 cart.    s(42) = (  0.0000000  1.0000000  0.0000000 )
                  (  0.0000000 -0.0000000 -1.0000000 )
                  (  1.0000000 -0.0000000 -0.0000000 )


      isym = 43     inv. 120 deg rotation - cart. axis [1,1,-1]  

 cryst.   s(43) = (     1         -1          0      )
                  (     1          0          0      )
                  (     1          0         -1      )

 cart.    s(43) = (  0.0000000 -1.0000000 -0.0000000 )
                  (  0.0000000  0.0000000  1.0000000 )
                  (  1.0000000  0.0000000  0.0000000 )


      isym = 44     inv. 120 deg rotation - cart. axis [1,-1,1]  

 cryst.   s(44) = (     0          0          1      )
                  (     0         -1          1      )
                  (    -1          0          1      )

 cart.    s(44) = ( -0.0000000  1.0000000 -0.0000000 )
                  ( -0.0000000 -0.0000000  1.0000000 )
                  ( -1.0000000 -0.0000000  0.0000000 )


      isym = 45     inv. 120 deg rotation - cart. axis [1,1,1]   

 cryst.   s(45) = (     0         -1          0      )
                  (     0          0         -1      )
                  (    -1          0          0      )

 cart.    s(45) = (  0.0000000 -0.0000000 -1.0000000 )
                  ( -1.0000000 -0.0000000  0.0000000 )
                  ( -0.0000000 -1.0000000  0.0000000 )


      isym = 46     inv. 120 deg rotation - cart. axis [-1,1,-1] 

 cryst.   s(46) = (     1          0         -1      )
                  (     1         -1          0      )
                  (     1          0          0      )

 cart.    s(46) = ( -0.0000000  0.0000000 -1.0000000 )
                  (  1.0000000  0.0000000  0.0000000 )
                  (  0.0000000  1.0000000  0.0000000 )


      isym = 47     inv. 120 deg rotation - cart. axis [1,-1,-1] 

 cryst.   s(47) = (    -1          0          1      )
                  (     0          0          1      )
                  (     0         -1          1      )

 cart.    s(47) = ( -0.0000000 -0.0000000  1.0000000 )
                  (  1.0000000 -0.0000000 -0.0000000 )
                  (  0.0000000 -1.0000000 -0.0000000 )


      isym = 48     inv. 120 deg rotation - cart. axis [-1,-1,1] 

 cryst.   s(48) = (     0          1          0      )
                  (    -1          1          0      )
                  (     0          1         -1      )

 cart.    s(48) = (  0.0000000  0.0000000  1.0000000 )
                  ( -1.0000000  0.0000000 -0.0000000 )
                  ( -0.0000000  1.0000000 -0.0000000 )


   Cartesian axes

     site n.     atom                  positions (alat units)
         1           Se  tau(   1) = (   0.0000000   0.0000000   0.0000000  )
         2           N   tau(   2) = (   0.3535534   0.3535534   1.0606602  )
         3           N   tau(   3) = (   0.3535534   1.0606602   1.0606602  )
         4           Cl  tau(   4) = (   1.0732467  -0.0000000  -0.0000000  )
         5           Cl  tau(   5) = (   0.7071068   0.3661399   0.0000000  )
         6           Cl  tau(   6) = (   0.0000000   0.0000000   1.0732467  )
         7           Cl  tau(   7) = (   0.7071068   0.0000000   1.0480737  )
         8           Cl  tau(   8) = (   0.7071068   1.0480737   0.0000000  )
         9           Cl  tau(   9) = (   0.3409669  -0.0000000  -0.0000000  )

   Crystallographic axes

     site n.     atom                  positions (cryst. coord.)
         1           Se  tau(   1) = (  0.0000000  0.0000000  0.0000000  )
         2           N   tau(   2) = (  0.7500000  0.7500000 -0.2500000  )
         3           N   tau(   3) = (  1.2500000  0.2500000  0.2500000  )
         4           Cl  tau(   4) = ( -0.7589000  0.7589000  0.7589000  )
         5           Cl  tau(   5) = ( -0.2411000  0.2411000  0.7589000  )
         6           Cl  tau(   6) = (  0.7589000  0.7589000 -0.7589000  )
         7           Cl  tau(   7) = (  0.2411000  1.2411000 -0.2411000  )
         8           Cl  tau(   8) = (  0.2411000 -0.2411000  1.2411000  )
         9           Cl  tau(   9) = ( -0.2411000  0.2411000  0.2411000  )

     number of k points=    29  Marzari-Vanderbilt smearing, width (Ry)=  0.0100
                       cart. coord. in units 2pi/alat
        k(    1) = (   0.0000000   0.0000000   0.0000000), wk =   0.0019531
        k(    2) = (   0.0883883   0.0883883  -0.0883883), wk =   0.0156250
        k(    3) = (   0.1767767   0.1767767  -0.1767767), wk =   0.0156250
        k(    4) = (   0.2651650   0.2651650  -0.2651650), wk =   0.0156250
        k(    5) = (  -0.3535534  -0.3535534   0.3535534), wk =   0.0078125
        k(    6) = (   0.1767767   0.0000000   0.0000000), wk =   0.0117188
        k(    7) = (   0.2651650   0.0883883  -0.0883883), wk =   0.0468750
        k(    8) = (   0.3535534   0.1767767  -0.1767767), wk =   0.0468750
        k(    9) = (  -0.2651650  -0.4419417   0.4419417), wk =   0.0468750
        k(   10) = (  -0.1767767  -0.3535534   0.3535534), wk =   0.0468750
        k(   11) = (  -0.0883883  -0.2651650   0.2651650), wk =   0.0468750
        k(   12) = (   0.0000000  -0.1767767   0.1767767), wk =   0.0234375
        k(   13) = (   0.3535534   0.0000000   0.0000000), wk =   0.0117188
        k(   14) = (   0.4419417   0.0883883  -0.0883883), wk =   0.0468750
        k(   15) = (  -0.1767767  -0.5303301   0.5303301), wk =   0.0468750
        k(   16) = (  -0.0883883  -0.4419417   0.4419417), wk =   0.0468750
        k(   17) = (   0.0000000  -0.3535534   0.3535534), wk =   0.0234375
        k(   18) = (   0.5303301  -0.0000000   0.0000000), wk =   0.0117188
        k(   19) = (  -0.0883883  -0.6187184   0.6187184), wk =   0.0468750
        k(   20) = (   0.0000000  -0.5303301   0.5303301), wk =   0.0234375
        k(   21) = (  -0.7071068   0.0000000   0.0000000), wk =   0.0058594
        k(   22) = (   0.3535534   0.1767767   0.0000000), wk =   0.0468750
        k(   23) = (  -0.2651650  -0.4419417   0.6187184), wk =   0.0937500
        k(   24) = (  -0.1767767  -0.3535534   0.5303301), wk =   0.0468750
        k(   25) = (  -0.1767767  -0.5303301   0.7071068), wk =   0.0468750
        k(   26) = (  -0.0883883  -0.4419417   0.6187184), wk =   0.0937500
        k(   27) = (   0.0000000  -0.3535534   0.5303301), wk =   0.0468750
        k(   28) = (  -0.7071068   0.1767767  -0.0000000), wk =   0.0234375
        k(   29) = (  -0.7071068   0.3535534   0.0000000), wk =   0.0117188

                       cryst. coord.
        k(    1) = (   0.0000000   0.0000000   0.0000000), wk =   0.0019531
        k(    2) = (   0.0000000   0.0000000   0.1250000), wk =   0.0156250
        k(    3) = (   0.0000000   0.0000000   0.2500000), wk =   0.0156250
        k(    4) = (  -0.0000000  -0.0000000   0.3750000), wk =   0.0156250
        k(    5) = (  -0.0000000  -0.0000000  -0.5000000), wk =   0.0078125
        k(    6) = (   0.0000000   0.1250000   0.1250000), wk =   0.0117188
        k(    7) = (   0.0000000   0.1250000   0.2500000), wk =   0.0468750
        k(    8) = (   0.0000000   0.1250000   0.3750000), wk =   0.0468750
        k(    9) = (  -0.0000000   0.1250000  -0.5000000), wk =   0.0468750
        k(   10) = (  -0.0000000   0.1250000  -0.3750000), wk =   0.0468750
        k(   11) = (   0.0000000   0.1250000  -0.2500000), wk =   0.0468750
        k(   12) = (  -0.0000000   0.1250000  -0.1250000), wk =   0.0234375
        k(   13) = (   0.0000000   0.2500000   0.2500000), wk =   0.0117188
        k(   14) = (   0.0000000   0.2500000   0.3750000), wk =   0.0468750
        k(   15) = (   0.0000000   0.2500000  -0.5000000), wk =   0.0468750
        k(   16) = (  -0.0000000   0.2500000  -0.3750000), wk =   0.0468750
        k(   17) = (  -0.0000000   0.2500000  -0.2500000), wk =   0.0234375
        k(   18) = (   0.0000000   0.3750000   0.3750000), wk =   0.0117188
        k(   19) = (  -0.0000000   0.3750000  -0.5000000), wk =   0.0468750
        k(   20) = (   0.0000000   0.3750000  -0.3750000), wk =   0.0234375
        k(   21) = (   0.0000000  -0.5000000  -0.5000000), wk =   0.0058594
        k(   22) = (   0.1250000   0.2500000   0.3750000), wk =   0.0468750
        k(   23) = (   0.1250000   0.2500000  -0.5000000), wk =   0.0937500
        k(   24) = (   0.1250000   0.2500000  -0.3750000), wk =   0.0468750
        k(   25) = (   0.1250000   0.3750000  -0.5000000), wk =   0.0468750
        k(   26) = (   0.1250000   0.3750000  -0.3750000), wk =   0.0937500
        k(   27) = (   0.1250000   0.3750000  -0.2500000), wk =   0.0468750
        k(   28) = (   0.1250000  -0.5000000  -0.3750000), wk =   0.0234375
        k(   29) = (   0.2500000  -0.5000000  -0.2500000), wk =   0.0117188

     Dense  grid:   296685 G-vectors     FFT dimensions: (  96,  96,  96)

     Smooth grid:   104579 G-vectors     FFT dimensions: (  72,  72,  72)

     Dynamical RAM for                 wfc:       6.99 MB

     Dynamical RAM for     wfc (w. buffer):     412.43 MB

     Dynamical RAM for           str. fact:      13.58 MB

     Dynamical RAM for           local pot:       0.00 MB

     Dynamical RAM for          nlocal pot:      28.36 MB

     Dynamical RAM for                qrad:       5.27 MB

     Dynamical RAM for          rho,v,vnew:      67.66 MB

     Dynamical RAM for               rhoin:      22.55 MB

     Dynamical RAM for            rho*nmix:     144.87 MB

     Dynamical RAM for           G-vectors:      17.77 MB

     Dynamical RAM for          h,s,v(r/c):       0.22 MB

     Dynamical RAM for          <psi|beta>:       0.08 MB

     Dynamical RAM for                 psi:      13.98 MB

     Dynamical RAM for                hpsi:      13.98 MB

     Dynamical RAM for                spsi:      13.98 MB

     Dynamical RAM for      wfcinit/wfcrot:      14.41 MB

     Dynamical RAM for           addusdens:     873.72 MB

     Dynamical RAM for          addusforce:     919.04 MB

     Dynamical RAM for         addusstress:     916.73 MB

     Estimated static dynamical RAM per process >     626.24 MB

     Estimated max dynamical RAM per process >       1.65 GB
     Generating pointlists ...
     new r_m :   0.1406 (alat units)  1.8722 (a.u.) for type    1
     new r_m :   0.2063 (alat units)  2.7463 (a.u.) for type    2
     new r_m :   0.1406 (alat units)  1.8722 (a.u.) for type    3

     Initial potential from superposition of free atoms

     starting charge      57.9999, renormalised to      58.0000

     negative rho (up, down):  5.060E-02 4.140E-02
     Starting wfcs are   36 randomized atomic wfcs

     total cpu time spent up to now is        5.4 secs

     per-process dynamical memory:  1258.4 Mb

     Self-consistent Calculation
[tb_dev] Currently allocated     7.31E+00 Mbytes, locked:    0 /  11
[tb_pin] Currently allocated     0.00E+00 Mbytes, locked:    0 /   0

     iteration #  1     ecut=    60.00 Ry     beta= 0.40
     Davidson diagonalization with overlap

---- Real-time Memory Report at c_bands before calling an iterative solver
          1444 MiB given to the printing process from OS
          1254 MiB allocation reported by mallinfo(arena+hblkhd)
         58161 MiB available memory on the node where the printing process lives
     GPU memory used/free/total (MiB): 1402 / 14878 / 16280
------------------
     ethr =  1.00E-02,  avg # of iterations =  2.0

     negative rho (up, down):  4.954E-02 4.343E-02

     total cpu time spent up to now is        8.5 secs

     total energy              =    -281.58438193 Ry
     estimated scf accuracy    <       0.77357650 Ry

     total magnetization       =     5.69 Bohr mag/cell
     absolute magnetization    =     5.70 Bohr mag/cell
[tb_dev] Currently allocated     7.31E+00 Mbytes, locked:    0 /   9
[tb_pin] Currently allocated     0.00E+00 Mbytes, locked:    0 /   0

     iteration #  2     ecut=    60.00 Ry     beta= 0.40
     Davidson diagonalization with overlap

---- Real-time Memory Report at c_bands before calling an iterative solver
          1544 MiB given to the printing process from OS
          1318 MiB allocation reported by mallinfo(arena+hblkhd)
         58102 MiB available memory on the node where the printing process lives
     GPU memory used/free/total (MiB): 2424 / 13856 / 16280
------------------
     ethr =  1.33E-03,  avg # of iterations =  3.0

     negative rho (up, down):  4.888E-02 4.321E-02

     total cpu time spent up to now is       12.2 secs

     total energy              =    -281.74958171 Ry
     estimated scf accuracy    <       0.93612250 Ry

     total magnetization       =     8.14 Bohr mag/cell
     absolute magnetization    =     8.15 Bohr mag/cell
[tb_dev] Currently allocated     7.31E+00 Mbytes, locked:    0 /   9
[tb_pin] Currently allocated     0.00E+00 Mbytes, locked:    0 /   0

     iteration #  3     ecut=    60.00 Ry     beta= 0.40
     Davidson diagonalization with overlap

---- Real-time Memory Report at c_bands before calling an iterative solver
          1551 MiB given to the printing process from OS
          1325 MiB allocation reported by mallinfo(arena+hblkhd)
         58097 MiB available memory on the node where the printing process lives
     GPU memory used/free/total (MiB): 2586 / 13694 / 16280
------------------
     ethr =  1.33E-03,  avg # of iterations =  1.1

     negative rho (up, down):  4.836E-02 4.352E-02

     total cpu time spent up to now is       15.1 secs

     total energy              =    -281.81695215 Ry
     estimated scf accuracy    <       0.64011862 Ry

     total magnetization       =     4.08 Bohr mag/cell
     absolute magnetization    =     4.28 Bohr mag/cell
[tb_dev] Currently allocated     7.31E+00 Mbytes, locked:    0 /   9
[tb_pin] Currently allocated     0.00E+00 Mbytes, locked:    0 /   0

     iteration #  4     ecut=    60.00 Ry     beta= 0.40
     Davidson diagonalization with overlap

---- Real-time Memory Report at c_bands before calling an iterative solver
          1560 MiB given to the printing process from OS
          1334 MiB allocation reported by mallinfo(arena+hblkhd)
         58089 MiB available memory on the node where the printing process lives
     GPU memory used/free/total (MiB): 2586 / 13694 / 16280
------------------
     ethr =  1.10E-03,  avg # of iterations =  1.0

     negative rho (up, down):  4.618E-02 4.433E-02

     total cpu time spent up to now is       18.0 secs

     total energy              =    -281.98804801 Ry
     estimated scf accuracy    <       0.13918388 Ry

     total magnetization       =     7.88 Bohr mag/cell
     absolute magnetization    =     7.89 Bohr mag/cell
[tb_dev] Currently allocated     7.31E+00 Mbytes, locked:    0 /   9
[tb_pin] Currently allocated     0.00E+00 Mbytes, locked:    0 /   0

     iteration #  5     ecut=    60.00 Ry     beta= 0.40
     Davidson diagonalization with overlap

---- Real-time Memory Report at c_bands before calling an iterative solver
          1567 MiB given to the printing process from OS
          1341 MiB allocation reported by mallinfo(arena+hblkhd)
         58084 MiB available memory on the node where the printing process lives
     GPU memory used/free/total (MiB): 2586 / 13694 / 16280
------------------
     ethr =  2.40E-04,  avg # of iterations =  2.1

     negative rho (up, down):  4.724E-02 4.412E-02

     total cpu time spent up to now is       21.3 secs

     total energy              =    -281.98423022 Ry
     estimated scf accuracy    <       0.04964996 Ry

     total magnetization       =     7.68 Bohr mag/cell
     absolute magnetization    =     7.71 Bohr mag/cell
[tb_dev] Currently allocated     7.31E+00 Mbytes, locked:    0 /   9
[tb_pin] Currently allocated     0.00E+00 Mbytes, locked:    0 /   0

     iteration #  6     ecut=    60.00 Ry     beta= 0.40
     Davidson diagonalization with overlap

---- Real-time Memory Report at c_bands before calling an iterative solver
          1576 MiB given to the printing process from OS
          1350 MiB allocation reported by mallinfo(arena+hblkhd)
         58073 MiB available memory on the node where the printing process lives
     GPU memory used/free/total (MiB): 3032 / 13248 / 16280
------------------
     ethr =  8.56E-05,  avg # of iterations =  2.0

     negative rho (up, down):  4.648E-02 4.459E-02

     total cpu time spent up to now is       24.8 secs

     total energy              =    -282.00183646 Ry
     estimated scf accuracy    <       0.05094369 Ry

     total magnetization       =     7.88 Bohr mag/cell
     absolute magnetization    =     7.90 Bohr mag/cell
[tb_dev] Currently allocated     7.31E+00 Mbytes, locked:    0 /   9
[tb_pin] Currently allocated     0.00E+00 Mbytes, locked:    0 /   0

     iteration #  7     ecut=    60.00 Ry     beta= 0.40
     Davidson diagonalization with overlap

---- Real-time Memory Report at c_bands before calling an iterative solver
          1583 MiB given to the printing process from OS
          1357 MiB allocation reported by mallinfo(arena+hblkhd)
         58068 MiB available memory on the node where the printing process lives
     GPU memory used/free/total (MiB): 3032 / 13248 / 16280
------------------
     ethr =  8.56E-05,  avg # of iterations =  1.9

     negative rho (up, down):  4.651E-02 4.452E-02

     total cpu time spent up to now is       28.0 secs

     total energy              =    -282.00443768 Ry
     estimated scf accuracy    <       0.01479585 Ry

     total magnetization       =     7.67 Bohr mag/cell
     absolute magnetization    =     7.70 Bohr mag/cell
[tb_dev] Currently allocated     7.31E+00 Mbytes, locked:    0 /   9
[tb_pin] Currently allocated     0.00E+00 Mbytes, locked:    0 /   0

     iteration #  8     ecut=    60.00 Ry     beta= 0.40
     Davidson diagonalization with overlap

---- Real-time Memory Report at c_bands before calling an iterative solver
          1589 MiB given to the printing process from OS
          1363 MiB allocation reported by mallinfo(arena+hblkhd)
         58062 MiB available memory on the node where the printing process lives
     GPU memory used/free/total (MiB): 3032 / 13248 / 16280
------------------
     ethr =  2.55E-05,  avg # of iterations =  2.5

     negative rho (up, down):  4.644E-02 4.457E-02

     total cpu time spent up to now is       31.4 secs

     total energy              =    -282.00152723 Ry
     estimated scf accuracy    <       0.00896591 Ry

     total magnetization       =     7.58 Bohr mag/cell
     absolute magnetization    =     7.61 Bohr mag/cell
[tb_dev] Currently allocated     7.31E+00 Mbytes, locked:    0 /   9
[tb_pin] Currently allocated     0.00E+00 Mbytes, locked:    0 /   0

     iteration #  9     ecut=    60.00 Ry     beta= 0.40
     Davidson diagonalization with overlap

---- Real-time Memory Report at c_bands before calling an iterative solver
          1596 MiB given to the printing process from OS
          1370 MiB allocation reported by mallinfo(arena+hblkhd)
         58056 MiB available memory on the node where the printing process lives
     GPU memory used/free/total (MiB): 3032 / 13248 / 16280
------------------
     ethr =  1.55E-05,  avg # of iterations =  4.5

     negative rho (up, down):  4.648E-02 4.459E-02

     total cpu time spent up to now is       35.4 secs

     total energy              =    -282.00205392 Ry
     estimated scf accuracy    <       0.02897067 Ry

     total magnetization       =     6.57 Bohr mag/cell
     absolute magnetization    =     6.60 Bohr mag/cell
[tb_dev] Currently allocated     7.31E+00 Mbytes, locked:    0 /   9
[tb_pin] Currently allocated     0.00E+00 Mbytes, locked:    0 /   0

     iteration # 10     ecut=    60.00 Ry     beta= 0.40
     Davidson diagonalization with overlap

---- Real-time Memory Report at c_bands before calling an iterative solver
          1602 MiB given to the printing process from OS
          1376 MiB allocation reported by mallinfo(arena+hblkhd)
         58050 MiB available memory on the node where the printing process lives
     GPU memory used/free/total (MiB): 3062 / 13218 / 16280
------------------
     ethr =  1.55E-05,  avg # of iterations =  1.0

     negative rho (up, down):  4.653E-02 4.451E-02

     total cpu time spent up to now is       38.3 secs

     total energy              =    -282.00407866 Ry
     estimated scf accuracy    <       0.00019933 Ry

     total magnetization       =     7.22 Bohr mag/cell
     absolute magnetization    =     7.25 Bohr mag/cell
[tb_dev] Currently allocated     7.31E+00 Mbytes, locked:    0 /   9
[tb_pin] Currently allocated     0.00E+00 Mbytes, locked:    0 /   0

     iteration # 11     ecut=    60.00 Ry     beta= 0.40
     Davidson diagonalization with overlap

---- Real-time Memory Report at c_bands before calling an iterative solver
          1602 MiB given to the printing process from OS
          1376 MiB allocation reported by mallinfo(arena+hblkhd)
         58049 MiB available memory on the node where the printing process lives
     GPU memory used/free/total (MiB): 3062 / 13218 / 16280
------------------
     ethr =  3.44E-07,  avg # of iterations =  8.6

     negative rho (up, down):  4.649E-02 4.468E-02

     total cpu time spent up to now is       44.0 secs

     total energy              =    -282.00402742 Ry
     estimated scf accuracy    <       0.00804205 Ry

     total magnetization       =     7.56 Bohr mag/cell
     absolute magnetization    =     7.59 Bohr mag/cell
[tb_dev] Currently allocated     7.31E+00 Mbytes, locked:    0 /   9
[tb_pin] Currently allocated     0.00E+00 Mbytes, locked:    0 /   0

     iteration # 12     ecut=    60.00 Ry     beta= 0.40
     Davidson diagonalization with overlap

---- Real-time Memory Report at c_bands before calling an iterative solver
          1602 MiB given to the printing process from OS
          1376 MiB allocation reported by mallinfo(arena+hblkhd)
         58051 MiB available memory on the node where the printing process lives
     GPU memory used/free/total (MiB): 3062 / 13218 / 16280
------------------
     ethr =  3.44E-07,  avg # of iterations =  4.7

     negative rho (up, down):  4.646E-02 4.460E-02

     total cpu time spent up to now is       48.4 secs

     total energy              =    -282.00421791 Ry
     estimated scf accuracy    <       0.00276088 Ry

     total magnetization       =     7.28 Bohr mag/cell
     absolute magnetization    =     7.30 Bohr mag/cell
[tb_dev] Currently allocated     7.31E+00 Mbytes, locked:    0 /   9
[tb_pin] Currently allocated     0.00E+00 Mbytes, locked:    0 /   0

     iteration # 13     ecut=    60.00 Ry     beta= 0.40
     Davidson diagonalization with overlap

---- Real-time Memory Report at c_bands before calling an iterative solver
          1602 MiB given to the printing process from OS
          1376 MiB allocation reported by mallinfo(arena+hblkhd)
         58051 MiB available memory on the node where the printing process lives
     GPU memory used/free/total (MiB): 3062 / 13218 / 16280
------------------
     ethr =  3.44E-07,  avg # of iterations =  2.5

     negative rho (up, down):  4.641E-02 4.463E-02

     total cpu time spent up to now is       52.1 secs

     total energy              =    -282.00440163 Ry
     estimated scf accuracy    <       0.00373952 Ry

     total magnetization       =     7.35 Bohr mag/cell
     absolute magnetization    =     7.38 Bohr mag/cell
[tb_dev] Currently allocated     7.31E+00 Mbytes, locked:    0 /   9
[tb_pin] Currently allocated     0.00E+00 Mbytes, locked:    0 /   0

     iteration # 14     ecut=    60.00 Ry     beta= 0.40
     Davidson diagonalization with overlap

---- Real-time Memory Report at c_bands before calling an iterative solver
          1602 MiB given to the printing process from OS
          1376 MiB allocation reported by mallinfo(arena+hblkhd)
         58050 MiB available memory on the node where the printing process lives
     GPU memory used/free/total (MiB): 3062 / 13218 / 16280
------------------
     ethr =  3.44E-07,  avg # of iterations =  1.0

     negative rho (up, down):  4.630E-02 4.475E-02

     total cpu time spent up to now is       55.0 secs

     total energy              =    -282.00418926 Ry
     estimated scf accuracy    <       0.00402422 Ry

     total magnetization       =     7.29 Bohr mag/cell
     absolute magnetization    =     7.32 Bohr mag/cell
[tb_dev] Currently allocated     7.31E+00 Mbytes, locked:    0 /   9
[tb_pin] Currently allocated     0.00E+00 Mbytes, locked:    0 /   0

     iteration # 15     ecut=    60.00 Ry     beta= 0.40
     Davidson diagonalization with overlap

---- Real-time Memory Report at c_bands before calling an iterative solver
          1602 MiB given to the printing process from OS
          1376 MiB allocation reported by mallinfo(arena+hblkhd)
         58050 MiB available memory on the node where the printing process lives
     GPU memory used/free/total (MiB): 3062 / 13218 / 16280
------------------
     ethr =  3.44E-07,  avg # of iterations =  1.9

     negative rho (up, down):  4.624E-02 4.483E-02

     total cpu time spent up to now is       58.2 secs

     total energy              =    -282.00422042 Ry
     estimated scf accuracy    <       0.00227780 Ry

     total magnetization       =     7.04 Bohr mag/cell
     absolute magnetization    =     7.06 Bohr mag/cell
[tb_dev] Currently allocated     7.31E+00 Mbytes, locked:    0 /   9
[tb_pin] Currently allocated     0.00E+00 Mbytes, locked:    0 /   0

     iteration # 16     ecut=    60.00 Ry     beta= 0.40
     Davidson diagonalization with overlap

---- Real-time Memory Report at c_bands before calling an iterative solver
          1602 MiB given to the printing process from OS
          1376 MiB allocation reported by mallinfo(arena+hblkhd)
         58050 MiB available memory on the node where the printing process lives
     GPU memory used/free/total (MiB): 3062 / 13218 / 16280
------------------
     ethr =  3.44E-07,  avg # of iterations =  1.5

     negative rho (up, down):  4.629E-02 4.478E-02

     total cpu time spent up to now is       61.2 secs

     total energy              =    -282.00424012 Ry
     estimated scf accuracy    <       0.00128764 Ry

     total magnetization       =     6.86 Bohr mag/cell
     absolute magnetization    =     6.88 Bohr mag/cell
[tb_dev] Currently allocated     7.31E+00 Mbytes, locked:    0 /   9
[tb_pin] Currently allocated     0.00E+00 Mbytes, locked:    0 /   0

     iteration # 17     ecut=    60.00 Ry     beta= 0.40
     Davidson diagonalization with overlap

---- Real-time Memory Report at c_bands before calling an iterative solver
          1602 MiB given to the printing process from OS
          1376 MiB allocation reported by mallinfo(arena+hblkhd)
         58051 MiB available memory on the node where the printing process lives
     GPU memory used/free/total (MiB): 3062 / 13218 / 16280
------------------
     ethr =  3.44E-07,  avg # of iterations =  1.1

     negative rho (up, down):  4.650E-02 4.457E-02

     total cpu time spent up to now is       64.1 secs

     total energy              =    -282.00367677 Ry
     estimated scf accuracy    <       0.00138487 Ry

     total magnetization       =     6.96 Bohr mag/cell
     absolute magnetization    =     6.98 Bohr mag/cell
[tb_dev] Currently allocated     7.31E+00 Mbytes, locked:    0 /   9
[tb_pin] Currently allocated     0.00E+00 Mbytes, locked:    0 /   0

     iteration # 18     ecut=    60.00 Ry     beta= 0.40
     Davidson diagonalization with overlap

---- Real-time Memory Report at c_bands before calling an iterative solver
          1602 MiB given to the printing process from OS
          1376 MiB allocation reported by mallinfo(arena+hblkhd)
         58052 MiB available memory on the node where the printing process lives
     GPU memory used/free/total (MiB): 3062 / 13218 / 16280
------------------
     ethr =  3.44E-07,  avg # of iterations =  2.3

     negative rho (up, down):  4.582E-02 4.529E-02

     total cpu time spent up to now is       67.7 secs

     total energy              =    -281.99983504 Ry
     estimated scf accuracy    <       0.00187262 Ry

     total magnetization       =     7.35 Bohr mag/cell
     absolute magnetization    =     7.38 Bohr mag/cell
[tb_dev] Currently allocated     7.31E+00 Mbytes, locked:    0 /   9
[tb_pin] Currently allocated     0.00E+00 Mbytes, locked:    0 /   0

     iteration # 19     ecut=    60.00 Ry     beta= 0.40
     Davidson diagonalization with overlap

---- Real-time Memory Report at c_bands before calling an iterative solver
          1602 MiB given to the printing process from OS
          1376 MiB allocation reported by mallinfo(arena+hblkhd)
         58052 MiB available memory on the node where the printing process lives
     GPU memory used/free/total (MiB): 3062 / 13218 / 16280
------------------
     ethr =  3.44E-07,  avg # of iterations =  4.4

     negative rho (up, down):  4.615E-02 4.497E-02

     total cpu time spent up to now is       72.2 secs

     total energy              =    -282.00305767 Ry
     estimated scf accuracy    <       0.00013984 Ry

     total magnetization       =     5.92 Bohr mag/cell
     absolute magnetization    =     5.94 Bohr mag/cell
[tb_dev] Currently allocated     7.31E+00 Mbytes, locked:    0 /   9
[tb_pin] Currently allocated     0.00E+00 Mbytes, locked:    0 /   0

     iteration # 20     ecut=    60.00 Ry     beta= 0.40
     Davidson diagonalization with overlap

---- Real-time Memory Report at c_bands before calling an iterative solver
          1602 MiB given to the printing process from OS
          1376 MiB allocation reported by mallinfo(arena+hblkhd)
         58053 MiB available memory on the node where the printing process lives
     GPU memory used/free/total (MiB): 3062 / 13218 / 16280
------------------
     ethr =  2.41E-07,  avg # of iterations =  3.3

     negative rho (up, down):  4.666E-02 4.447E-02

     total cpu time spent up to now is       76.3 secs

     total energy              =    -282.00124218 Ry
     estimated scf accuracy    <       0.00002352 Ry

     total magnetization       =     6.56 Bohr mag/cell
     absolute magnetization    =     6.58 Bohr mag/cell
[tb_dev] Currently allocated     7.31E+00 Mbytes, locked:    0 /   9
[tb_pin] Currently allocated     0.00E+00 Mbytes, locked:    0 /   0

     iteration # 21     ecut=    60.00 Ry     beta= 0.40
     Davidson diagonalization with overlap

---- Real-time Memory Report at c_bands before calling an iterative solver
          1602 MiB given to the printing process from OS
          1376 MiB allocation reported by mallinfo(arena+hblkhd)
         58053 MiB available memory on the node where the printing process lives
     GPU memory used/free/total (MiB): 3062 / 13218 / 16280
------------------
     ethr =  4.05E-08,  avg # of iterations =  6.2

     negative rho (up, down):  4.661E-02 4.452E-02

     total cpu time spent up to now is       81.7 secs

     total energy              =    -282.00382836 Ry
     estimated scf accuracy    <       0.00029820 Ry

     total magnetization       =     7.46 Bohr mag/cell
     absolute magnetization    =     7.50 Bohr mag/cell
[tb_dev] Currently allocated     7.31E+00 Mbytes, locked:    0 /   9
[tb_pin] Currently allocated     0.00E+00 Mbytes, locked:    0 /   0

     iteration # 22     ecut=    60.00 Ry     beta= 0.40
     Davidson diagonalization with overlap

---- Real-time Memory Report at c_bands before calling an iterative solver
          1602 MiB given to the printing process from OS
          1376 MiB allocation reported by mallinfo(arena+hblkhd)
         58053 MiB available memory on the node where the printing process lives
     GPU memory used/free/total (MiB): 3062 / 13218 / 16280
------------------
     ethr =  4.05E-08,  avg # of iterations =  1.6

     negative rho (up, down):  4.658E-02 4.455E-02

     total cpu time spent up to now is       84.8 secs

     total energy              =    -282.00388004 Ry
     estimated scf accuracy    <       0.00021809 Ry

     total magnetization       =     7.39 Bohr mag/cell
     absolute magnetization    =     7.42 Bohr mag/cell
[tb_dev] Currently allocated     7.31E+00 Mbytes, locked:    0 /   9
[tb_pin] Currently allocated     0.00E+00 Mbytes, locked:    0 /   0

     iteration # 23     ecut=    60.00 Ry     beta= 0.40
     Davidson diagonalization with overlap

---- Real-time Memory Report at c_bands before calling an iterative solver
          1602 MiB given to the printing process from OS
          1376 MiB allocation reported by mallinfo(arena+hblkhd)
         58053 MiB available memory on the node where the printing process lives
     GPU memory used/free/total (MiB): 3062 / 13218 / 16280
------------------
     ethr =  4.05E-08,  avg # of iterations =  1.5

     negative rho (up, down):  4.669E-02 4.446E-02

     total cpu time spent up to now is       87.8 secs

     total energy              =    -282.00370842 Ry
     estimated scf accuracy    <       0.00017908 Ry

     total magnetization       =     7.34 Bohr mag/cell
     absolute magnetization    =     7.38 Bohr mag/cell
[tb_dev] Currently allocated     7.31E+00 Mbytes, locked:    0 /   9
[tb_pin] Currently allocated     0.00E+00 Mbytes, locked:    0 /   0

     iteration # 24     ecut=    60.00 Ry     beta= 0.40
     Davidson diagonalization with overlap

---- Real-time Memory Report at c_bands before calling an iterative solver
          1602 MiB given to the printing process from OS
          1376 MiB allocation reported by mallinfo(arena+hblkhd)
         58053 MiB available memory on the node where the printing process lives
     GPU memory used/free/total (MiB): 3062 / 13218 / 16280
------------------
     ethr =  4.05E-08,  avg # of iterations =  2.0

     negative rho (up, down):  4.663E-02 4.452E-02

     total cpu time spent up to now is       91.4 secs

     total energy              =    -282.00383009 Ry
     estimated scf accuracy    <       0.00029496 Ry

     total magnetization       =     7.47 Bohr mag/cell
     absolute magnetization    =     7.50 Bohr mag/cell
[tb_dev] Currently allocated     7.31E+00 Mbytes, locked:    0 /   9
[tb_pin] Currently allocated     0.00E+00 Mbytes, locked:    0 /   0

     iteration # 25     ecut=    60.00 Ry     beta= 0.40
     Davidson diagonalization with overlap

---- Real-time Memory Report at c_bands before calling an iterative solver
          1602 MiB given to the printing process from OS
          1376 MiB allocation reported by mallinfo(arena+hblkhd)
         58053 MiB available memory on the node where the printing process lives
     GPU memory used/free/total (MiB): 3062 / 13218 / 16280
------------------
     ethr =  4.05E-08,  avg # of iterations =  2.0

     negative rho (up, down):  4.657E-02 4.459E-02

     total cpu time spent up to now is       94.8 secs

     total energy              =    -282.00391174 Ry
     estimated scf accuracy    <       0.00014863 Ry

     total magnetization       =     7.36 Bohr mag/cell
     absolute magnetization    =     7.39 Bohr mag/cell
[tb_dev] Currently allocated     7.31E+00 Mbytes, locked:    0 /   9
[tb_pin] Currently allocated     0.00E+00 Mbytes, locked:    0 /   0

     iteration # 26     ecut=    60.00 Ry     beta= 0.40
     Davidson diagonalization with overlap

---- Real-time Memory Report at c_bands before calling an iterative solver
          1602 MiB given to the printing process from OS
          1376 MiB allocation reported by mallinfo(arena+hblkhd)
         58051 MiB available memory on the node where the printing process lives
     GPU memory used/free/total (MiB): 3062 / 13218 / 16280
------------------
     ethr =  4.05E-08,  avg # of iterations =  2.5

     negative rho (up, down):  4.655E-02 4.460E-02

     total cpu time spent up to now is       98.4 secs

     total energy              =    -282.00396911 Ry
     estimated scf accuracy    <       0.00008958 Ry

     total magnetization       =     7.25 Bohr mag/cell
     absolute magnetization    =     7.28 Bohr mag/cell
[tb_dev] Currently allocated     7.31E+00 Mbytes, locked:    0 /   9
[tb_pin] Currently allocated     0.00E+00 Mbytes, locked:    0 /   0

     iteration # 27     ecut=    60.00 Ry     beta= 0.40
     Davidson diagonalization with overlap

---- Real-time Memory Report at c_bands before calling an iterative solver
          1602 MiB given to the printing process from OS
          1376 MiB allocation reported by mallinfo(arena+hblkhd)
         58052 MiB available memory on the node where the printing process lives
     GPU memory used/free/total (MiB): 3062 / 13218 / 16280
------------------
     ethr =  4.05E-08,  avg # of iterations =  1.0

     negative rho (up, down):  4.657E-02 4.458E-02

     total cpu time spent up to now is      101.3 secs

     total energy              =    -282.00394135 Ry
     estimated scf accuracy    <       0.00006547 Ry

     total magnetization       =     7.21 Bohr mag/cell
     absolute magnetization    =     7.24 Bohr mag/cell
[tb_dev] Currently allocated     7.31E+00 Mbytes, locked:    0 /   9
[tb_pin] Currently allocated     0.00E+00 Mbytes, locked:    0 /   0

     iteration # 28     ecut=    60.00 Ry     beta= 0.40
     Davidson diagonalization with overlap

---- Real-time Memory Report at c_bands before calling an iterative solver
          1602 MiB given to the printing process from OS
          1376 MiB allocation reported by mallinfo(arena+hblkhd)
         58053 MiB available memory on the node where the printing process lives
     GPU memory used/free/total (MiB): 3062 / 13218 / 16280
------------------
     ethr =  4.05E-08,  avg # of iterations =  1.0

     negative rho (up, down):  4.638E-02 4.478E-02

     total cpu time spent up to now is      104.3 secs

     total energy              =    -282.00378341 Ry
     estimated scf accuracy    <       0.00007949 Ry

     total magnetization       =     7.25 Bohr mag/cell
     absolute magnetization    =     7.28 Bohr mag/cell
[tb_dev] Currently allocated     7.31E+00 Mbytes, locked:    0 /   9
[tb_pin] Currently allocated     0.00E+00 Mbytes, locked:    0 /   0

     iteration # 29     ecut=    60.00 Ry     beta= 0.40
     Davidson diagonalization with overlap

---- Real-time Memory Report at c_bands before calling an iterative solver
          1602 MiB given to the printing process from OS
          1376 MiB allocation reported by mallinfo(arena+hblkhd)
         58053 MiB available memory on the node where the printing process lives
     GPU memory used/free/total (MiB): 3062 / 13218 / 16280
------------------
     ethr =  4.05E-08,  avg # of iterations =  4.0

     negative rho (up, down):  4.643E-02 4.473E-02

     total cpu time spent up to now is      108.7 secs

     total energy              =    -282.00406909 Ry
     estimated scf accuracy    <       0.00003522 Ry

     total magnetization       =     6.91 Bohr mag/cell
     absolute magnetization    =     6.94 Bohr mag/cell
[tb_dev] Currently allocated     7.31E+00 Mbytes, locked:    0 /   9
[tb_pin] Currently allocated     0.00E+00 Mbytes, locked:    0 /   0

     iteration # 30     ecut=    60.00 Ry     beta= 0.40
     Davidson diagonalization with overlap

---- Real-time Memory Report at c_bands before calling an iterative solver
          1602 MiB given to the printing process from OS
          1376 MiB allocation reported by mallinfo(arena+hblkhd)
         58052 MiB available memory on the node where the printing process lives
     GPU memory used/free/total (MiB): 3062 / 13218 / 16280
------------------
     ethr =  4.05E-08,  avg # of iterations =  1.5

     negative rho (up, down):  4.642E-02 4.474E-02

     total cpu time spent up to now is      111.7 secs

     total energy              =    -282.00409130 Ry
     estimated scf accuracy    <       0.00004299 Ry

     total magnetization       =     6.99 Bohr mag/cell
     absolute magnetization    =     7.02 Bohr mag/cell
[tb_dev] Currently allocated     7.31E+00 Mbytes, locked:    0 /   9
[tb_pin] Currently allocated     0.00E+00 Mbytes, locked:    0 /   0

     iteration # 31     ecut=    60.00 Ry     beta= 0.40
     Davidson diagonalization with overlap

---- Real-time Memory Report at c_bands before calling an iterative solver
          1602 MiB given to the printing process from OS
          1376 MiB allocation reported by mallinfo(arena+hblkhd)
         58052 MiB available memory on the node where the printing process lives
     GPU memory used/free/total (MiB): 3062 / 13218 / 16280
------------------
     ethr =  4.05E-08,  avg # of iterations =  1.0

     negative rho (up, down):  4.635E-02 4.480E-02

     total cpu time spent up to now is      114.7 secs

     total energy              =    -282.00410382 Ry
     estimated scf accuracy    <       0.00004185 Ry

     total magnetization       =     6.99 Bohr mag/cell
     absolute magnetization    =     7.01 Bohr mag/cell
[tb_dev] Currently allocated     7.31E+00 Mbytes, locked:    0 /   9
[tb_pin] Currently allocated     0.00E+00 Mbytes, locked:    0 /   0

     iteration # 32     ecut=    60.00 Ry     beta= 0.40
     Davidson diagonalization with overlap

---- Real-time Memory Report at c_bands before calling an iterative solver
          1602 MiB given to the printing process from OS
          1376 MiB allocation reported by mallinfo(arena+hblkhd)
         58052 MiB available memory on the node where the printing process lives
     GPU memory used/free/total (MiB): 3062 / 13218 / 16280
------------------
     ethr =  4.05E-08,  avg # of iterations =  2.0

     negative rho (up, down):  4.640E-02 4.476E-02

     total cpu time spent up to now is      118.0 secs

     total energy              =    -282.00411852 Ry
     estimated scf accuracy    <       0.00003164 Ry

     total magnetization       =     6.88 Bohr mag/cell
     absolute magnetization    =     6.91 Bohr mag/cell
[tb_dev] Currently allocated     7.31E+00 Mbytes, locked:    0 /   9
[tb_pin] Currently allocated     0.00E+00 Mbytes, locked:    0 /   0

     iteration # 33     ecut=    60.00 Ry     beta= 0.40
     Davidson diagonalization with overlap

---- Real-time Memory Report at c_bands before calling an iterative solver
          1602 MiB given to the printing process from OS
          1376 MiB allocation reported by mallinfo(arena+hblkhd)
         58052 MiB available memory on the node where the printing process lives
     GPU memory used/free/total (MiB): 3062 / 13218 / 16280
------------------
     ethr =  4.05E-08,  avg # of iterations =  1.0

     negative rho (up, down):  4.586E-02 4.528E-02

     total cpu time spent up to now is      121.0 secs

     total energy              =    -282.00210926 Ry
     estimated scf accuracy    <       0.00003841 Ry

     total magnetization       =     6.92 Bohr mag/cell
     absolute magnetization    =     6.94 Bohr mag/cell
[tb_dev] Currently allocated     7.31E+00 Mbytes, locked:    0 /   9
[tb_pin] Currently allocated     0.00E+00 Mbytes, locked:    0 /   0

     iteration # 34     ecut=    60.00 Ry     beta= 0.40
     Davidson diagonalization with overlap

---- Real-time Memory Report at c_bands before calling an iterative solver
          1602 MiB given to the printing process from OS
          1376 MiB allocation reported by mallinfo(arena+hblkhd)
         58053 MiB available memory on the node where the printing process lives
     GPU memory used/free/total (MiB): 3062 / 13218 / 16280
------------------
     ethr =  4.05E-08,  avg # of iterations =  5.8

     negative rho (up, down):  4.533E-02 4.579E-02

     total cpu time spent up to now is      126.3 secs

     total energy              =    -282.00275929 Ry
     estimated scf accuracy    <       0.00013917 Ry

     total magnetization       =     5.95 Bohr mag/cell
     absolute magnetization    =     5.96 Bohr mag/cell
[tb_dev] Currently allocated     7.31E+00 Mbytes, locked:    0 /   9
[tb_pin] Currently allocated     0.00E+00 Mbytes, locked:    0 /   0

     iteration # 35     ecut=    60.00 Ry     beta= 0.40
     Davidson diagonalization with overlap

---- Real-time Memory Report at c_bands before calling an iterative solver
          1602 MiB given to the printing process from OS
          1376 MiB allocation reported by mallinfo(arena+hblkhd)
         58052 MiB available memory on the node where the printing process lives
     GPU memory used/free/total (MiB): 3062 / 13218 / 16280
------------------
     ethr =  4.05E-08,  avg # of iterations =  6.1

     negative rho (up, down):  4.572E-02 4.542E-02

     total cpu time spent up to now is      131.9 secs

     total energy              =    -282.00326869 Ry
     estimated scf accuracy    <       0.00105548 Ry

     total magnetization       =     4.88 Bohr mag/cell
     absolute magnetization    =     6.54 Bohr mag/cell
[tb_dev] Currently allocated     7.31E+00 Mbytes, locked:    0 /   9
[tb_pin] Currently allocated     0.00E+00 Mbytes, locked:    0 /   0

     iteration # 36     ecut=    60.00 Ry     beta= 0.40
     Davidson diagonalization with overlap

---- Real-time Memory Report at c_bands before calling an iterative solver
          1602 MiB given to the printing process from OS
          1376 MiB allocation reported by mallinfo(arena+hblkhd)
         58052 MiB available memory on the node where the printing process lives
     GPU memory used/free/total (MiB): 3062 / 13218 / 16280
------------------
     ethr =  4.05E-08,  avg # of iterations =  4.8

     negative rho (up, down):  4.602E-02 4.512E-02

     total cpu time spent up to now is      136.7 secs

     total energy              =    -282.00351309 Ry
     estimated scf accuracy    <       0.00026352 Ry

     total magnetization       =     5.65 Bohr mag/cell
     absolute magnetization    =     5.82 Bohr mag/cell
[tb_dev] Currently allocated     7.31E+00 Mbytes, locked:    0 /   9
[tb_pin] Currently allocated     0.00E+00 Mbytes, locked:    0 /   0

     iteration # 37     ecut=    60.00 Ry     beta= 0.40
     Davidson diagonalization with overlap

---- Real-time Memory Report at c_bands before calling an iterative solver
          1602 MiB given to the printing process from OS
          1376 MiB allocation reported by mallinfo(arena+hblkhd)
         58052 MiB available memory on the node where the printing process lives
     GPU memory used/free/total (MiB): 3062 / 13218 / 16280
------------------
     ethr =  4.05E-08,  avg # of iterations =  4.5

     negative rho (up, down):  4.638E-02 4.477E-02

     total cpu time spent up to now is      141.5 secs

     total energy              =    -282.00264438 Ry
     estimated scf accuracy    <       0.00008164 Ry

     total magnetization       =     6.23 Bohr mag/cell
     absolute magnetization    =     6.24 Bohr mag/cell
[tb_dev] Currently allocated     7.31E+00 Mbytes, locked:    0 /   9
[tb_pin] Currently allocated     0.00E+00 Mbytes, locked:    0 /   0

     iteration # 38     ecut=    60.00 Ry     beta= 0.40
     Davidson diagonalization with overlap

---- Real-time Memory Report at c_bands before calling an iterative solver
          1602 MiB given to the printing process from OS
          1376 MiB allocation reported by mallinfo(arena+hblkhd)
         58052 MiB available memory on the node where the printing process lives
     GPU memory used/free/total (MiB): 3062 / 13218 / 16280
------------------
     ethr =  4.05E-08,  avg # of iterations =  5.0

     negative rho (up, down):  4.653E-02 4.462E-02

     total cpu time spent up to now is      146.7 secs

     total energy              =    -282.00377545 Ry
     estimated scf accuracy    <       0.00003463 Ry

     total magnetization       =     6.93 Bohr mag/cell
     absolute magnetization    =     6.96 Bohr mag/cell
[tb_dev] Currently allocated     7.31E+00 Mbytes, locked:    0 /   9
[tb_pin] Currently allocated     0.00E+00 Mbytes, locked:    0 /   0

     iteration # 39     ecut=    60.00 Ry     beta= 0.40
     Davidson diagonalization with overlap

---- Real-time Memory Report at c_bands before calling an iterative solver
          1602 MiB given to the printing process from OS
          1376 MiB allocation reported by mallinfo(arena+hblkhd)
         58047 MiB available memory on the node where the printing process lives
     GPU memory used/free/total (MiB): 3062 / 13218 / 16280
------------------
     ethr =  4.05E-08,  avg # of iterations =  3.2

     negative rho (up, down):  4.667E-02 4.449E-02

     total cpu time spent up to now is      150.9 secs

     total energy              =    -282.00368121 Ry
     estimated scf accuracy    <       0.00006275 Ry

     total magnetization       =     7.19 Bohr mag/cell
     absolute magnetization    =     7.22 Bohr mag/cell
[tb_dev] Currently allocated     7.31E+00 Mbytes, locked:    0 /   9
[tb_pin] Currently allocated     0.00E+00 Mbytes, locked:    0 /   0

     iteration # 40     ecut=    60.00 Ry     beta= 0.40
     Davidson diagonalization with overlap

---- Real-time Memory Report at c_bands before calling an iterative solver
          1602 MiB given to the printing process from OS
          1376 MiB allocation reported by mallinfo(arena+hblkhd)
         58050 MiB available memory on the node where the printing process lives
     GPU memory used/free/total (MiB): 3062 / 13218 / 16280
------------------
     ethr =  4.05E-08,  avg # of iterations =  3.7

     negative rho (up, down):  4.660E-02 4.455E-02

     total cpu time spent up to now is      155.1 secs

     total energy              =    -282.00387940 Ry
     estimated scf accuracy    <       0.00014298 Ry

     total magnetization       =     7.40 Bohr mag/cell
     absolute magnetization    =     7.43 Bohr mag/cell
[tb_dev] Currently allocated     7.31E+00 Mbytes, locked:    0 /   9
[tb_pin] Currently allocated     0.00E+00 Mbytes, locked:    0 /   0

     iteration # 41     ecut=    60.00 Ry     beta= 0.40
     Davidson diagonalization with overlap

---- Real-time Memory Report at c_bands before calling an iterative solver
          1602 MiB given to the printing process from OS
          1376 MiB allocation reported by mallinfo(arena+hblkhd)
         58052 MiB available memory on the node where the printing process lives
     GPU memory used/free/total (MiB): 3062 / 13218 / 16280
------------------
     ethr =  4.05E-08,  avg # of iterations =  1.9

     negative rho (up, down):  4.646E-02 4.469E-02

     total cpu time spent up to now is      158.5 secs

     total energy              =    -282.00388936 Ry
     estimated scf accuracy    <       0.00009384 Ry

     total magnetization       =     7.30 Bohr mag/cell
     absolute magnetization    =     7.34 Bohr mag/cell
[tb_dev] Currently allocated     7.31E+00 Mbytes, locked:    0 /   9
[tb_pin] Currently allocated     0.00E+00 Mbytes, locked:    0 /   0

     iteration # 42     ecut=    60.00 Ry     beta= 0.40
     Davidson diagonalization with overlap

---- Real-time Memory Report at c_bands before calling an iterative solver
          1602 MiB given to the printing process from OS
          1376 MiB allocation reported by mallinfo(arena+hblkhd)
         58051 MiB available memory on the node where the printing process lives
     GPU memory used/free/total (MiB): 3062 / 13218 / 16280
------------------
     ethr =  4.05E-08,  avg # of iterations =  3.7

     negative rho (up, down):  4.643E-02 4.472E-02

     total cpu time spent up to now is      162.7 secs

     total energy              =    -282.00406476 Ry
     estimated scf accuracy    <       0.00004246 Ry

     total magnetization       =     7.08 Bohr mag/cell
     absolute magnetization    =     7.11 Bohr mag/cell
[tb_dev] Currently allocated     7.31E+00 Mbytes, locked:    0 /   9
[tb_pin] Currently allocated     0.00E+00 Mbytes, locked:    0 /   0

     iteration # 43     ecut=    60.00 Ry     beta= 0.40
     Davidson diagonalization with overlap

---- Real-time Memory Report at c_bands before calling an iterative solver
          1602 MiB given to the printing process from OS
          1376 MiB allocation reported by mallinfo(arena+hblkhd)
         58052 MiB available memory on the node where the printing process lives
     GPU memory used/free/total (MiB): 3062 / 13218 / 16280
------------------
     ethr =  4.05E-08,  avg # of iterations =  1.0

     negative rho (up, down):  4.642E-02 4.473E-02

     total cpu time spent up to now is      165.6 secs

     total energy              =    -282.00407607 Ry
     estimated scf accuracy    <       0.00003776 Ry

     total magnetization       =     7.03 Bohr mag/cell
     absolute magnetization    =     7.06 Bohr mag/cell
[tb_dev] Currently allocated     7.31E+00 Mbytes, locked:    0 /   9
[tb_pin] Currently allocated     0.00E+00 Mbytes, locked:    0 /   0

     iteration # 44     ecut=    60.00 Ry     beta= 0.40
     Davidson diagonalization with overlap

---- Real-time Memory Report at c_bands before calling an iterative solver
          1602 MiB given to the printing process from OS
          1376 MiB allocation reported by mallinfo(arena+hblkhd)
         58051 MiB available memory on the node where the printing process lives
     GPU memory used/free/total (MiB): 3062 / 13218 / 16280
------------------
     ethr =  4.05E-08,  avg # of iterations =  1.0

     negative rho (up, down):  4.641E-02 4.474E-02

     total cpu time spent up to now is      168.5 secs

     total energy              =    -282.00408289 Ry
     estimated scf accuracy    <       0.00003690 Ry

     total magnetization       =     7.02 Bohr mag/cell
     absolute magnetization    =     7.05 Bohr mag/cell
[tb_dev] Currently allocated     7.31E+00 Mbytes, locked:    0 /   9
[tb_pin] Currently allocated     0.00E+00 Mbytes, locked:    0 /   0

     iteration # 45     ecut=    60.00 Ry     beta= 0.40
     Davidson diagonalization with overlap

---- Real-time Memory Report at c_bands before calling an iterative solver
          1602 MiB given to the printing process from OS
          1376 MiB allocation reported by mallinfo(arena+hblkhd)
         58051 MiB available memory on the node where the printing process lives
     GPU memory used/free/total (MiB): 3062 / 13218 / 16280
------------------
     ethr =  4.05E-08,  avg # of iterations =  1.0

     negative rho (up, down):  4.626E-02 4.488E-02

     total cpu time spent up to now is      171.5 secs

     total energy              =    -282.00399525 Ry
     estimated scf accuracy    <       0.00003618 Ry

     total magnetization       =     7.01 Bohr mag/cell
     absolute magnetization    =     7.03 Bohr mag/cell
[tb_dev] Currently allocated     7.31E+00 Mbytes, locked:    0 /   9
[tb_pin] Currently allocated     0.00E+00 Mbytes, locked:    0 /   0

     iteration # 46     ecut=    60.00 Ry     beta= 0.40
     Davidson diagonalization with overlap

---- Real-time Memory Report at c_bands before calling an iterative solver
          1602 MiB given to the printing process from OS
          1376 MiB allocation reported by mallinfo(arena+hblkhd)
         58051 MiB available memory on the node where the printing process lives
     GPU memory used/free/total (MiB): 3062 / 13218 / 16280
------------------
     ethr =  4.05E-08,  avg # of iterations =  3.2

     negative rho (up, down):  4.616E-02 4.498E-02

     total cpu time spent up to now is      175.7 secs

     total energy              =    -282.00416928 Ry
     estimated scf accuracy    <       0.00002976 Ry

     total magnetization       =     6.75 Bohr mag/cell
     absolute magnetization    =     6.77 Bohr mag/cell
[tb_dev] Currently allocated     7.31E+00 Mbytes, locked:    0 /   9
[tb_pin] Currently allocated     0.00E+00 Mbytes, locked:    0 /   0

     iteration # 47     ecut=    60.00 Ry     beta= 0.40
     Davidson diagonalization with overlap

---- Real-time Memory Report at c_bands before calling an iterative solver
          1602 MiB given to the printing process from OS
          1376 MiB allocation reported by mallinfo(arena+hblkhd)
         58051 MiB available memory on the node where the printing process lives
     GPU memory used/free/total (MiB): 3062 / 13218 / 16280
------------------
     ethr =  4.05E-08,  avg # of iterations =  3.0

     negative rho (up, down):  4.617E-02 4.497E-02

     total cpu time spent up to now is      179.7 secs

     total energy              =    -282.00424995 Ry
     estimated scf accuracy    <       0.00003790 Ry

     total magnetization       =     6.57 Bohr mag/cell
     absolute magnetization    =     6.59 Bohr mag/cell
[tb_dev] Currently allocated     7.31E+00 Mbytes, locked:    0 /   9
[tb_pin] Currently allocated     0.00E+00 Mbytes, locked:    0 /   0

     iteration # 48     ecut=    60.00 Ry     beta= 0.40
     Davidson diagonalization with overlap

---- Real-time Memory Report at c_bands before calling an iterative solver
          1602 MiB given to the printing process from OS
          1376 MiB allocation reported by mallinfo(arena+hblkhd)
         58049 MiB available memory on the node where the printing process lives
     GPU memory used/free/total (MiB): 3062 / 13218 / 16280
------------------
     ethr =  4.05E-08,  avg # of iterations =  1.0

     negative rho (up, down):  4.626E-02 4.488E-02

     total cpu time spent up to now is      182.6 secs

     total energy              =    -282.00409403 Ry
     estimated scf accuracy    <       0.00003677 Ry

     total magnetization       =     6.60 Bohr mag/cell
     absolute magnetization    =     6.62 Bohr mag/cell
[tb_dev] Currently allocated     7.31E+00 Mbytes, locked:    0 /   9
[tb_pin] Currently allocated     0.00E+00 Mbytes, locked:    0 /   0

     iteration # 49     ecut=    60.00 Ry     beta= 0.40
     Davidson diagonalization with overlap

---- Real-time Memory Report at c_bands before calling an iterative solver
          1602 MiB given to the printing process from OS
[...]
------------------
     ethr =  4.05E-08,  avg # of iterations =  2.5

     negative rho (up, down):  4.569E-02 4.543E-02

     total cpu time spent up to now is      251.5 secs

     total energy              =    -282.00484570 Ry
     estimated scf accuracy    <       0.00019795 Ry

     total magnetization       =     5.79 Bohr mag/cell
     absolute magnetization    =     5.82 Bohr mag/cell
[tb_dev] Currently allocated     7.31E+00 Mbytes, locked:    0 /   9
[tb_pin] Currently allocated     0.00E+00 Mbytes, locked:    0 /   0

     iteration # 66     ecut=    60.00 Ry     beta= 0.40
     Davidson diagonalization with overlap

---- Real-time Memory Report at c_bands before calling an iterative solver
          1602 MiB given to the printing process from OS
          1376 MiB allocation reported by mallinfo(arena+hblkhd)
         58053 MiB available memory on the node where the printing process lives
     GPU memory used/free/total (MiB): 3062 / 13218 / 16280
------------------
     ethr =  4.05E-08,  avg # of iterations =  2.0

     negative rho (up, down):  4.607E-02 4.507E-02

     total cpu time spent up to now is      254.9 secs

     total energy              =    -282.00278812 Ry
     estimated scf accuracy    <       0.00024886 Ry

     total magnetization       =     5.68 Bohr mag/cell
     absolute magnetization    =     5.81 Bohr mag/cell
[tb_dev] Currently allocated     7.31E+00 Mbytes, locked:    0 /   9
[tb_pin] Currently allocated     0.00E+00 Mbytes, locked:    0 /   0

     iteration # 67     ecut=    60.00 Ry     beta= 0.40
     Davidson diagonalization with overlap

---- Real-time Memory Report at c_bands before calling an iterative solver
          1602 MiB given to the printing process from OS
          1376 MiB allocation reported by mallinfo(arena+hblkhd)
         58053 MiB available memory on the node where the printing process lives
     GPU memory used/free/total (MiB): 3062 / 13218 / 16280
------------------
     ethr =  4.05E-08,  avg # of iterations =  4.4

     negative rho (up, down):  4.661E-02 4.454E-02

     total cpu time spent up to now is      259.6 secs

     total energy              =    -282.00106069 Ry
     estimated scf accuracy    <       0.00004856 Ry

     total magnetization       =     6.42 Bohr mag/cell
     absolute magnetization    =     6.44 Bohr mag/cell
[tb_dev] Currently allocated     7.31E+00 Mbytes, locked:    0 /   9
[tb_pin] Currently allocated     0.00E+00 Mbytes, locked:    0 /   0

     iteration # 68     ecut=    60.00 Ry     beta= 0.40
     Davidson diagonalization with overlap

---- Real-time Memory Report at c_bands before calling an iterative solver
          1602 MiB given to the printing process from OS
          1376 MiB allocation reported by mallinfo(arena+hblkhd)
         58053 MiB available memory on the node where the printing process lives
     GPU memory used/free/total (MiB): 3062 / 13218 / 16280
------------------
     ethr =  4.05E-08,  avg # of iterations =  5.8

     negative rho (up, down):  4.666E-02 4.450E-02

     total cpu time spent up to now is      265.2 secs

     total energy              =    -282.00377433 Ry
     estimated scf accuracy    <       0.00010634 Ry

     total magnetization       =     7.36 Bohr mag/cell
     absolute magnetization    =     7.39 Bohr mag/cell
[tb_dev] Currently allocated     7.31E+00 Mbytes, locked:    0 /   9
[tb_pin] Currently allocated     0.00E+00 Mbytes, locked:    0 /   0

     iteration # 69     ecut=    60.00 Ry     beta= 0.40
     Davidson diagonalization with overlap

---- Real-time Memory Report at c_bands before calling an iterative solver
          1602 MiB given to the printing process from OS
          1376 MiB allocation reported by mallinfo(arena+hblkhd)
         58052 MiB available memory on the node where the printing process lives
     GPU memory used/free/total (MiB): 3062 / 13218 / 16280
------------------
     ethr =  4.05E-08,  avg # of iterations =  1.8

     negative rho (up, down):  4.597E-02 4.517E-02

     total cpu time spent up to now is      268.4 secs

     total energy              =    -282.00045016 Ry
     estimated scf accuracy    <       0.00014422 Ry

     total magnetization       =     7.42 Bohr mag/cell
     absolute magnetization    =     7.45 Bohr mag/cell
[tb_dev] Currently allocated     7.31E+00 Mbytes, locked:    0 /   9
[tb_pin] Currently allocated     0.00E+00 Mbytes, locked:    0 /   0

     iteration # 70     ecut=    60.00 Ry     beta= 0.40
     Davidson diagonalization with overlap

---- Real-time Memory Report at c_bands before calling an iterative solver
          1602 MiB given to the printing process from OS
          1376 MiB allocation reported by mallinfo(arena+hblkhd)
         58053 MiB available memory on the node where the printing process lives
     GPU memory used/free/total (MiB): 3062 / 13218 / 16280
------------------
     ethr =  4.05E-08,  avg # of iterations =  5.9

     negative rho (up, down):  4.545E-02 4.567E-02

     total cpu time spent up to now is      274.1 secs

     total energy              =    -282.00255234 Ry
     estimated scf accuracy    <       0.00007874 Ry

     total magnetization       =     6.22 Bohr mag/cell
     absolute magnetization    =     6.23 Bohr mag/cell
[tb_dev] Currently allocated     7.31E+00 Mbytes, locked:    0 /   9
[tb_pin] Currently allocated     0.00E+00 Mbytes, locked:    0 /   0

     iteration # 71     ecut=    60.00 Ry     beta= 0.40
     Davidson diagonalization with overlap

---- Real-time Memory Report at c_bands before calling an iterative solver
          1602 MiB given to the printing process from OS
          1376 MiB allocation reported by mallinfo(arena+hblkhd)
         58053 MiB available memory on the node where the printing process lives
     GPU memory used/free/total (MiB): 3062 / 13218 / 16280
------------------
     ethr =  4.05E-08,  avg # of iterations =  5.7

     negative rho (up, down):  4.568E-02 4.545E-02

     total cpu time spent up to now is      279.4 secs

     total energy              =    -282.00430290 Ry
     estimated scf accuracy    <       0.00063716 Ry

     total magnetization       =     5.18 Bohr mag/cell
     absolute magnetization    =     6.24 Bohr mag/cell
[tb_dev] Currently allocated     7.31E+00 Mbytes, locked:    0 /   9
[tb_pin] Currently allocated     0.00E+00 Mbytes, locked:    0 /   0

     iteration # 72     ecut=    60.00 Ry     beta= 0.40
     Davidson diagonalization with overlap

---- Real-time Memory Report at c_bands before calling an iterative solver
          1602 MiB given to the printing process from OS
          1376 MiB allocation reported by mallinfo(arena+hblkhd)
         58053 MiB available memory on the node where the printing process lives
     GPU memory used/free/total (MiB): 3062 / 13218 / 16280
------------------
     ethr =  4.05E-08,  avg # of iterations =  4.2

     negative rho (up, down):  4.557E-02 4.556E-02

     total cpu time spent up to now is      284.0 secs

     total energy              =    -282.00502887 Ry
     estimated scf accuracy    <       0.00027237 Ry

     total magnetization       =     5.65 Bohr mag/cell
     absolute magnetization    =     5.82 Bohr mag/cell
[tb_dev] Currently allocated     7.31E+00 Mbytes, locked:    0 /   9
[tb_pin] Currently allocated     0.00E+00 Mbytes, locked:    0 /   0

     iteration # 73     ecut=    60.00 Ry     beta= 0.40
     Davidson diagonalization with overlap

---- Real-time Memory Report at c_bands before calling an iterative solver
          1602 MiB given to the printing process from OS
          1376 MiB allocation reported by mallinfo(arena+hblkhd)
         58048 MiB available memory on the node where the printing process lives
     GPU memory used/free/total (MiB): 3062 / 13218 / 16280
------------------
     ethr =  4.05E-08,  avg # of iterations =  3.0

     negative rho (up, down):  4.576E-02 4.537E-02

     total cpu time spent up to now is      288.1 secs

     total energy              =    -282.00431427 Ry
     estimated scf accuracy    <       0.00040540 Ry

     total magnetization       =     5.43 Bohr mag/cell
     absolute magnetization    =     5.99 Bohr mag/cell
[tb_dev] Currently allocated     7.31E+00 Mbytes, locked:    0 /   9
[tb_pin] Currently allocated     0.00E+00 Mbytes, locked:    0 /   0

     iteration # 74     ecut=    60.00 Ry     beta= 0.40
     Davidson diagonalization with overlap

---- Real-time Memory Report at c_bands before calling an iterative solver
          1602 MiB given to the printing process from OS
          1376 MiB allocation reported by mallinfo(arena+hblkhd)
         58050 MiB available memory on the node where the printing process lives
     GPU memory used/free/total (MiB): 3062 / 13218 / 16280
------------------
     ethr =  4.05E-08,  avg # of iterations =  3.5

     negative rho (up, down):  4.527E-02 4.584E-02

     total cpu time spent up to now is      292.3 secs

     total energy              =    -282.00343115 Ry
     estimated scf accuracy    <       0.00019138 Ry

     total magnetization       =     5.82 Bohr mag/cell
     absolute magnetization    =     5.85 Bohr mag/cell
[tb_dev] Currently allocated     7.31E+00 Mbytes, locked:    0 /   9
[tb_pin] Currently allocated     0.00E+00 Mbytes, locked:    0 /   0

     iteration # 75     ecut=    60.00 Ry     beta= 0.40
     Davidson diagonalization with overlap

---- Real-time Memory Report at c_bands before calling an iterative solver
          1602 MiB given to the printing process from OS
          1376 MiB allocation reported by mallinfo(arena+hblkhd)
         58051 MiB available memory on the node where the printing process lives
     GPU memory used/free/total (MiB): 3062 / 13218 / 16280
------------------
     ethr =  4.05E-08,  avg # of iterations =  5.2

     negative rho (up, down):  4.532E-02 4.580E-02

     total cpu time spent up to now is      297.3 secs

     total energy              =    -282.00582129 Ry
     estimated scf accuracy    <       0.00106713 Ry

     total magnetization       =     4.86 Bohr mag/cell
     absolute magnetization    =     6.56 Bohr mag/cell
[tb_dev] Currently allocated     7.31E+00 Mbytes, locked:    0 /   9
[tb_pin] Currently allocated     0.00E+00 Mbytes, locked:    0 /   0

     iteration # 76     ecut=    60.00 Ry     beta= 0.40
     Davidson diagonalization with overlap

---- Real-time Memory Report at c_bands before calling an iterative solver
          1602 MiB given to the printing process from OS
          1376 MiB allocation reported by mallinfo(arena+hblkhd)
         58053 MiB available memory on the node where the printing process lives
     GPU memory used/free/total (MiB): 3062 / 13218 / 16280
------------------
     ethr =  4.05E-08,  avg # of iterations =  1.5

     negative rho (up, down):  4.521E-02 4.591E-02

     total cpu time spent up to now is      300.4 secs

     total energy              =    -282.00608404 Ry
     estimated scf accuracy    <       0.00093082 Ry

     total magnetization       =     4.96 Bohr mag/cell
     absolute magnetization    =     6.46 Bohr mag/cell
[tb_dev] Currently allocated     7.31E+00 Mbytes, locked:    0 /   9
[tb_pin] Currently allocated     0.00E+00 Mbytes, locked:    0 /   0

     iteration # 77     ecut=    60.00 Ry     beta= 0.40
     Davidson diagonalization with overlap

---- Real-time Memory Report at c_bands before calling an iterative solver
          1602 MiB given to the printing process from OS
          1376 MiB allocation reported by mallinfo(arena+hblkhd)
         58054 MiB available memory on the node where the printing process lives
     GPU memory used/free/total (MiB): 3062 / 13218 / 16280
------------------
     ethr =  4.05E-08,  avg # of iterations =  2.5

     negative rho (up, down):  4.482E-02 4.628E-02

     total cpu time spent up to now is      304.2 secs

     total energy              =    -282.00616838 Ry
     estimated scf accuracy    <       0.00126396 Ry

     total magnetization       =     4.76 Bohr mag/cell
     absolute magnetization    =     6.66 Bohr mag/cell
[tb_dev] Currently allocated     7.31E+00 Mbytes, locked:    0 /   9
[tb_pin] Currently allocated     0.00E+00 Mbytes, locked:    0 /   0

     iteration # 78     ecut=    60.00 Ry     beta= 0.40
     Davidson diagonalization with overlap

---- Real-time Memory Report at c_bands before calling an iterative solver
          1602 MiB given to the printing process from OS
          1376 MiB allocation reported by mallinfo(arena+hblkhd)
         58054 MiB available memory on the node where the printing process lives
     GPU memory used/free/total (MiB): 3062 / 13218 / 16280
------------------
     ethr =  4.05E-08,  avg # of iterations =  5.4

     negative rho (up, down):  4.643E-02 4.472E-02

     total cpu time spent up to now is      309.4 secs

     total energy              =    -281.97813731 Ry
     estimated scf accuracy    <       0.00338781 Ry

     total magnetization       =     4.15 Bohr mag/cell
     absolute magnetization    =     7.31 Bohr mag/cell
[tb_dev] Currently allocated     7.31E+00 Mbytes, locked:    0 /   9
[tb_pin] Currently allocated     0.00E+00 Mbytes, locked:    0 /   0

     iteration # 79     ecut=    60.00 Ry     beta= 0.40
     Davidson diagonalization with overlap

---- Real-time Memory Report at c_bands before calling an iterative solver
          1602 MiB given to the printing process from OS
          1376 MiB allocation reported by mallinfo(arena+hblkhd)
         58054 MiB available memory on the node where the printing process lives
     GPU memory used/free/total (MiB): 3062 / 13218 / 16280
------------------
     ethr =  4.05E-08,  avg # of iterations =  7.5

     negative rho (up, down):  4.660E-02 4.456E-02

     total cpu time spent up to now is      316.1 secs

     total energy              =    -282.00351427 Ry
     estimated scf accuracy    <       0.00003692 Ry

     total magnetization       =     7.09 Bohr mag/cell
     absolute magnetization    =     7.12 Bohr mag/cell
[tb_dev] Currently allocated     7.31E+00 Mbytes, locked:    0 /   9
[tb_pin] Currently allocated     0.00E+00 Mbytes, locked:    0 /   0

     iteration # 80     ecut=    60.00 Ry     beta= 0.40
     Davidson diagonalization with overlap

---- Real-time Memory Report at c_bands before calling an iterative solver
          1602 MiB given to the printing process from OS
          1376 MiB allocation reported by mallinfo(arena+hblkhd)
         58053 MiB available memory on the node where the printing process lives
     GPU memory used/free/total (MiB): 3062 / 13218 / 16280
------------------
     ethr =  4.05E-08,  avg # of iterations =  4.0

     negative rho (up, down):  4.616E-02 4.498E-02

     total cpu time spent up to now is      320.4 secs

     total energy              =    -282.00255133 Ry
     estimated scf accuracy    <       0.00011552 Ry

     total magnetization       =     7.39 Bohr mag/cell
     absolute magnetization    =     7.42 Bohr mag/cell

     End of self-consistent calculation

     convergence NOT achieved after  80 iterations: stopping

     Writing config to output data dir ./out/aiida.save/
 
     init_run     :     13.03s CPU      4.70s WALL (       1 calls)
     electrons    :    572.41s CPU    315.07s WALL (       1 calls)

     Called by init_run:
     wfcinit      :      1.63s CPU      2.47s WALL (       1 calls)
                                        2.47s GPU  (       1 calls)
     wfcinit:atom :      0.02s CPU      0.04s WALL (      58 calls)
                                        0.04s GPU  (      58 calls)
     wfcinit:wfcr :      1.03s CPU      1.66s WALL (      58 calls)
                                        1.66s GPU  (      58 calls)
     potinit      :      1.54s CPU      0.14s WALL (       1 calls)
     hinit0       :      7.31s CPU      1.16s WALL (       1 calls)

     Called by electrons:
     c_bands      :    309.75s CPU    243.25s WALL (      80 calls)
     sum_band     :     48.43s CPU     51.75s WALL (      80 calls)
     v_of_rho     :     55.16s CPU      4.99s WALL (      81 calls)
     v_h          :      7.96s CPU      0.71s WALL (      81 calls)
     v_xc         :     47.19s CPU      4.28s WALL (      81 calls)
     newd         :     80.07s CPU      7.71s WALL (      81 calls)
                                        7.71s GPU  (      81 calls)
     mix_rho      :     56.99s CPU      5.46s WALL (      80 calls)

     Called by c_bands:
     init_us_2    :     17.65s CPU     16.07s WALL (    9338 calls)
     init_us_2:gp :     17.44s CPU     15.91s WALL (    9338 calls)
     cegterg      :    254.27s CPU    206.99s WALL (    4640 calls)

     Called by sum_band:
     sum_band:wei :      0.20s CPU      0.21s WALL (      80 calls)
                                        0.21s GPU  (      80 calls)
     sum_band:loo :     37.38s CPU     40.55s WALL (      80 calls)
                                       40.55s GPU  (      80 calls)
     sum_band:buf :      9.41s CPU      9.79s WALL (    4640 calls)
                                        9.76s GPU  (    4640 calls)
     sum_band:ini :      6.46s CPU      7.56s WALL (    4640 calls)
                                        7.53s GPU  (    4640 calls)
     sum_band:cal :      0.14s CPU      1.77s WALL (    4640 calls)
                                        1.46s GPU  (    4640 calls)
     sum_band:bec :      1.22s CPU      1.32s WALL (    4640 calls)
                                        1.29s GPU  (    4640 calls)
     addusdens    :      7.54s CPU      7.66s WALL (      80 calls)
                                        7.66s GPU  (      80 calls)
     addusd:skk   :      0.04s CPU      0.04s WALL (     240 calls)
                                        0.04s GPU  (     240 calls)

     Called by *egterg:
     cdiaghg      :     61.64s CPU     55.66s WALL (   18848 calls)
                                       55.53s GPU  (   18848 calls)
     cegterg:over :      6.16s CPU      5.13s WALL (   14208 calls)
     cegterg:upda :      7.56s CPU      6.21s WALL (   14208 calls)
     cegterg:last :      4.24s CPU      3.58s WALL (    9989 calls)
     h_psi        :    156.57s CPU    122.84s WALL (   18906 calls)
                                      122.63s GPU  (   18906 calls)
     s_psi        :      3.38s CPU      6.96s WALL (   18906 calls)
                                        6.51s GPU  (   18906 calls)
     g_psi        :      0.14s CPU      0.66s WALL (   14208 calls)
                                        0.57s GPU  (   14208 calls)

     Called by h_psi:
     h_psi:calbec :      0.84s CPU      5.16s WALL (   18906 calls)
                                        5.04s GPU  (   18906 calls)
     vloc_psi     :    136.83s CPU    107.82s WALL (   18906 calls)
                                      107.70s GPU  (   18906 calls)
     add_vuspsi   :      5.48s CPU      8.10s WALL (   18906 calls)
                                        7.98s GPU  (   18906 calls)

     General routines
     calbec       :      0.70s CPU      0.57s WALL (   23546 calls)
     fft          :      2.94s CPU      0.72s WALL (    2023 calls)
                                        0.57s GPU  (    1861 calls)
     ffts         :      0.11s CPU      0.08s WALL (     322 calls)
                                        0.02s GPU  (     160 calls)
     fftw         :      2.73s CPU     87.94s WALL (   98208 calls)
                                       87.31s GPU  (   98208 calls)
     interpolate  :      8.34s CPU      0.73s WALL (     162 calls)
     davcio       :      0.31s CPU      0.28s WALL (      76 calls)
 
     Parallel routines
 
     PWSCF        :   9m48.20s CPU   5m20.87s WALL

 
   This run was terminated on:  17:19:51  22Oct2023            

=------------------------------------------------------------------------------=
   JOB DONE.
=------------------------------------------------------------------------------=
