
     Program PWSCF v.7.2 starts on 23Oct2023 at 21:51:19 

     This program is part of the open-source Quantum ESPRESSO suite
     for quantum simulation of materials; please cite
         "P. Giannozzi et al., J. Phys.:Condens. Matter 21 395502 (2009);
         "P. Giannozzi et al., J. Phys.:Condens. Matter 29 465901 (2017);
         "P. Giannozzi et al., J. Chem. Phys. 152 154105 (2020);
          URL http://www.quantum-espresso.org", 
     in publications or presentations arising from this work. More details at
     http://www.quantum-espresso.org/quote

     Parallel version (MPI & OpenMP), running on      12 processor cores
     Number of MPI processes:                 1
     Threads/MPI process:                    12

     MPI processes distributed on     1 nodes
     60513 MiB available memory on the printing compute node when the environment starts
 
     Reading input from aiida.in

     Current dimensions of program PWSCF are:
     Max number of different atomic species (ntypx) = 10
     Max number of k-points (npk) =  40000
     Max angular momentum in pseudopotentials (lmaxx) =  4
     Message from routine setup:
     using ibrav=0 with symmetry is DISCOURAGED, use correct ibrav instead
 
     Subspace diagonalization in iterative solution of the eigenvalue problem:
     a serial algorithm will be used

 
     G-vector sticks info
     --------------------
     sticks:   dense  smooth     PW     G-vecs:    dense   smooth      PW
     Sum        5791    2897    807               415201   146777   21459
 
     Using Slab Decomposition
 


     bravais-lattice index     =            0
     lattice parameter (alat)  =      13.0580  a.u.
     unit-cell volume          =    3073.6526 (a.u.)^3
     number of atoms/cell      =           14
     number of atomic types    =            3
     number of electrons       =       142.00
     number of Kohn-Sham states=           85
     kinetic-energy cutoff     =      50.0000  Ry
     charge density cutoff     =     400.0000  Ry
     scf convergence threshold =      2.8E-09
     mixing beta               =       0.2000
     number of iterations used =            8  plain     mixing
     Exchange-correlation= SLA  PW   PSX  PSC
                           (   1   4  10   8   0   0   0)

     GPU acceleration is ACTIVE.


     GPU used by master process:

        Device Number: 0
        Device name: Tesla P100-PCIE-16GB
        Compute capability : 60
        Ratio of single to double precision performance  : 2
        Memory Clock Rate (KHz): 715000
        Memory Bus Width (bits): 4096
        Peak Memory Bandwidth (GB/s): 732.16

     celldm(1)=  13.058008  celldm(2)=   0.000000  celldm(3)=   0.000000
     celldm(4)=   0.000000  celldm(5)=   0.000000  celldm(6)=   0.000000

     crystal axes: (cart. coord. in units of alat)
               a(1) = (   1.000000   0.000000   0.000000 )  
               a(2) = (   0.000000   1.067438   0.000000 )  
               a(3) = (  -0.475822   0.000000   1.293246 )  

     reciprocal axes: (cart. coord. in units 2 pi/alat)
               b(1) = (  1.000000 -0.000000  0.367928 )  
               b(2) = (  0.000000  0.936822 -0.000000 )  
               b(3) = (  0.000000  0.000000  0.773248 )  


     PseudoPot. # 1 for Br read from file:
     ./pseudo/br_pbesol_v1.4.uspp.F.UPF
     MD5 check sum: 7bf6084e715f6bfd1944787c04c43e72
     Pseudo is Ultrasoft + core correction, Zval =  7.0
     Generated by new atomic code, or converted to UPF format
     Using radial grid of  879 points,  6 beta functions with: 
                l(1) =   0
                l(2) =   0
                l(3) =   1
                l(4) =   1
                l(5) =   2
                l(6) =   2
     Q(r) pseudized with  8 coefficients,  rinner =    1.200   1.200   1.200
                                                       1.200   1.200

     PseudoPot. # 2 for Co read from file:
     ./pseudo/co_pbesol_v1.2.uspp.F.UPF
     MD5 check sum: 3b4cd4e7cc7df4da9fdede0fd33e2193
     Pseudo is Ultrasoft + core correction, Zval = 17.0
     Generated by new atomic code, or converted to UPF format
     Using radial grid of  863 points,  6 beta functions with: 
                l(1) =   0
                l(2) =   0
                l(3) =   1
                l(4) =   1
                l(5) =   2
                l(6) =   2
     Q(r) pseudized with  8 coefficients,  rinner =    1.200   1.200   1.200
                                                       1.200   1.200

     PseudoPot. # 3 for Tl read from file:
     ./pseudo/tl_pbesol_v1.2.uspp.F.UPF
     MD5 check sum: ce331abb17083e2469b5604a64700343
     Pseudo is Ultrasoft + core correction, Zval = 13.0
     Generated by new atomic code, or converted to UPF format
     Using radial grid of  899 points,  6 beta functions with: 
                l(1) =   0
                l(2) =   0
                l(3) =   1
                l(4) =   1
                l(5) =   2
                l(6) =   2
     Q(r) pseudized with  6 coefficients,  rinner =    1.100   1.100   1.100
                                                       1.100   1.100

     atomic species   valence    mass     pseudopotential
        Br             7.00    79.90400     Br( 1.00)
        Co            17.00    58.93319     Co( 1.00)
        Tl            13.00   204.38330     Tl( 1.00)

     Starting magnetic structure 
     atomic species   magnetization
        Br           0.100
        Co           0.294
        Tl           0.100

      4 Sym. Ops., with inversion, found ( 2 have fractional translation)


                                    s                        frac. trans.

      isym =  1     identity                                     

 cryst.   s( 1) = (     1          0          0      )
                  (     0          1          0      )
                  (     0          0          1      )

 cart.    s( 1) = (  1.0000000  0.0000000 -0.0000000 )
                  (  0.0000000  1.0000000  0.0000000 )
                  (  0.0000000  0.0000000  1.0000000 )


      isym =  2     180 deg rotation - cart. axis [0,1,0]        

 cryst.   s( 2) = (    -1          0          0      )    f =(  0.0000000 )
                  (     0          1          0      )       (  0.5000000 )
                  (     0          0         -1      )       (  0.0000000 )

 cart.    s( 2) = ( -1.0000000  0.0000000  0.0000000 )    f =(  0.0000000 )
                  (  0.0000000  1.0000000  0.0000000 )       (  0.5337192 )
                  (  0.0000000  0.0000000 -1.0000000 )       (  0.0000000 )


      isym =  3     inversion                                    

 cryst.   s( 3) = (    -1          0          0      )
                  (     0         -1          0      )
                  (     0          0         -1      )

 cart.    s( 3) = ( -1.0000000  0.0000000  0.0000000 )
                  (  0.0000000 -1.0000000  0.0000000 )
                  (  0.0000000  0.0000000 -1.0000000 )


      isym =  4     inv. 180 deg rotation - cart. axis [0,1,0]   

 cryst.   s( 4) = (     1          0          0      )    f =(  0.0000000 )
                  (     0         -1          0      )       (  0.5000000 )
                  (     0          0          1      )       (  0.0000000 )

 cart.    s( 4) = (  1.0000000  0.0000000 -0.0000000 )    f =(  0.0000000 )
                  (  0.0000000 -1.0000000  0.0000000 )       (  0.5337192 )
                  (  0.0000000  0.0000000  1.0000000 )       (  0.0000000 )


   Cartesian axes

     site n.     atom                  positions (alat units)
         1           Tl  tau(   1) = (   0.5678415   0.8005789   0.5798916  )
         2           Tl  tau(   2) = (  -0.0436634   0.2668596   0.7133545  )
         3           Tl  tau(   3) = (   0.2879816   0.8005789   1.2051760  )
         4           Tl  tau(   4) = (   0.2361965   0.2668596   0.0880701  )
         5           Co  tau(   5) = (   0.0827438   0.8005789   0.3874565  )
         6           Co  tau(   6) = (   0.4414343   0.2668596   0.9057896  )
         7           Br  tau(   7) = (   0.6322850   1.0644497   0.9833843  )
         8           Br  tau(   8) = (   0.6322850   0.5367081   0.9833843  )
         9           Br  tau(   9) = (  -0.1081069   0.5307304   0.3098618  )
        10           Br  tau(  10) = (  -0.1081069   0.0029888   0.3098618  )
        11           Br  tau(  11) = (   0.3596327   0.8005789   0.1648889  )
        12           Br  tau(  12) = (   0.1645454   0.2668596   1.1283572  )
        13           Br  tau(  13) = (   0.1259403   0.8005789   0.7429699  )
        14           Br  tau(  14) = (   0.3982378   0.2668596   0.5502762  )

   Crystallographic axes

     site n.     atom                  positions (cryst. coord.)
         1           Tl  tau(   1) = (  0.7812000  0.7500000  0.4484000  )
         2           Tl  tau(   2) = (  0.2188000  0.2500000  0.5516000  )
         3           Tl  tau(   3) = (  0.7314000  0.7500000  0.9319000  )
         4           Tl  tau(   4) = (  0.2686000  0.2500000  0.0681000  )
         5           Co  tau(   5) = (  0.2253000  0.7500000  0.2996000  )
         6           Co  tau(   6) = (  0.7747000  0.2500000  0.7004000  )
         7           Br  tau(   7) = (  0.9941000  0.9972000  0.7604000  )
         8           Br  tau(   8) = (  0.9941000  0.5028000  0.7604000  )
         9           Br  tau(   9) = (  0.0059000  0.4972000  0.2396000  )
        10           Br  tau(  10) = (  0.0059000  0.0028000  0.2396000  )
        11           Br  tau(  11) = (  0.4203000  0.7500000  0.1275000  )
        12           Br  tau(  12) = (  0.5797000  0.2500000  0.8725000  )
        13           Br  tau(  13) = (  0.3993000  0.7500000  0.5745000  )
        14           Br  tau(  14) = (  0.6007000  0.2500000  0.4255000  )

     number of k points=    72  Marzari-Vanderbilt smearing, width (Ry)=  0.0100
                       cart. coord. in units 2pi/alat
        k(    1) = (   0.0000000   0.0000000   0.0000000), wk =   0.0047619
        k(    2) = (   0.0000000   0.0000000   0.1546496), wk =   0.0095238
        k(    3) = (   0.0000000   0.0000000   0.3092992), wk =   0.0095238
        k(    4) = (   0.0000000   0.1561370   0.0000000), wk =   0.0095238
        k(    5) = (   0.0000000   0.1561370   0.1546496), wk =   0.0190476
        k(    6) = (   0.0000000   0.1561370   0.3092992), wk =   0.0190476
        k(    7) = (   0.0000000   0.3122740   0.0000000), wk =   0.0095238
        k(    8) = (   0.0000000   0.3122740   0.1546496), wk =   0.0190476
        k(    9) = (   0.0000000   0.3122740   0.3092992), wk =   0.0190476
        k(   10) = (   0.0000000  -0.4684111   0.0000000), wk =   0.0047619
        k(   11) = (   0.0000000  -0.4684111   0.1546496), wk =   0.0095238
        k(   12) = (   0.0000000  -0.4684111   0.3092992), wk =   0.0095238
        k(   13) = (   0.1428571   0.0000000   0.0525612), wk =   0.0095238
        k(   14) = (   0.1428571   0.0000000   0.2072108), wk =   0.0095238
        k(   15) = (   0.1428571   0.0000000   0.3618604), wk =   0.0095238
        k(   16) = (   0.1428571   0.0000000  -0.2567380), wk =   0.0095238
        k(   17) = (   0.1428571   0.0000000  -0.1020884), wk =   0.0095238
        k(   18) = (   0.1428571   0.1561370   0.0525612), wk =   0.0190476
        k(   19) = (   0.1428571   0.1561370   0.2072108), wk =   0.0190476
        k(   20) = (   0.1428571   0.1561370   0.3618604), wk =   0.0190476
        k(   21) = (   0.1428571   0.1561370  -0.2567380), wk =   0.0190476
        k(   22) = (   0.1428571   0.1561370  -0.1020884), wk =   0.0190476
        k(   23) = (   0.1428571   0.3122740   0.0525612), wk =   0.0190476
        k(   24) = (   0.1428571   0.3122740   0.2072108), wk =   0.0190476
        k(   25) = (   0.1428571   0.3122740   0.3618604), wk =   0.0190476
        k(   26) = (   0.1428571   0.3122740  -0.2567380), wk =   0.0190476
        k(   27) = (   0.1428571   0.3122740  -0.1020884), wk =   0.0190476
        k(   28) = (   0.1428571  -0.4684111   0.0525612), wk =   0.0095238
        k(   29) = (   0.1428571  -0.4684111   0.2072108), wk =   0.0095238
        k(   30) = (   0.1428571  -0.4684111   0.3618604), wk =   0.0095238
        k(   31) = (   0.1428571  -0.4684111  -0.2567380), wk =   0.0095238
        k(   32) = (   0.1428571  -0.4684111  -0.1020884), wk =   0.0095238
        k(   33) = (   0.2857143   0.0000000   0.1051224), wk =   0.0095238
        k(   34) = (   0.2857143   0.0000000   0.2597720), wk =   0.0095238
        k(   35) = (   0.2857143   0.0000000   0.4144216), wk =   0.0095238
        k(   36) = (   0.2857143   0.0000000  -0.2041768), wk =   0.0095238
        k(   37) = (   0.2857143   0.0000000  -0.0495272), wk =   0.0095238
        k(   38) = (   0.2857143   0.1561370   0.1051224), wk =   0.0190476
        k(   39) = (   0.2857143   0.1561370   0.2597720), wk =   0.0190476
        k(   40) = (   0.2857143   0.1561370   0.4144216), wk =   0.0190476
        k(   41) = (   0.2857143   0.1561370  -0.2041768), wk =   0.0190476
        k(   42) = (   0.2857143   0.1561370  -0.0495272), wk =   0.0190476
        k(   43) = (   0.2857143   0.3122740   0.1051224), wk =   0.0190476
        k(   44) = (   0.2857143   0.3122740   0.2597720), wk =   0.0190476
        k(   45) = (   0.2857143   0.3122740   0.4144216), wk =   0.0190476
        k(   46) = (   0.2857143   0.3122740  -0.2041768), wk =   0.0190476
        k(   47) = (   0.2857143   0.3122740  -0.0495272), wk =   0.0190476
        k(   48) = (   0.2857143  -0.4684111   0.1051224), wk =   0.0095238
        k(   49) = (   0.2857143  -0.4684111   0.2597720), wk =   0.0095238
        k(   50) = (   0.2857143  -0.4684111   0.4144216), wk =   0.0095238
        k(   51) = (   0.2857143  -0.4684111  -0.2041768), wk =   0.0095238
        k(   52) = (   0.2857143  -0.4684111  -0.0495272), wk =   0.0095238
        k(   53) = (   0.4285714   0.0000000   0.1576836), wk =   0.0095238
        k(   54) = (   0.4285714   0.0000000   0.3123332), wk =   0.0095238
        k(   55) = (   0.4285714   0.0000000   0.4669828), wk =   0.0095238
        k(   56) = (   0.4285714   0.0000000  -0.1516156), wk =   0.0095238
        k(   57) = (   0.4285714   0.0000000   0.0030340), wk =   0.0095238
        k(   58) = (   0.4285714   0.1561370   0.1576836), wk =   0.0190476
        k(   59) = (   0.4285714   0.1561370   0.3123332), wk =   0.0190476
        k(   60) = (   0.4285714   0.1561370   0.4669828), wk =   0.0190476
        k(   61) = (   0.4285714   0.1561370  -0.1516156), wk =   0.0190476
        k(   62) = (   0.4285714   0.1561370   0.0030340), wk =   0.0190476
        k(   63) = (   0.4285714   0.3122740   0.1576836), wk =   0.0190476
        k(   64) = (   0.4285714   0.3122740   0.3123332), wk =   0.0190476
        k(   65) = (   0.4285714   0.3122740   0.4669828), wk =   0.0190476
        k(   66) = (   0.4285714   0.3122740  -0.1516156), wk =   0.0190476
        k(   67) = (   0.4285714   0.3122740   0.0030340), wk =   0.0190476
        k(   68) = (   0.4285714  -0.4684111   0.1576836), wk =   0.0095238
        k(   69) = (   0.4285714  -0.4684111   0.3123332), wk =   0.0095238
        k(   70) = (   0.4285714  -0.4684111   0.4669828), wk =   0.0095238
        k(   71) = (   0.4285714  -0.4684111  -0.1516156), wk =   0.0095238
        k(   72) = (   0.4285714  -0.4684111   0.0030340), wk =   0.0095238

                       cryst. coord.
        k(    1) = (   0.0000000   0.0000000   0.0000000), wk =   0.0047619
        k(    2) = (   0.0000000   0.0000000   0.2000000), wk =   0.0095238
        k(    3) = (   0.0000000   0.0000000   0.4000000), wk =   0.0095238
        k(    4) = (   0.0000000   0.1666667   0.0000000), wk =   0.0095238
        k(    5) = (   0.0000000   0.1666667   0.2000000), wk =   0.0190476
        k(    6) = (   0.0000000   0.1666667   0.4000000), wk =   0.0190476
        k(    7) = (   0.0000000   0.3333333   0.0000000), wk =   0.0095238
        k(    8) = (   0.0000000   0.3333333   0.2000000), wk =   0.0190476
        k(    9) = (   0.0000000   0.3333333   0.4000000), wk =   0.0190476
        k(   10) = (   0.0000000  -0.5000000   0.0000000), wk =   0.0047619
        k(   11) = (   0.0000000  -0.5000000   0.2000000), wk =   0.0095238
        k(   12) = (   0.0000000  -0.5000000   0.4000000), wk =   0.0095238
        k(   13) = (   0.1428571   0.0000000   0.0000000), wk =   0.0095238
        k(   14) = (   0.1428571   0.0000000   0.2000000), wk =   0.0095238
        k(   15) = (   0.1428571   0.0000000   0.4000000), wk =   0.0095238
        k(   16) = (   0.1428571   0.0000000  -0.4000000), wk =   0.0095238
        k(   17) = (   0.1428571   0.0000000  -0.2000000), wk =   0.0095238
        k(   18) = (   0.1428571   0.1666667   0.0000000), wk =   0.0190476
        k(   19) = (   0.1428571   0.1666667   0.2000000), wk =   0.0190476
        k(   20) = (   0.1428571   0.1666667   0.4000000), wk =   0.0190476
        k(   21) = (   0.1428571   0.1666667  -0.4000000), wk =   0.0190476
        k(   22) = (   0.1428571   0.1666667  -0.2000000), wk =   0.0190476
        k(   23) = (   0.1428571   0.3333333   0.0000000), wk =   0.0190476
        k(   24) = (   0.1428571   0.3333333   0.2000000), wk =   0.0190476
        k(   25) = (   0.1428571   0.3333333   0.4000000), wk =   0.0190476
        k(   26) = (   0.1428571   0.3333333  -0.4000000), wk =   0.0190476
        k(   27) = (   0.1428571   0.3333333  -0.2000000), wk =   0.0190476
        k(   28) = (   0.1428571  -0.5000000   0.0000000), wk =   0.0095238
        k(   29) = (   0.1428571  -0.5000000   0.2000000), wk =   0.0095238
        k(   30) = (   0.1428571  -0.5000000   0.4000000), wk =   0.0095238
        k(   31) = (   0.1428571  -0.5000000  -0.4000000), wk =   0.0095238
        k(   32) = (   0.1428571  -0.5000000  -0.2000000), wk =   0.0095238
        k(   33) = (   0.2857143   0.0000000   0.0000000), wk =   0.0095238
        k(   34) = (   0.2857143   0.0000000   0.2000000), wk =   0.0095238
        k(   35) = (   0.2857143   0.0000000   0.4000000), wk =   0.0095238
        k(   36) = (   0.2857143   0.0000000  -0.4000000), wk =   0.0095238
        k(   37) = (   0.2857143   0.0000000  -0.2000000), wk =   0.0095238
        k(   38) = (   0.2857143   0.1666667   0.0000000), wk =   0.0190476
        k(   39) = (   0.2857143   0.1666667   0.2000000), wk =   0.0190476
        k(   40) = (   0.2857143   0.1666667   0.4000000), wk =   0.0190476
        k(   41) = (   0.2857143   0.1666667  -0.4000000), wk =   0.0190476
        k(   42) = (   0.2857143   0.1666667  -0.2000000), wk =   0.0190476
        k(   43) = (   0.2857143   0.3333333   0.0000000), wk =   0.0190476
        k(   44) = (   0.2857143   0.3333333   0.2000000), wk =   0.0190476
        k(   45) = (   0.2857143   0.3333333   0.4000000), wk =   0.0190476
        k(   46) = (   0.2857143   0.3333333  -0.4000000), wk =   0.0190476
        k(   47) = (   0.2857143   0.3333333  -0.2000000), wk =   0.0190476
        k(   48) = (   0.2857143  -0.5000000   0.0000000), wk =   0.0095238
        k(   49) = (   0.2857143  -0.5000000   0.2000000), wk =   0.0095238
        k(   50) = (   0.2857143  -0.5000000   0.4000000), wk =   0.0095238
        k(   51) = (   0.2857143  -0.5000000  -0.4000000), wk =   0.0095238
        k(   52) = (   0.2857143  -0.5000000  -0.2000000), wk =   0.0095238
        k(   53) = (   0.4285714   0.0000000  -0.0000000), wk =   0.0095238
        k(   54) = (   0.4285714   0.0000000   0.2000000), wk =   0.0095238
        k(   55) = (   0.4285714   0.0000000   0.4000000), wk =   0.0095238
        k(   56) = (   0.4285714   0.0000000  -0.4000000), wk =   0.0095238
        k(   57) = (   0.4285714   0.0000000  -0.2000000), wk =   0.0095238
        k(   58) = (   0.4285714   0.1666667  -0.0000000), wk =   0.0190476
        k(   59) = (   0.4285714   0.1666667   0.2000000), wk =   0.0190476
        k(   60) = (   0.4285714   0.1666667   0.4000000), wk =   0.0190476
        k(   61) = (   0.4285714   0.1666667  -0.4000000), wk =   0.0190476
        k(   62) = (   0.4285714   0.1666667  -0.2000000), wk =   0.0190476
        k(   63) = (   0.4285714   0.3333333  -0.0000000), wk =   0.0190476
        k(   64) = (   0.4285714   0.3333333   0.2000000), wk =   0.0190476
        k(   65) = (   0.4285714   0.3333333   0.4000000), wk =   0.0190476
        k(   66) = (   0.4285714   0.3333333  -0.4000000), wk =   0.0190476
        k(   67) = (   0.4285714   0.3333333  -0.2000000), wk =   0.0190476
        k(   68) = (   0.4285714  -0.5000000  -0.0000000), wk =   0.0095238
        k(   69) = (   0.4285714  -0.5000000   0.2000000), wk =   0.0095238
        k(   70) = (   0.4285714  -0.5000000   0.4000000), wk =   0.0095238
        k(   71) = (   0.4285714  -0.5000000  -0.4000000), wk =   0.0095238
        k(   72) = (   0.4285714  -0.5000000  -0.2000000), wk =   0.0095238

     Dense  grid:   415201 G-vectors     FFT dimensions: (  90,  90, 120)

     Smooth grid:   146777 G-vectors     FFT dimensions: (  60,  64,  81)

     Dynamical RAM for                 wfc:      23.80 MB

     Dynamical RAM for     wfc (w. buffer):    3451.17 MB

     Dynamical RAM for           str. fact:      19.01 MB

     Dynamical RAM for           local pot:       0.00 MB

     Dynamical RAM for          nlocal pot:      70.56 MB

     Dynamical RAM for                qrad:       4.82 MB

     Dynamical RAM for          rho,v,vnew:      82.51 MB

     Dynamical RAM for               rhoin:      27.50 MB

     Dynamical RAM for            rho*nmix:     202.73 MB

     Dynamical RAM for           G-vectors:      24.88 MB

     Dynamical RAM for          h,s,v(r/c):       1.32 MB

     Dynamical RAM for          <psi|beta>:       0.33 MB

     Dynamical RAM for                 psi:      47.60 MB

     Dynamical RAM for                hpsi:      47.60 MB

     Dynamical RAM for                spsi:      47.60 MB

     Dynamical RAM for      wfcinit/wfcrot:      47.77 MB

     Dynamical RAM for           addusdens:    1235.42 MB

     Dynamical RAM for          addusforce:    1324.17 MB

     Dynamical RAM for         addusstress:    1282.93 MB

     Estimated static dynamical RAM per process >       3.66 GB

     Estimated max dynamical RAM per process >       5.15 GB

     Atomic positions and unit cell read from directory:
     ./out/aiida.save/
 

     Check: negative core charge=   -0.000003
     Generating pointlists ...
     new r_m :   0.1400 (alat units)  1.8287 (a.u.) for type    1
     new r_m :   0.1400 (alat units)  1.8287 (a.u.) for type    2
     new r_m :   0.1915 (alat units)  2.5009 (a.u.) for type    3

     The initial density is read from file :
     ./out/aiida.save/charge-density


     starting charge     142.0084, renormalised to     142.0000

     negative rho (up, down):  9.837E-02 9.856E-02
     Starting wfcs from file

     total cpu time spent up to now is        7.5 secs

     per-process dynamical memory:   634.2 Mb

     Self-consistent Calculation
[tb_dev] Currently allocated     1.07E-04 Mbytes, locked:    0 /   2
[tb_pin] Currently allocated     0.00E+00 Mbytes, locked:    0 /   0

     iteration #  1     ecut=    50.00 Ry     beta= 0.20
     Davidson diagonalization with overlap

---- Real-time Memory Report at c_bands before calling an iterative solver
           771 MiB given to the printing process from OS
           644 MiB allocation reported by mallinfo(arena+hblkhd)
         59539 MiB available memory on the node where the printing process lives
     GPU memory used/free/total (MiB): 1796 / 14484 / 16280
------------------
     ethr =  1.00E-05,  avg # of iterations =  1.1

     Threshold (ethr) on eigenvalues was too large:
     Diagonalizing with lowered threshold

     Davidson diagonalization with overlap

---- Real-time Memory Report at c_bands before calling an iterative solver
          4582 MiB given to the printing process from OS
           293 MiB allocation reported by mallinfo(arena+hblkhd)
         51506 MiB available memory on the node where the printing process lives
     GPU memory used/free/total (MiB): 3580 / 12700 / 16280
------------------
     ethr =  4.44E-08,  avg # of iterations =  1.0

     negative rho (up, down):  9.837E-02 9.856E-02

     total cpu time spent up to now is       41.8 secs

     WARNING: integrated charge=   142.00199621, expected=   142.00000000

     total energy              =   -1500.03119845 Ry
     estimated scf accuracy    <       0.00007014 Ry

     total magnetization       =     5.99 Bohr mag/cell
     absolute magnetization    =     6.06 Bohr mag/cell
[tb_dev] Currently allocated     7.71E+00 Mbytes, locked:    0 /   8
[tb_pin] Currently allocated     0.00E+00 Mbytes, locked:    0 /   0

     iteration #  2     ecut=    50.00 Ry     beta= 0.20
     Davidson diagonalization with overlap

---- Real-time Memory Report at c_bands before calling an iterative solver
          4688 MiB given to the printing process from OS
           349 MiB allocation reported by mallinfo(arena+hblkhd)
         51444 MiB available memory on the node where the printing process lives
     GPU memory used/free/total (MiB): 3588 / 12692 / 16280
------------------
     ethr =  4.94E-08,  avg # of iterations =  2.0
     Minimization algorithm failed to find Fermi energy: reverting to bisection
     Possible cause: smearing is larger than the electronic band-gap.

     negative rho (up, down):  9.838E-02 9.856E-02

     total cpu time spent up to now is       59.9 secs

     WARNING: integrated charge=   142.00188011, expected=   142.00000000

     total energy              =   -1500.03257061 Ry
     estimated scf accuracy    <       0.00027538 Ry

     total magnetization       =     6.00 Bohr mag/cell
     absolute magnetization    =     6.07 Bohr mag/cell
[tb_dev] Currently allocated     7.71E+00 Mbytes, locked:    0 /   8
[tb_pin] Currently allocated     0.00E+00 Mbytes, locked:    0 /   0

     iteration #  3     ecut=    50.00 Ry     beta= 0.20
     Davidson diagonalization with overlap

---- Real-time Memory Report at c_bands before calling an iterative solver
          4697 MiB given to the printing process from OS
           358 MiB allocation reported by mallinfo(arena+hblkhd)
         51438 MiB available memory on the node where the printing process lives
     GPU memory used/free/total (MiB): 3678 / 12602 / 16280
------------------
     ethr =  4.94E-08,  avg # of iterations =  1.0

     negative rho (up, down):  9.838E-02 9.856E-02

     total cpu time spent up to now is       75.6 secs

     WARNING: integrated charge=   142.00284181, expected=   142.00000000

     total energy              =   -1500.03121539 Ry
     estimated scf accuracy    <       0.00001636 Ry

     total magnetization       =     5.99 Bohr mag/cell
     absolute magnetization    =     6.06 Bohr mag/cell
[tb_dev] Currently allocated     7.71E+00 Mbytes, locked:    0 /   8
[tb_pin] Currently allocated     0.00E+00 Mbytes, locked:    0 /   0

     iteration #  4     ecut=    50.00 Ry     beta= 0.20
     Davidson diagonalization with overlap

---- Real-time Memory Report at c_bands before calling an iterative solver
          4706 MiB given to the printing process from OS
           367 MiB allocation reported by mallinfo(arena+hblkhd)
         51430 MiB available memory on the node where the printing process lives
     GPU memory used/free/total (MiB): 3678 / 12602 / 16280
------------------
     ethr =  1.15E-08,  avg # of iterations =  1.0

     negative rho (up, down):  9.838E-02 9.856E-02

     total cpu time spent up to now is       91.1 secs

     WARNING: integrated charge=   142.00619708, expected=   142.00000000

     total energy              =   -1500.03120618 Ry
     estimated scf accuracy    <       0.00001030 Ry

     total magnetization       =     5.99 Bohr mag/cell
     absolute magnetization    =     6.06 Bohr mag/cell
[tb_dev] Currently allocated     7.71E+00 Mbytes, locked:    0 /   8
[tb_pin] Currently allocated     0.00E+00 Mbytes, locked:    0 /   0

     iteration #  5     ecut=    50.00 Ry     beta= 0.20
     Davidson diagonalization with overlap

---- Real-time Memory Report at c_bands before calling an iterative solver
          4715 MiB given to the printing process from OS
           376 MiB allocation reported by mallinfo(arena+hblkhd)
         51422 MiB available memory on the node where the printing process lives
     GPU memory used/free/total (MiB): 3678 / 12602 / 16280
------------------
     ethr =  7.25E-09,  avg # of iterations =  1.0
     Minimization algorithm failed to find Fermi energy: reverting to bisection
     Possible cause: smearing is larger than the electronic band-gap.

     negative rho (up, down):  9.838E-02 9.856E-02

     total cpu time spent up to now is      106.5 secs

     WARNING: integrated charge=   142.00621626, expected=   142.00000000

     total energy              =   -1500.03257056 Ry
     estimated scf accuracy    <       0.00025286 Ry

     total magnetization       =     6.00 Bohr mag/cell
     absolute magnetization    =     6.07 Bohr mag/cell
[tb_dev] Currently allocated     7.71E+00 Mbytes, locked:    0 /   8
[tb_pin] Currently allocated     0.00E+00 Mbytes, locked:    0 /   0

     iteration #  6     ecut=    50.00 Ry     beta= 0.20
     Davidson diagonalization with overlap

---- Real-time Memory Report at c_bands before calling an iterative solver
          4729 MiB given to the printing process from OS
           389 MiB allocation reported by mallinfo(arena+hblkhd)
         51409 MiB available memory on the node where the printing process lives
     GPU memory used/free/total (MiB): 3678 / 12602 / 16280
------------------
     ethr =  7.25E-09,  avg # of iterations =  1.0

     negative rho (up, down):  9.838E-02 9.856E-02

     total cpu time spent up to now is      122.1 secs

     WARNING: integrated charge=   142.00675789, expected=   142.00000000

     total energy              =   -1500.03122121 Ry
     estimated scf accuracy    <       0.00001132 Ry

     total magnetization       =     5.99 Bohr mag/cell
     absolute magnetization    =     6.06 Bohr mag/cell
[tb_dev] Currently allocated     7.71E+00 Mbytes, locked:    0 /   8
[tb_pin] Currently allocated     0.00E+00 Mbytes, locked:    0 /   0

     iteration #  7     ecut=    50.00 Ry     beta= 0.20
     Davidson diagonalization with overlap

---- Real-time Memory Report at c_bands before calling an iterative solver
          4738 MiB given to the printing process from OS
           398 MiB allocation reported by mallinfo(arena+hblkhd)
         51401 MiB available memory on the node where the printing process lives
     GPU memory used/free/total (MiB): 3678 / 12602 / 16280
------------------
     ethr =  7.25E-09,  avg # of iterations =  1.0

     negative rho (up, down):  9.838E-02 9.856E-02

     total cpu time spent up to now is      137.8 secs

     WARNING: integrated charge=   142.00669265, expected=   142.00000000

     total energy              =   -1500.03120655 Ry
     estimated scf accuracy    <       0.00000938 Ry

     total magnetization       =     5.99 Bohr mag/cell
     absolute magnetization    =     6.06 Bohr mag/cell
[tb_dev] Currently allocated     7.71E+00 Mbytes, locked:    0 /   8
[tb_pin] Currently allocated     0.00E+00 Mbytes, locked:    0 /   0

     iteration #  8     ecut=    50.00 Ry     beta= 0.20
     Davidson diagonalization with overlap

---- Real-time Memory Report at c_bands before calling an iterative solver
          4742 MiB given to the printing process from OS
           403 MiB allocation reported by mallinfo(arena+hblkhd)
         51396 MiB available memory on the node where the printing process lives
     GPU memory used/free/total (MiB): 3678 / 12602 / 16280
------------------
     ethr =  6.60E-09,  avg # of iterations =  1.0

     negative rho (up, down):  9.838E-02 9.856E-02

     total cpu time spent up to now is      153.5 secs

     WARNING: integrated charge=   142.00685381, expected=   142.00000000

     total energy              =   -1500.03121095 Ry
     estimated scf accuracy    <       0.00000997 Ry

     total magnetization       =     5.99 Bohr mag/cell
     absolute magnetization    =     6.06 Bohr mag/cell
[tb_dev] Currently allocated     7.71E+00 Mbytes, locked:    0 /   8
[tb_pin] Currently allocated     0.00E+00 Mbytes, locked:    0 /   0

     iteration #  9     ecut=    50.00 Ry     beta= 0.20
     Davidson diagonalization with overlap

---- Real-time Memory Report at c_bands before calling an iterative solver
          4751 MiB given to the printing process from OS
           412 MiB allocation reported by mallinfo(arena+hblkhd)
         51387 MiB available memory on the node where the printing process lives
     GPU memory used/free/total (MiB): 3678 / 12602 / 16280
------------------
     ethr =  6.60E-09,  avg # of iterations =  1.0

     negative rho (up, down):  9.838E-02 9.856E-02

     total cpu time spent up to now is      168.9 secs

     WARNING: integrated charge=   142.00689284, expected=   142.00000000

     total energy              =   -1500.03121011 Ry
     estimated scf accuracy    <       0.00000987 Ry

     total magnetization       =     5.99 Bohr mag/cell
     absolute magnetization    =     6.06 Bohr mag/cell
[tb_dev] Currently allocated     7.71E+00 Mbytes, locked:    0 /   8
[tb_pin] Currently allocated     0.00E+00 Mbytes, locked:    0 /   0

     iteration # 10     ecut=    50.00 Ry     beta= 0.20
     Davidson diagonalization with overlap

---- Real-time Memory Report at c_bands before calling an iterative solver
          4760 MiB given to the printing process from OS
           421 MiB allocation reported by mallinfo(arena+hblkhd)
         51379 MiB available memory on the node where the printing process lives
     GPU memory used/free/total (MiB): 3678 / 12602 / 16280
------------------
     ethr =  6.60E-09,  avg # of iterations =  1.0

     negative rho (up, down):  9.838E-02 9.856E-02

     total cpu time spent up to now is      184.4 secs

     WARNING: integrated charge=   142.00716682, expected=   142.00000000

     total energy              =   -1500.03120790 Ry
     estimated scf accuracy    <       0.00000959 Ry

     total magnetization       =     5.99 Bohr mag/cell
     absolute magnetization    =     6.06 Bohr mag/cell
[tb_dev] Currently allocated     7.71E+00 Mbytes, locked:    0 /   8
[tb_pin] Currently allocated     0.00E+00 Mbytes, locked:    0 /   0

     iteration # 11     ecut=    50.00 Ry     beta= 0.20
     Davidson diagonalization with overlap

---- Real-time Memory Report at c_bands before calling an iterative solver
          4760 MiB given to the printing process from OS
           421 MiB allocation reported by mallinfo(arena+hblkhd)
         51378 MiB available memory on the node where the printing process lives
     GPU memory used/free/total (MiB): 3678 / 12602 / 16280
------------------
     ethr =  6.60E-09,  avg # of iterations =  1.0

     negative rho (up, down):  9.838E-02 9.856E-02

     total cpu time spent up to now is      199.9 secs

     WARNING: integrated charge=   142.00810409, expected=   142.00000000

     total energy              =   -1500.03120384 Ry
     estimated scf accuracy    <       0.00000906 Ry

     total magnetization       =     5.99 Bohr mag/cell
     absolute magnetization    =     6.06 Bohr mag/cell
[tb_dev] Currently allocated     7.71E+00 Mbytes, locked:    0 /   8
[tb_pin] Currently allocated     0.00E+00 Mbytes, locked:    0 /   0

     iteration # 12     ecut=    50.00 Ry     beta= 0.20
     Davidson diagonalization with overlap

---- Real-time Memory Report at c_bands before calling an iterative solver
          4760 MiB given to the printing process from OS
           421 MiB allocation reported by mallinfo(arena+hblkhd)
         51379 MiB available memory on the node where the printing process lives
     GPU memory used/free/total (MiB): 3678 / 12602 / 16280
------------------
     ethr =  6.38E-09,  avg # of iterations =  1.0
     Minimization algorithm failed to find Fermi energy: reverting to bisection
     Possible cause: smearing is larger than the electronic band-gap.

     negative rho (up, down):  9.838E-02 9.856E-02

     total cpu time spent up to now is      215.4 secs

     WARNING: integrated charge=   142.00789798, expected=   142.00000000

     total energy              =   -1500.03257370 Ry
     estimated scf accuracy    <       0.00024861 Ry

     total magnetization       =     6.00 Bohr mag/cell
     absolute magnetization    =     6.07 Bohr mag/cell
[tb_dev] Currently allocated     7.71E+00 Mbytes, locked:    0 /   8
[tb_pin] Currently allocated     0.00E+00 Mbytes, locked:    0 /   0

     iteration # 13     ecut=    50.00 Ry     beta= 0.20
     Davidson diagonalization with overlap

---- Real-time Memory Report at c_bands before calling an iterative solver
          4765 MiB given to the printing process from OS
           421 MiB allocation reported by mallinfo(arena+hblkhd)
         51378 MiB available memory on the node where the printing process lives
     GPU memory used/free/total (MiB): 3678 / 12602 / 16280
------------------
     ethr =  6.38E-09,  avg # of iterations =  1.0
     Minimization algorithm failed to find Fermi energy: reverting to bisection
     Possible cause: smearing is larger than the electronic band-gap.

     negative rho (up, down):  9.838E-02 9.856E-02

     total cpu time spent up to now is      230.9 secs

     WARNING: integrated charge=   142.00776636, expected=   142.00000000

     total energy              =   -1500.03257500 Ry
     estimated scf accuracy    <       0.00024059 Ry

     total magnetization       =     6.00 Bohr mag/cell
     absolute magnetization    =     6.07 Bohr mag/cell
[tb_dev] Currently allocated     7.71E+00 Mbytes, locked:    0 /   8
[tb_pin] Currently allocated     0.00E+00 Mbytes, locked:    0 /   0

     iteration # 14     ecut=    50.00 Ry     beta= 0.20
     Davidson diagonalization with overlap

---- Real-time Memory Report at c_bands before calling an iterative solver
          4765 MiB given to the printing process from OS
           421 MiB allocation reported by mallinfo(arena+hblkhd)
         51379 MiB available memory on the node where the printing process lives
     GPU memory used/free/total (MiB): 3678 / 12602 / 16280
------------------
     ethr =  6.38E-09,  avg # of iterations =  1.0
     Minimization algorithm failed to find Fermi energy: reverting to bisection
     Possible cause: smearing is larger than the electronic band-gap.

     negative rho (up, down):  9.838E-02 9.856E-02

     total cpu time spent up to now is      246.5 secs

     WARNING: integrated charge=   142.00826979, expected=   142.00000000

     total energy              =   -1500.03257497 Ry
     estimated scf accuracy    <       0.00025079 Ry

     total magnetization       =     6.00 Bohr mag/cell
     absolute magnetization    =     6.07 Bohr mag/cell
[tb_dev] Currently allocated     7.71E+00 Mbytes, locked:    0 /   8
[tb_pin] Currently allocated     0.00E+00 Mbytes, locked:    0 /   0

     iteration # 15     ecut=    50.00 Ry     beta= 0.20
     Davidson diagonalization with overlap

---- Real-time Memory Report at c_bands before calling an iterative solver
          4765 MiB given to the printing process from OS
           421 MiB allocation reported by mallinfo(arena+hblkhd)
         51378 MiB available memory on the node where the printing process lives
     GPU memory used/free/total (MiB): 3678 / 12602 / 16280
------------------
     ethr =  6.38E-09,  avg # of iterations =  1.0
     Minimization algorithm failed to find Fermi energy: reverting to bisection
     Possible cause: smearing is larger than the electronic band-gap.

     negative rho (up, down):  9.838E-02 9.856E-02

     total cpu time spent up to now is      262.1 secs

     WARNING: integrated charge=   142.00826784, expected=   142.00000000

     total energy              =   -1500.03257389 Ry
     estimated scf accuracy    <       0.00024952 Ry

     total magnetization       =     6.00 Bohr mag/cell
     absolute magnetization    =     6.07 Bohr mag/cell
[tb_dev] Currently allocated     7.71E+00 Mbytes, locked:    0 /   8
[tb_pin] Currently allocated     0.00E+00 Mbytes, locked:    0 /   0

     iteration # 16     ecut=    50.00 Ry     beta= 0.20
     Davidson diagonalization with overlap

---- Real-time Memory Report at c_bands before calling an iterative solver
          4765 MiB given to the printing process from OS
           421 MiB allocation reported by mallinfo(arena+hblkhd)
         51378 MiB available memory on the node where the printing process lives
     GPU memory used/free/total (MiB): 3678 / 12602 / 16280
------------------
     ethr =  6.38E-09,  avg # of iterations =  1.0
     Minimization algorithm failed to find Fermi energy: reverting to bisection
     Possible cause: smearing is larger than the electronic band-gap.

     negative rho (up, down):  9.838E-02 9.856E-02

     total cpu time spent up to now is      277.5 secs

     WARNING: integrated charge=   142.00790045, expected=   142.00000000

     total energy              =   -1500.03257274 Ry
     estimated scf accuracy    <       0.00023983 Ry

     total magnetization       =     6.00 Bohr mag/cell
     absolute magnetization    =     6.07 Bohr mag/cell
[tb_dev] Currently allocated     7.71E+00 Mbytes, locked:    0 /   8
[tb_pin] Currently allocated     0.00E+00 Mbytes, locked:    0 /   0

     iteration # 17     ecut=    50.00 Ry     beta= 0.20
     Davidson diagonalization with overlap

---- Real-time Memory Report at c_bands before calling an iterative solver
          4765 MiB given to the printing process from OS
           421 MiB allocation reported by mallinfo(arena+hblkhd)
         51378 MiB available memory on the node where the printing process lives
     GPU memory used/free/total (MiB): 3678 / 12602 / 16280
------------------
     ethr =  6.38E-09,  avg # of iterations =  1.0

     negative rho (up, down):  9.838E-02 9.856E-02

     total cpu time spent up to now is      293.0 secs

     WARNING: integrated charge=   142.00810239, expected=   142.00000000

     total energy              =   -1500.03120940 Ry
     estimated scf accuracy    <       0.00000959 Ry

     total magnetization       =     5.99 Bohr mag/cell
     absolute magnetization    =     6.06 Bohr mag/cell
[tb_dev] Currently allocated     7.71E+00 Mbytes, locked:    0 /   8
[tb_pin] Currently allocated     0.00E+00 Mbytes, locked:    0 /   0

     iteration # 18     ecut=    50.00 Ry     beta= 0.20
     Davidson diagonalization with overlap

---- Real-time Memory Report at c_bands before calling an iterative solver
          4765 MiB given to the printing process from OS
           421 MiB allocation reported by mallinfo(arena+hblkhd)
         51378 MiB available memory on the node where the printing process lives
     GPU memory used/free/total (MiB): 3678 / 12602 / 16280
------------------
     ethr =  6.38E-09,  avg # of iterations =  1.0
     Minimization algorithm failed to find Fermi energy: reverting to bisection
     Possible cause: smearing is larger than the electronic band-gap.

     negative rho (up, down):  9.838E-02 9.856E-02

     total cpu time spent up to now is      308.5 secs

     WARNING: integrated charge=   142.00833803, expected=   142.00000000

     total energy              =   -1500.03257415 Ry
     estimated scf accuracy    <       0.00024601 Ry

     total magnetization       =     6.00 Bohr mag/cell
     absolute magnetization    =     6.07 Bohr mag/cell
[tb_dev] Currently allocated     7.71E+00 Mbytes, locked:    0 /   8
[tb_pin] Currently allocated     0.00E+00 Mbytes, locked:    0 /   0

     iteration # 19     ecut=    50.00 Ry     beta= 0.20
     Davidson diagonalization with overlap

---- Real-time Memory Report at c_bands before calling an iterative solver
          4765 MiB given to the printing process from OS
           421 MiB allocation reported by mallinfo(arena+hblkhd)
         51378 MiB available memory on the node where the printing process lives
     GPU memory used/free/total (MiB): 3678 / 12602 / 16280
------------------
     ethr =  6.38E-09,  avg # of iterations =  1.0
     Minimization algorithm failed to find Fermi energy: reverting to bisection
     Possible cause: smearing is larger than the electronic band-gap.

     negative rho (up, down):  9.838E-02 9.856E-02

     total cpu time spent up to now is      324.0 secs

     WARNING: integrated charge=   142.00846682, expected=   142.00000000

     total energy              =   -1500.03257395 Ry
     estimated scf accuracy    <       0.00024220 Ry

     total magnetization       =     6.00 Bohr mag/cell
     absolute magnetization    =     6.07 Bohr mag/cell
[tb_dev] Currently allocated     7.71E+00 Mbytes, locked:    0 /   8
[tb_pin] Currently allocated     0.00E+00 Mbytes, locked:    0 /   0

     iteration # 20     ecut=    50.00 Ry     beta= 0.20
     Davidson diagonalization with overlap

---- Real-time Memory Report at c_bands before calling an iterative solver
          4765 MiB given to the printing process from OS
           421 MiB allocation reported by mallinfo(arena+hblkhd)
         51377 MiB available memory on the node where the printing process lives
     GPU memory used/free/total (MiB): 3678 / 12602 / 16280
------------------
     ethr =  6.38E-09,  avg # of iterations =  1.0
     Minimization algorithm failed to find Fermi energy: reverting to bisection
     Possible cause: smearing is larger than the electronic band-gap.

     negative rho (up, down):  9.838E-02 9.856E-02

     total cpu time spent up to now is      339.5 secs

     WARNING: integrated charge=   142.00859022, expected=   142.00000000

     total energy              =   -1500.03257369 Ry
     estimated scf accuracy    <       0.00024064 Ry

     total magnetization       =     6.00 Bohr mag/cell
     absolute magnetization    =     6.07 Bohr mag/cell
[tb_dev] Currently allocated     7.71E+00 Mbytes, locked:    0 /   8
[tb_pin] Currently allocated     0.00E+00 Mbytes, locked:    0 /   0

     iteration # 21     ecut=    50.00 Ry     beta= 0.20
     Davidson diagonalization with overlap

---- Real-time Memory Report at c_bands before calling an iterative solver
          4765 MiB given to the printing process from OS
           421 MiB allocation reported by mallinfo(arena+hblkhd)
         51378 MiB available memory on the node where the printing process lives
     GPU memory used/free/total (MiB): 3678 / 12602 / 16280
------------------
     ethr =  6.38E-09,  avg # of iterations =  1.0
     Minimization algorithm failed to find Fermi energy: reverting to bisection
     Possible cause: smearing is larger than the electronic band-gap.

     negative rho (up, down):  9.838E-02 9.856E-02

     total cpu time spent up to now is      355.1 secs

     WARNING: integrated charge=   142.00847696, expected=   142.00000000

     total energy              =   -1500.03257342 Ry
     estimated scf accuracy    <       0.00023903 Ry

     total magnetization       =     6.00 Bohr mag/cell
     absolute magnetization    =     6.07 Bohr mag/cell
[tb_dev] Currently allocated     7.71E+00 Mbytes, locked:    0 /   8
[tb_pin] Currently allocated     0.00E+00 Mbytes, locked:    0 /   0

     iteration # 22     ecut=    50.00 Ry     beta= 0.20
     Davidson diagonalization with overlap

---- Real-time Memory Report at c_bands before calling an iterative solver
          4765 MiB given to the printing process from OS
           421 MiB allocation reported by mallinfo(arena+hblkhd)
         51379 MiB available memory on the node where the printing process lives
     GPU memory used/free/total (MiB): 3678 / 12602 / 16280
------------------
     ethr =  6.38E-09,  avg # of iterations =  1.0
     Minimization algorithm failed to find Fermi energy: reverting to bisection
     Possible cause: smearing is larger than the electronic band-gap.

     negative rho (up, down):  9.838E-02 9.856E-02

     total cpu time spent up to now is      370.6 secs

     WARNING: integrated charge=   142.00829665, expected=   142.00000000

     total energy              =   -1500.03257254 Ry
     estimated scf accuracy    <       0.00023787 Ry

     total magnetization       =     6.00 Bohr mag/cell
     absolute magnetization    =     6.07 Bohr mag/cell
[tb_dev] Currently allocated     7.71E+00 Mbytes, locked:    0 /   8
[tb_pin] Currently allocated     0.00E+00 Mbytes, locked:    0 /   0

     iteration # 23     ecut=    50.00 Ry     beta= 0.20
     Davidson diagonalization with overlap

---- Real-time Memory Report at c_bands before calling an iterative solver
          4765 MiB given to the printing process from OS
           421 MiB allocation reported by mallinfo(arena+hblkhd)
         51379 MiB available memory on the node where the printing process lives
     GPU memory used/free/total (MiB): 3678 / 12602 / 16280
------------------
     ethr =  6.38E-09,  avg # of iterations =  1.0

     negative rho (up, down):  9.838E-02 9.856E-02

     total cpu time spent up to now is      386.1 secs

     WARNING: integrated charge=   142.00831459, expected=   142.00000000

     total energy              =   -1500.03120923 Ry
     estimated scf accuracy    <       0.00000938 Ry

     total magnetization       =     5.99 Bohr mag/cell
     absolute magnetization    =     6.06 Bohr mag/cell
[tb_dev] Currently allocated     7.71E+00 Mbytes, locked:    0 /   8
[tb_pin] Currently allocated     0.00E+00 Mbytes, locked:    0 /   0

     iteration # 24     ecut=    50.00 Ry     beta= 0.20
     Davidson diagonalization with overlap

---- Real-time Memory Report at c_bands before calling an iterative solver
          4765 MiB given to the printing process from OS
           421 MiB allocation reported by mallinfo(arena+hblkhd)
         51379 MiB available memory on the node where the printing process lives
     GPU memory used/free/total (MiB): 3678 / 12602 / 16280
------------------
     ethr =  6.38E-09,  avg # of iterations =  1.0

     negative rho (up, down):  9.838E-02 9.856E-02

     total cpu time spent up to now is      401.6 secs

     WARNING: integrated charge=   142.00834654, expected=   142.00000000

     total energy              =   -1500.03120668 Ry
     estimated scf accuracy    <       0.00000907 Ry

     total magnetization       =     5.99 Bohr mag/cell
     absolute magnetization    =     6.06 Bohr mag/cell
[tb_dev] Currently allocated     7.71E+00 Mbytes, locked:    0 /   8
[tb_pin] Currently allocated     0.00E+00 Mbytes, locked:    0 /   0

     iteration # 25     ecut=    50.00 Ry     beta= 0.20
     Davidson diagonalization with overlap

---- Real-time Memory Report at c_bands before calling an iterative solver
          4765 MiB given to the printing process from OS
           421 MiB allocation reported by mallinfo(arena+hblkhd)
         51379 MiB available memory on the node where the printing process lives
     GPU memory used/free/total (MiB): 3678 / 12602 / 16280
------------------
     ethr =  6.38E-09,  avg # of iterations =  1.0
     Minimization algorithm failed to find Fermi energy: reverting to bisection
     Possible cause: smearing is larger than the electronic band-gap.

     negative rho (up, down):  9.838E-02 9.856E-02

     total cpu time spent up to now is      417.3 secs

     WARNING: integrated charge=   142.00835951, expected=   142.00000000

     total energy              =   -1500.03257314 Ry
     estimated scf accuracy    <       0.00023539 Ry

     total magnetization       =     6.00 Bohr mag/cell
     absolute magnetization    =     6.07 Bohr mag/cell
[tb_dev] Currently allocated     7.71E+00 Mbytes, locked:    0 /   8
[tb_pin] Currently allocated     0.00E+00 Mbytes, locked:    0 /   0

     iteration # 26     ecut=    50.00 Ry     beta= 0.20
     Davidson diagonalization with overlap

---- Real-time Memory Report at c_bands before calling an iterative solver
          4765 MiB given to the printing process from OS
           421 MiB allocation reported by mallinfo(arena+hblkhd)
         51379 MiB available memory on the node where the printing process lives
     GPU memory used/free/total (MiB): 3678 / 12602 / 16280
------------------
     ethr =  6.38E-09,  avg # of iterations =  1.0
     Minimization algorithm failed to find Fermi energy: reverting to bisection
     Possible cause: smearing is larger than the electronic band-gap.

     negative rho (up, down):  9.838E-02 9.856E-02

     total cpu time spent up to now is      432.7 secs

     WARNING: integrated charge=   142.00833500, expected=   142.00000000

     total energy              =   -1500.03257286 Ry
     estimated scf accuracy    <       0.00023546 Ry

     total magnetization       =     6.00 Bohr mag/cell
     absolute magnetization    =     6.07 Bohr mag/cell
[tb_dev] Currently allocated     7.71E+00 Mbytes, locked:    0 /   8
[tb_pin] Currently allocated     0.00E+00 Mbytes, locked:    0 /   0

     iteration # 27     ecut=    50.00 Ry     beta= 0.20
     Davidson diagonalization with overlap

---- Real-time Memory Report at c_bands before calling an iterative solver
          4765 MiB given to the printing process from OS
           421 MiB allocation reported by mallinfo(arena+hblkhd)
         51380 MiB available memory on the node where the printing process lives
     GPU memory used/free/total (MiB): 3678 / 12602 / 16280
------------------
     ethr =  6.38E-09,  avg # of iterations =  1.0

     negative rho (up, down):  9.838E-02 9.856E-02

     total cpu time spent up to now is      448.5 secs

     WARNING: integrated charge=   142.00835870, expected=   142.00000000

     total energy              =   -1500.03120678 Ry
     estimated scf accuracy    <       0.00000909 Ry

     total magnetization       =     5.99 Bohr mag/cell
     absolute magnetization    =     6.06 Bohr mag/cell
[tb_dev] Currently allocated     7.71E+00 Mbytes, locked:    0 /   8
[tb_pin] Currently allocated     0.00E+00 Mbytes, locked:    0 /   0

     iteration # 28     ecut=    50.00 Ry     beta= 0.20
     Davidson diagonalization with overlap

---- Real-time Memory Report at c_bands before calling an iterative solver
          4765 MiB given to the printing process from OS
           421 MiB allocation reported by mallinfo(arena+hblkhd)
         51380 MiB available memory on the node where the printing process lives
     GPU memory used/free/total (MiB): 3678 / 12602 / 16280
------------------
     ethr =  6.38E-09,  avg # of iterations =  1.0

     negative rho (up, down):  9.838E-02 9.856E-02

     total cpu time spent up to now is      464.2 secs

     WARNING: integrated charge=   142.00836782, expected=   142.00000000

     total energy              =   -1500.03120563 Ry
     estimated scf accuracy    <       0.00000894 Ry

     total magnetization       =     5.99 Bohr mag/cell
     absolute magnetization    =     6.06 Bohr mag/cell
[tb_dev] Currently allocated     7.71E+00 Mbytes, locked:    0 /   8
[tb_pin] Currently allocated     0.00E+00 Mbytes, locked:    0 /   0

     iteration # 29     ecut=    50.00 Ry     beta= 0.20
     Davidson diagonalization with overlap

---- Real-time Memory Report at c_bands before calling an iterative solver
          4765 MiB given to the printing process from OS
           421 MiB allocation reported by mallinfo(arena+hblkhd)
         51380 MiB available memory on the node where the printing process lives
     GPU memory used/free/total (MiB): 3678 / 12602 / 16280
------------------
     ethr =  6.30E-09,  avg # of iterations =  1.0

     negative rho (up, down):  9.838E-02 9.856E-02

     total cpu time spent up to now is      479.7 secs

     WARNING: integrated charge=   142.00836657, expected=   142.00000000

     total energy              =   -1500.03120524 Ry
     estimated scf accuracy    <       0.00000889 Ry

     total magnetization       =     5.99 Bohr mag/cell
     absolute magnetization    =     6.06 Bohr mag/cell
[tb_dev] Currently allocated     7.71E+00 Mbytes, locked:    0 /   8
[tb_pin] Currently allocated     0.00E+00 Mbytes, locked:    0 /   0

     iteration # 30     ecut=    50.00 Ry     beta= 0.20
     Davidson diagonalization with overlap

---- Real-time Memory Report at c_bands before calling an iterative solver
          4765 MiB given to the printing process from OS
           421 MiB allocation reported by mallinfo(arena+hblkhd)
         51380 MiB available memory on the node where the printing process lives
     GPU memory used/free/total (MiB): 3678 / 12602 / 16280
------------------
     ethr =  6.26E-09,  avg # of iterations =  1.0

     negative rho (up, down):  9.838E-02 9.856E-02

     total cpu time spent up to now is      495.2 secs

     WARNING: integrated charge=   142.00838291, expected=   142.00000000

     total energy              =   -1500.03120540 Ry
     estimated scf accuracy    <       0.00000891 Ry

     total magnetization       =     5.99 Bohr mag/cell
     absolute magnetization    =     6.06 Bohr mag/cell
[tb_dev] Currently allocated     7.71E+00 Mbytes, locked:    0 /   8
[tb_pin] Currently allocated     0.00E+00 Mbytes, locked:    0 /   0

     iteration # 31     ecut=    50.00 Ry     beta= 0.20
     Davidson diagonalization with overlap

---- Real-time Memory Report at c_bands before calling an iterative solver
          4765 MiB given to the printing process from OS
           421 MiB allocation reported by mallinfo(arena+hblkhd)
         51377 MiB available memory on the node where the printing process lives
     GPU memory used/free/total (MiB): 3678 / 12602 / 16280
------------------
     ethr =  6.26E-09,  avg # of iterations =  1.0

     negative rho (up, down):  9.838E-02 9.856E-02

     total cpu time spent up to now is      510.9 secs

     WARNING: integrated charge=   142.00838411, expected=   142.00000000

     total energy              =   -1500.03120446 Ry
     estimated scf accuracy    <       0.00000878 Ry

     total magnetization       =     5.99 Bohr mag/cell
     absolute magnetization    =     6.06 Bohr mag/cell
[tb_dev] Currently allocated     7.71E+00 Mbytes, locked:    0 /   8
[tb_pin] Currently allocated     0.00E+00 Mbytes, locked:    0 /   0

     iteration # 32     ecut=    50.00 Ry     beta= 0.20
     Davidson diagonalization with overlap

---- Real-time Memory Report at c_bands before calling an iterative solver
          4765 MiB given to the printing process from OS
           421 MiB allocation reported by mallinfo(arena+hblkhd)
         51377 MiB available memory on the node where the printing process lives
     GPU memory used/free/total (MiB): 3678 / 12602 / 16280
------------------
     ethr =  6.19E-09,  avg # of iterations =  1.0

     negative rho (up, down):  9.838E-02 9.856E-02

     total cpu time spent up to now is      526.4 secs

     WARNING: integrated charge=   142.00838390, expected=   142.00000000

     total energy              =   -1500.03120430 Ry
     estimated scf accuracy    <       0.00000876 Ry

     total magnetization       =     5.99 Bohr mag/cell
     absolute magnetization    =     6.06 Bohr mag/cell
[tb_dev] Currently allocated     7.71E+00 Mbytes, locked:    0 /   8
[tb_pin] Currently allocated     0.00E+00 Mbytes, locked:    0 /   0

     iteration # 33     ecut=    50.00 Ry     beta= 0.20
     Davidson diagonalization with overlap

---- Real-time Memory Report at c_bands before calling an iterative solver
          4765 MiB given to the printing process from OS
           421 MiB allocation reported by mallinfo(arena+hblkhd)
         51379 MiB available memory on the node where the printing process lives
     GPU memory used/free/total (MiB): 3678 / 12602 / 16280
------------------
     ethr =  6.17E-09,  avg # of iterations =  1.0
     Minimization algorithm failed to find Fermi energy: reverting to bisection
     Possible cause: smearing is larger than the electronic band-gap.

     negative rho (up, down):  9.838E-02 9.856E-02

     total cpu time spent up to now is      541.8 secs

     WARNING: integrated charge=   142.00838389, expected=   142.00000000

     total energy              =   -1500.03257313 Ry
     estimated scf accuracy    <       0.00023558 Ry

     total magnetization       =     6.00 Bohr mag/cell
     absolute magnetization    =     6.07 Bohr mag/cell
[tb_dev] Currently allocated     7.71E+00 Mbytes, locked:    0 /   8
[tb_pin] Currently allocated     0.00E+00 Mbytes, locked:    0 /   0

     iteration # 34     ecut=    50.00 Ry     beta= 0.20
     Davidson diagonalization with overlap

---- Real-time Memory Report at c_bands before calling an iterative solver
          4765 MiB given to the printing process from OS
           421 MiB allocation reported by mallinfo(arena+hblkhd)
         51379 MiB available memory on the node where the printing process lives
     GPU memory used/free/total (MiB): 3678 / 12602 / 16280
------------------
     ethr =  6.17E-09,  avg # of iterations =  1.0

     negative rho (up, down):  9.838E-02 9.856E-02

     total cpu time spent up to now is      557.3 secs

     WARNING: integrated charge=   142.00838125, expected=   142.00000000

     total energy              =   -1500.03120413 Ry
     estimated scf accuracy    <       0.00000874 Ry

     total magnetization       =     5.99 Bohr mag/cell
     absolute magnetization    =     6.06 Bohr mag/cell
[tb_dev] Currently allocated     7.71E+00 Mbytes, locked:    0 /   8
[tb_pin] Currently allocated     0.00E+00 Mbytes, locked:    0 /   0

     iteration # 35     ecut=    50.00 Ry     beta= 0.20
     Davidson diagonalization with overlap

---- Real-time Memory Report at c_bands before calling an iterative solver
          4765 MiB given to the printing process from OS
           421 MiB allocation reported by mallinfo(arena+hblkhd)
         51379 MiB available memory on the node where the printing process lives
     GPU memory used/free/total (MiB): 3678 / 12602 / 16280
------------------
     ethr =  6.15E-09,  avg # of iterations =  1.0

     negative rho (up, down):  9.838E-02 9.856E-02

     total cpu time spent up to now is      572.9 secs

     WARNING: integrated charge=   142.00837462, expected=   142.00000000

     total energy              =   -1500.03120428 Ry
     estimated scf accuracy    <       0.00000876 Ry

     total magnetization       =     5.99 Bohr mag/cell
     absolute magnetization    =     6.06 Bohr mag/cell
[tb_dev] Currently allocated     7.71E+00 Mbytes, locked:    0 /   8
[tb_pin] Currently allocated     0.00E+00 Mbytes, locked:    0 /   0

     iteration # 36     ecut=    50.00 Ry     beta= 0.20
     Davidson diagonalization with overlap

---- Real-time Memory Report at c_bands before calling an iterative solver
          4765 MiB given to the printing process from OS
           421 MiB allocation reported by mallinfo(arena+hblkhd)
         51380 MiB available memory on the node where the printing process lives
     GPU memory used/free/total (MiB): 3678 / 12602 / 16280
------------------
     ethr =  6.15E-09,  avg # of iterations =  1.0

     negative rho (up, down):  9.838E-02 9.856E-02

     total cpu time spent up to now is      588.3 secs

     WARNING: integrated charge=   142.00837141, expected=   142.00000000

     total energy              =   -1500.03120455 Ry
     estimated scf accuracy    <       0.00000879 Ry

     total magnetization       =     5.99 Bohr mag/cell
     absolute magnetization    =     6.06 Bohr mag/cell
[tb_dev] Currently allocated     7.71E+00 Mbytes, locked:    0 /   8
[tb_pin] Currently allocated     0.00E+00 Mbytes, locked:    0 /   0

     iteration # 37     ecut=    50.00 Ry     beta= 0.20
     Davidson diagonalization with overlap

---- Real-time Memory Report at c_bands before calling an iterative solver
          4765 MiB given to the printing process from OS
           421 MiB allocation reported by mallinfo(arena+hblkhd)
         51379 MiB available memory on the node where the printing process lives
     GPU memory used/free/total (MiB): 3678 / 12602 / 16280
------------------
     ethr =  6.15E-09,  avg # of iterations =  1.0

     negative rho (up, down):  9.838E-02 9.856E-02

     total cpu time spent up to now is      604.2 secs

     WARNING: integrated charge=   142.00836206, expected=   142.00000000

     total energy              =   -1500.03120465 Ry
     estimated scf accuracy    <       0.00000880 Ry

     total magnetization       =     5.99 Bohr mag/cell
     absolute magnetization    =     6.06 Bohr mag/cell
[tb_dev] Currently allocated     7.71E+00 Mbytes, locked:    0 /   8
[tb_pin] Currently allocated     0.00E+00 Mbytes, locked:    0 /   0

     iteration # 38     ecut=    50.00 Ry     beta= 0.20
     Davidson diagonalization with overlap

---- Real-time Memory Report at c_bands before calling an iterative solver
          4765 MiB given to the printing process from OS
           421 MiB allocation reported by mallinfo(arena+hblkhd)
         51375 MiB available memory on the node where the printing process lives
     GPU memory used/free/total (MiB): 3678 / 12602 / 16280
------------------
     ethr =  6.15E-09,  avg # of iterations =  1.0

     negative rho (up, down):  9.838E-02 9.856E-02

     total cpu time spent up to now is      619.9 secs

     WARNING: integrated charge=   142.00836149, expected=   142.00000000

     total energy              =   -1500.03120525 Ry
     estimated scf accuracy    <       0.00000889 Ry

     total magnetization       =     5.99 Bohr mag/cell
     absolute magnetization    =     6.06 Bohr mag/cell
[tb_dev] Currently allocated     7.71E+00 Mbytes, locked:    0 /   8
[tb_pin] Currently allocated     0.00E+00 Mbytes, locked:    0 /   0

     iteration # 39     ecut=    50.00 Ry     beta= 0.20
     Davidson diagonalization with overlap

---- Real-time Memory Report at c_bands before calling an iterative solver
          4765 MiB given to the printing process from OS
           421 MiB allocation reported by mallinfo(arena+hblkhd)
         51376 MiB available memory on the node where the printing process lives
     GPU memory used/free/total (MiB): 3678 / 12602 / 16280
------------------
     ethr =  6.15E-09,  avg # of iterations =  1.0

     negative rho (up, down):  9.838E-02 9.856E-02

     total cpu time spent up to now is      635.3 secs

     WARNING: integrated charge=   142.00836142, expected=   142.00000000

     total energy              =   -1500.03120535 Ry
     estimated scf accuracy    <       0.00000890 Ry

     total magnetization       =     5.99 Bohr mag/cell
     absolute magnetization    =     6.06 Bohr mag/cell
[tb_dev] Currently allocated     7.71E+00 Mbytes, locked:    0 /   8
[tb_pin] Currently allocated     0.00E+00 Mbytes, locked:    0 /   0

     iteration # 40     ecut=    50.00 Ry     beta= 0.20
     Davidson diagonalization with overlap

---- Real-time Memory Report at c_bands before calling an iterative solver
          4765 MiB given to the printing process from OS
           421 MiB allocation reported by mallinfo(arena+hblkhd)
         51371 MiB available memory on the node where the printing process lives
     GPU memory used/free/total (MiB): 3678 / 12602 / 16280
------------------
     ethr =  6.15E-09,  avg # of iterations =  1.0

     negative rho (up, down):  9.838E-02 9.856E-02

     total cpu time spent up to now is      650.7 secs

     WARNING: integrated charge=   142.00835684, expected=   142.00000000

     total energy              =   -1500.03120536 Ry
     estimated scf accuracy    <       0.00000890 Ry

     total magnetization       =     5.99 Bohr mag/cell
     absolute magnetization    =     6.06 Bohr mag/cell
[tb_dev] Currently allocated     7.71E+00 Mbytes, locked:    0 /   8
[tb_pin] Currently allocated     0.00E+00 Mbytes, locked:    0 /   0

     iteration # 41     ecut=    50.00 Ry     beta= 0.20
     Davidson diagonalization with overlap

---- Real-time Memory Report at c_bands before calling an iterative solver
          4765 MiB given to the printing process from OS
           421 MiB allocation reported by mallinfo(arena+hblkhd)
         51377 MiB available memory on the node where the printing process lives
     GPU memory used/free/total (MiB): 3678 / 12602 / 16280
------------------
     ethr =  6.15E-09,  avg # of iterations =  1.0

     negative rho (up, down):  9.838E-02 9.856E-02

     total cpu time spent up to now is      666.4 secs

     WARNING: integrated charge=   142.00835634, expected=   142.00000000

     total energy              =   -1500.03120573 Ry
     estimated scf accuracy    <       0.00000895 Ry

     total magnetization       =     5.99 Bohr mag/cell
     absolute magnetization    =     6.06 Bohr mag/cell
[tb_dev] Currently allocated     7.71E+00 Mbytes, locked:    0 /   8
[tb_pin] Currently allocated     0.00E+00 Mbytes, locked:    0 /   0

     iteration # 42     ecut=    50.00 Ry     beta= 0.20
     Davidson diagonalization with overlap

---- Real-time Memory Report at c_bands before calling an iterative solver
          4765 MiB given to the printing process from OS
           421 MiB allocation reported by mallinfo(arena+hblkhd)
         51377 MiB available memory on the node where the printing process lives
     GPU memory used/free/total (MiB): 3678 / 12602 / 16280
------------------
     ethr =  6.15E-09,  avg # of iterations =  1.0

     negative rho (up, down):  9.838E-02 9.856E-02

     total cpu time spent up to now is      681.9 secs

     WARNING: integrated charge=   142.00995222, expected=   142.00000000

     total energy              =   -1500.03120417 Ry
     estimated scf accuracy    <       0.00000898 Ry

     total magnetization       =     5.99 Bohr mag/cell
     absolute magnetization    =     6.06 Bohr mag/cell
[tb_dev] Currently allocated     7.71E+00 Mbytes, locked:    0 /   8
[tb_pin] Currently allocated     0.00E+00 Mbytes, locked:    0 /   0

     iteration # 43     ecut=    50.00 Ry     beta= 0.20
     Davidson diagonalization with overlap

---- Real-time Memory Report at c_bands before calling an iterative solver
          4765 MiB given to the printing process from OS
           421 MiB allocation reported by mallinfo(arena+hblkhd)
         51378 MiB available memory on the node where the printing process lives
     GPU memory used/free/total (MiB): 3678 / 12602 / 16280
------------------
     ethr =  6.15E-09,  avg # of iterations =  2.0
     Minimization algorithm failed to find Fermi energy: reverting to bisection
     Possible cause: smearing is larger than the electronic band-gap.

     negative rho (up, down):  9.838E-02 9.856E-02

     total cpu time spent up to now is      699.6 secs

     WARNING: integrated charge=   142.00857822, expected=   142.00000000

     total energy              =   -1500.03257405 Ry
     estimated scf accuracy    <       0.00036852 Ry

     total magnetization       =     6.00 Bohr mag/cell
     absolute magnetization    =     6.07 Bohr mag/cell
[tb_dev] Currently allocated     7.71E+00 Mbytes, locked:    0 /   8
[tb_pin] Currently allocated     0.00E+00 Mbytes, locked:    0 /   0

     iteration # 44     ecut=    50.00 Ry     beta= 0.20
     Davidson diagonalization with overlap

---- Real-time Memory Report at c_bands before calling an iterative solver
          4765 MiB given to the printing process from OS
           421 MiB allocation reported by mallinfo(arena+hblkhd)
         51378 MiB available memory on the node where the printing process lives
     GPU memory used/free/total (MiB): 3986 / 12294 / 16280
------------------
     ethr =  6.15E-09,  avg # of iterations =  1.5
     Minimization algorithm failed to find Fermi energy: reverting to bisection
     Possible cause: smearing is larger than the electronic band-gap.

     negative rho (up, down):  9.838E-02 9.856E-02

     total cpu time spent up to now is      715.9 secs

     WARNING: integrated charge=   142.00836852, expected=   142.00000000

     total energy              =   -1500.03257314 Ry
     estimated scf accuracy    <       0.00025344 Ry

     total magnetization       =     6.00 Bohr mag/cell
     absolute magnetization    =     6.07 Bohr mag/cell
[tb_dev] Currently allocated     7.71E+00 Mbytes, locked:    0 /   8
[tb_pin] Currently allocated     0.00E+00 Mbytes, locked:    0 /   0

     iteration # 45     ecut=    50.00 Ry     beta= 0.20
     Davidson diagonalization with overlap

---- Real-time Memory Report at c_bands before calling an iterative solver
          4765 MiB given to the printing process from OS
           421 MiB allocation reported by mallinfo(arena+hblkhd)
         51379 MiB available memory on the node where the printing process lives
     GPU memory used/free/total (MiB): 4118 / 12162 / 16280
------------------
     ethr =  6.15E-09,  avg # of iterations =  1.0
     Minimization algorithm failed to find Fermi energy: reverting to bisection
     Possible cause: smearing is larger than the electronic band-gap.

     negative rho (up, down):  9.838E-02 9.856E-02

     total cpu time spent up to now is      731.4 secs

     WARNING: integrated charge=   142.00825761, expected=   142.00000000

     total energy              =   -1500.03257219 Ry
     estimated scf accuracy    <       0.00023813 Ry

     total magnetization       =     6.00 Bohr mag/cell
     absolute magnetization    =     6.07 Bohr mag/cell
[tb_dev] Currently allocated     7.71E+00 Mbytes, locked:    0 /   8
[tb_pin] Currently allocated     0.00E+00 Mbytes, locked:    0 /   0

     iteration # 46     ecut=    50.00 Ry     beta= 0.20
     Davidson diagonalization with overlap

---- Real-time Memory Report at c_bands before calling an iterative solver
          4765 MiB given to the printing process from OS
           421 MiB allocation reported by mallinfo(arena+hblkhd)
         51379 MiB available memory on the node where the printing process lives
     GPU memory used/free/total (MiB): 4118 / 12162 / 16280
------------------
     ethr =  6.15E-09,  avg # of iterations =  1.0

     negative rho (up, down):  9.838E-02 9.856E-02

     total cpu time spent up to now is      747.2 secs

     WARNING: integrated charge=   142.00837519, expected=   142.00000000

     total energy              =   -1500.03121291 Ry
     estimated scf accuracy    <       0.00000974 Ry

     total magnetization       =     5.99 Bohr mag/cell
     absolute magnetization    =     6.06 Bohr mag/cell
[tb_dev] Currently allocated     7.71E+00 Mbytes, locked:    0 /   8
[tb_pin] Currently allocated     0.00E+00 Mbytes, locked:    0 /   0

     iteration # 47     ecut=    50.00 Ry     beta= 0.20
     Davidson diagonalization with overlap

---- Real-time Memory Report at c_bands before calling an iterative solver
          4765 MiB given to the printing process from OS
           421 MiB allocation reported by mallinfo(arena+hblkhd)
         51379 MiB available memory on the node where the printing process lives
     GPU memory used/free/total (MiB): 4118 / 12162 / 16280
------------------
     ethr =  6.15E-09,  avg # of iterations =  1.0

     negative rho (up, down):  9.838E-02 9.856E-02

     total cpu time spent up to now is      762.8 secs

     WARNING: integrated charge=   142.00836465, expected=   142.00000000

     total energy              =   -1500.03120483 Ry
     estimated scf accuracy    <       0.00000869 Ry

     total magnetization       =     5.99 Bohr mag/cell
     absolute magnetization    =     6.06 Bohr mag/cell
[tb_dev] Currently allocated     7.71E+00 Mbytes, locked:    0 /   8
[tb_pin] Currently allocated     0.00E+00 Mbytes, locked:    0 /   0

     iteration # 48     ecut=    50.00 Ry     beta= 0.20
     Davidson diagonalization with overlap

---- Real-time Memory Report at c_bands before calling an iterative solver
          4765 MiB given to the printing process from OS
           421 MiB allocation reported by mallinfo(arena+hblkhd)
         51378 MiB available memory on the node where the printing process lives
     GPU memory used/free/total (MiB): 4118 / 12162 / 16280
------------------
     ethr =  6.12E-09,  avg # of iterations =  1.0

     negative rho (up, down):  9.838E-02 9.856E-02

     total cpu time spent up to now is      778.5 secs

     WARNING: integrated charge=   142.00836979, expected=   142.00000000

     total energy              =   -1500.03120550 Ry
     estimated scf accuracy    <       0.00000883 Ry

     total magnetization       =     5.99 Bohr mag/cell
     absolute magnetization    =     6.06 Bohr mag/cell
[tb_dev] Currently allocated     7.71E+00 Mbytes, locked:    0 /   8
[tb_pin] Currently allocated     0.00E+00 Mbytes, locked:    0 /   0

     iteration # 49     ecut=    50.00 Ry     beta= 0.20
     Davidson diagonalization with overlap

---- Real-time Memory Report at c_bands before calling an iterative solver
          4765 MiB given to the printing process from OS
           421 MiB allocation reported by mallinfo(arena+hblkhd)
         51378 MiB available memory on the node where the printing process lives
     GPU memory used/free/total (MiB): 4118 / 12162 / 16280
------------------
     ethr =  6.12E-09,  avg # of iterations =  1.0

     negative rho (up, down):  9.838E-02 9.856E-02

     total cpu time spent up to now is      794.2 secs

     WARNING: integrated charge=   142.00837704, expected=   142.00000000

     total energy              =   -1500.03120509 Ry
     estimated scf accuracy    <       0.00000880 Ry

     total magnetization       =     5.99 Bohr mag/cell
     absolute magnetization    =     6.06 Bohr mag/cell
[tb_dev] Currently allocated     7.71E+00 Mbytes, locked:    0 /   8
[tb_pin] Currently allocated     0.00E+00 Mbytes, locked:    0 /   0

     iteration # 50     ecut=    50.00 Ry     beta= 0.20
     Davidson diagonalization with overlap

---- Real-time Memory Report at c_bands before calling an iterative solver
          4765 MiB given to the printing process from OS
           421 MiB allocation reported by mallinfo(arena+hblkhd)
         51379 MiB available memory on the node where the printing process lives
     GPU memory used/free/total (MiB): 4118 / 12162 / 16280
------------------
     ethr =  6.12E-09,  avg # of iterations =  1.0

     negative rho (up, down):  9.838E-02 9.856E-02

     total cpu time spent up to now is      809.8 secs

     WARNING: integrated charge=   142.00835153, expected=   142.00000000

     total energy              =   -1500.03120459 Ry
     estimated scf accuracy    <       0.00000875 Ry

     total magnetization       =     5.99 Bohr mag/cell
     absolute magnetization    =     6.06 Bohr mag/cell
[tb_dev] Currently allocated     7.71E+00 Mbytes, locked:    0 /   8
[tb_pin] Currently allocated     0.00E+00 Mbytes, locked:    0 /   0

     iteration # 51     ecut=    50.00 Ry     beta= 0.20
     Davidson diagonalization with overlap

---- Real-time Memory Report at c_bands before calling an iterative solver
          4765 MiB given to the printing process from OS
           421 MiB allocation reported by mallinfo(arena+hblkhd)
         51350 MiB available memory on the node where the printing process lives
     GPU memory used/free/total (MiB): 4118 / 12162 / 16280
------------------
     ethr =  6.12E-09,  avg # of iterations =  1.0

     negative rho (up, down):  9.838E-02 9.856E-02

     total cpu time spent up to now is      825.5 secs

     WARNING: integrated charge=   142.00832435, expected=   142.00000000

     total energy              =   -1500.03120599 Ry
     estimated scf accuracy    <       0.00000894 Ry

     total magnetization       =     5.99 Bohr mag/cell
     absolute magnetization    =     6.06 Bohr mag/cell
[tb_dev] Currently allocated     7.71E+00 Mbytes, locked:    0 /   8
[...]
          4765 MiB given to the printing process from OS
           421 MiB allocation reported by mallinfo(arena+hblkhd)
         51377 MiB available memory on the node where the printing process lives
     GPU memory used/free/total (MiB): 4118 / 12162 / 16280
------------------
     ethr =  6.06E-09,  avg # of iterations =  1.0

     negative rho (up, down):  9.838E-02 9.856E-02

     total cpu time spent up to now is     1077.0 secs

     WARNING: integrated charge=   142.00836954, expected=   142.00000000

     total energy              =   -1500.03120521 Ry
     estimated scf accuracy    <       0.00000885 Ry

     total magnetization       =     5.99 Bohr mag/cell
     absolute magnetization    =     6.06 Bohr mag/cell
[tb_dev] Currently allocated     7.71E+00 Mbytes, locked:    0 /   8
[tb_pin] Currently allocated     0.00E+00 Mbytes, locked:    0 /   0

     iteration # 68     ecut=    50.00 Ry     beta= 0.20
     Davidson diagonalization with overlap

---- Real-time Memory Report at c_bands before calling an iterative solver
          4765 MiB given to the printing process from OS
           421 MiB allocation reported by mallinfo(arena+hblkhd)
         51376 MiB available memory on the node where the printing process lives
     GPU memory used/free/total (MiB): 4118 / 12162 / 16280
------------------
     ethr =  6.06E-09,  avg # of iterations =  1.0

     negative rho (up, down):  9.838E-02 9.856E-02

     total cpu time spent up to now is     1092.6 secs

     WARNING: integrated charge=   142.01038730, expected=   142.00000000

     total energy              =   -1500.03120326 Ry
     estimated scf accuracy    <       0.00000883 Ry

     total magnetization       =     5.99 Bohr mag/cell
     absolute magnetization    =     6.06 Bohr mag/cell
[tb_dev] Currently allocated     7.71E+00 Mbytes, locked:    0 /   8
[tb_pin] Currently allocated     0.00E+00 Mbytes, locked:    0 /   0

     iteration # 69     ecut=    50.00 Ry     beta= 0.20
     Davidson diagonalization with overlap

---- Real-time Memory Report at c_bands before calling an iterative solver
          4765 MiB given to the printing process from OS
           421 MiB allocation reported by mallinfo(arena+hblkhd)
         51376 MiB available memory on the node where the printing process lives
     GPU memory used/free/total (MiB): 4118 / 12162 / 16280
------------------
     ethr =  6.06E-09,  avg # of iterations =  2.0
     Minimization algorithm failed to find Fermi energy: reverting to bisection
     Possible cause: smearing is larger than the electronic band-gap.

     negative rho (up, down):  9.838E-02 9.856E-02

     total cpu time spent up to now is     1110.3 secs

     WARNING: integrated charge=   142.00878795, expected=   142.00000000

     total energy              =   -1500.03257515 Ry
     estimated scf accuracy    <       0.00036868 Ry

     total magnetization       =     6.00 Bohr mag/cell
     absolute magnetization    =     6.07 Bohr mag/cell
[tb_dev] Currently allocated     7.71E+00 Mbytes, locked:    0 /   8
[tb_pin] Currently allocated     0.00E+00 Mbytes, locked:    0 /   0

     iteration # 70     ecut=    50.00 Ry     beta= 0.20
     Davidson diagonalization with overlap

---- Real-time Memory Report at c_bands before calling an iterative solver
          4765 MiB given to the printing process from OS
           421 MiB allocation reported by mallinfo(arena+hblkhd)
         51377 MiB available memory on the node where the printing process lives
     GPU memory used/free/total (MiB): 4118 / 12162 / 16280
------------------
     ethr =  6.06E-09,  avg # of iterations =  1.5
     Minimization algorithm failed to find Fermi energy: reverting to bisection
     Possible cause: smearing is larger than the electronic band-gap.

     negative rho (up, down):  9.838E-02 9.856E-02

     total cpu time spent up to now is     1126.6 secs

     WARNING: integrated charge=   142.00843985, expected=   142.00000000

     total energy              =   -1500.03257337 Ry
     estimated scf accuracy    <       0.00026267 Ry

     total magnetization       =     6.00 Bohr mag/cell
     absolute magnetization    =     6.07 Bohr mag/cell
[tb_dev] Currently allocated     7.71E+00 Mbytes, locked:    0 /   8
[tb_pin] Currently allocated     0.00E+00 Mbytes, locked:    0 /   0

     iteration # 71     ecut=    50.00 Ry     beta= 0.20
     Davidson diagonalization with overlap

---- Real-time Memory Report at c_bands before calling an iterative solver
          4765 MiB given to the printing process from OS
           421 MiB allocation reported by mallinfo(arena+hblkhd)
         51377 MiB available memory on the node where the printing process lives
     GPU memory used/free/total (MiB): 4118 / 12162 / 16280
------------------
     ethr =  6.06E-09,  avg # of iterations =  1.0
     Minimization algorithm failed to find Fermi energy: reverting to bisection
     Possible cause: smearing is larger than the electronic band-gap.

     negative rho (up, down):  9.838E-02 9.856E-02

     total cpu time spent up to now is     1142.2 secs

     WARNING: integrated charge=   142.00842862, expected=   142.00000000

     total energy              =   -1500.03257333 Ry
     estimated scf accuracy    <       0.00024073 Ry

     total magnetization       =     6.00 Bohr mag/cell
     absolute magnetization    =     6.07 Bohr mag/cell
[tb_dev] Currently allocated     7.71E+00 Mbytes, locked:    0 /   8
[tb_pin] Currently allocated     0.00E+00 Mbytes, locked:    0 /   0

     iteration # 72     ecut=    50.00 Ry     beta= 0.20
     Davidson diagonalization with overlap

---- Real-time Memory Report at c_bands before calling an iterative solver
          4765 MiB given to the printing process from OS
           421 MiB allocation reported by mallinfo(arena+hblkhd)
         51377 MiB available memory on the node where the printing process lives
     GPU memory used/free/total (MiB): 4118 / 12162 / 16280
------------------
     ethr =  6.06E-09,  avg # of iterations =  1.0
     Minimization algorithm failed to find Fermi energy: reverting to bisection
     Possible cause: smearing is larger than the electronic band-gap.

     negative rho (up, down):  9.838E-02 9.856E-02

     total cpu time spent up to now is     1157.6 secs

     WARNING: integrated charge=   142.00841919, expected=   142.00000000

     total energy              =   -1500.03257329 Ry
     estimated scf accuracy    <       0.00023935 Ry

     total magnetization       =     6.00 Bohr mag/cell
     absolute magnetization    =     6.07 Bohr mag/cell
[tb_dev] Currently allocated     7.71E+00 Mbytes, locked:    0 /   8
[tb_pin] Currently allocated     0.00E+00 Mbytes, locked:    0 /   0

     iteration # 73     ecut=    50.00 Ry     beta= 0.20
     Davidson diagonalization with overlap

---- Real-time Memory Report at c_bands before calling an iterative solver
          4765 MiB given to the printing process from OS
           421 MiB allocation reported by mallinfo(arena+hblkhd)
         51377 MiB available memory on the node where the printing process lives
     GPU memory used/free/total (MiB): 4118 / 12162 / 16280
------------------
     ethr =  6.06E-09,  avg # of iterations =  1.0
     Minimization algorithm failed to find Fermi energy: reverting to bisection
     Possible cause: smearing is larger than the electronic band-gap.

     negative rho (up, down):  9.838E-02 9.856E-02

     total cpu time spent up to now is     1173.5 secs

     WARNING: integrated charge=   142.00837794, expected=   142.00000000

     total energy              =   -1500.03257303 Ry
     estimated scf accuracy    <       0.00023848 Ry

     total magnetization       =     6.00 Bohr mag/cell
     absolute magnetization    =     6.07 Bohr mag/cell
[tb_dev] Currently allocated     7.71E+00 Mbytes, locked:    0 /   8
[tb_pin] Currently allocated     0.00E+00 Mbytes, locked:    0 /   0

     iteration # 74     ecut=    50.00 Ry     beta= 0.20
     Davidson diagonalization with overlap

---- Real-time Memory Report at c_bands before calling an iterative solver
          4765 MiB given to the printing process from OS
           421 MiB allocation reported by mallinfo(arena+hblkhd)
         51376 MiB available memory on the node where the printing process lives
     GPU memory used/free/total (MiB): 4118 / 12162 / 16280
------------------
     ethr =  6.06E-09,  avg # of iterations =  1.0

     negative rho (up, down):  9.838E-02 9.856E-02

     total cpu time spent up to now is     1189.0 secs

     WARNING: integrated charge=   142.00837405, expected=   142.00000000

     total energy              =   -1500.03120458 Ry
     estimated scf accuracy    <       0.00000864 Ry

     total magnetization       =     5.99 Bohr mag/cell
     absolute magnetization    =     6.06 Bohr mag/cell
[tb_dev] Currently allocated     7.71E+00 Mbytes, locked:    0 /   8
[tb_pin] Currently allocated     0.00E+00 Mbytes, locked:    0 /   0

     iteration # 75     ecut=    50.00 Ry     beta= 0.20
     Davidson diagonalization with overlap

---- Real-time Memory Report at c_bands before calling an iterative solver
          4765 MiB given to the printing process from OS
           421 MiB allocation reported by mallinfo(arena+hblkhd)
         51376 MiB available memory on the node where the printing process lives
     GPU memory used/free/total (MiB): 4118 / 12162 / 16280
------------------
     ethr =  6.06E-09,  avg # of iterations =  1.0

     negative rho (up, down):  9.838E-02 9.856E-02

     total cpu time spent up to now is     1204.5 secs

     WARNING: integrated charge=   142.00837330, expected=   142.00000000

     total energy              =   -1500.03120481 Ry
     estimated scf accuracy    <       0.00000871 Ry

     total magnetization       =     5.99 Bohr mag/cell
     absolute magnetization    =     6.06 Bohr mag/cell
[tb_dev] Currently allocated     7.71E+00 Mbytes, locked:    0 /   8
[tb_pin] Currently allocated     0.00E+00 Mbytes, locked:    0 /   0

     iteration # 76     ecut=    50.00 Ry     beta= 0.20
     Davidson diagonalization with overlap

---- Real-time Memory Report at c_bands before calling an iterative solver
          4765 MiB given to the printing process from OS
           421 MiB allocation reported by mallinfo(arena+hblkhd)
         51375 MiB available memory on the node where the printing process lives
     GPU memory used/free/total (MiB): 4118 / 12162 / 16280
------------------
     ethr =  6.06E-09,  avg # of iterations =  1.0

     negative rho (up, down):  9.838E-02 9.856E-02

     total cpu time spent up to now is     1220.3 secs

     WARNING: integrated charge=   142.00837713, expected=   142.00000000

     total energy              =   -1500.03120474 Ry
     estimated scf accuracy    <       0.00000872 Ry

     total magnetization       =     5.99 Bohr mag/cell
     absolute magnetization    =     6.06 Bohr mag/cell
[tb_dev] Currently allocated     7.71E+00 Mbytes, locked:    0 /   8
[tb_pin] Currently allocated     0.00E+00 Mbytes, locked:    0 /   0

     iteration # 77     ecut=    50.00 Ry     beta= 0.20
     Davidson diagonalization with overlap

---- Real-time Memory Report at c_bands before calling an iterative solver
          4765 MiB given to the printing process from OS
           421 MiB allocation reported by mallinfo(arena+hblkhd)
         51375 MiB available memory on the node where the printing process lives
     GPU memory used/free/total (MiB): 4118 / 12162 / 16280
------------------
     ethr =  6.06E-09,  avg # of iterations =  1.0

     negative rho (up, down):  9.838E-02 9.856E-02

     total cpu time spent up to now is     1235.8 secs

     WARNING: integrated charge=   142.00836483, expected=   142.00000000

     total energy              =   -1500.03120462 Ry
     estimated scf accuracy    <       0.00000873 Ry

     total magnetization       =     5.99 Bohr mag/cell
     absolute magnetization    =     6.06 Bohr mag/cell
[tb_dev] Currently allocated     7.71E+00 Mbytes, locked:    0 /   8
[tb_pin] Currently allocated     0.00E+00 Mbytes, locked:    0 /   0

     iteration # 78     ecut=    50.00 Ry     beta= 0.20
     Davidson diagonalization with overlap

---- Real-time Memory Report at c_bands before calling an iterative solver
          4765 MiB given to the printing process from OS
           421 MiB allocation reported by mallinfo(arena+hblkhd)
         51377 MiB available memory on the node where the printing process lives
     GPU memory used/free/total (MiB): 4118 / 12162 / 16280
------------------
     ethr =  6.06E-09,  avg # of iterations =  1.0

     negative rho (up, down):  9.838E-02 9.856E-02

     total cpu time spent up to now is     1251.3 secs

     WARNING: integrated charge=   142.00831688, expected=   142.00000000

     total energy              =   -1500.03120549 Ry
     estimated scf accuracy    <       0.00000884 Ry

     total magnetization       =     5.99 Bohr mag/cell
     absolute magnetization    =     6.06 Bohr mag/cell
[tb_dev] Currently allocated     7.71E+00 Mbytes, locked:    0 /   8
[tb_pin] Currently allocated     0.00E+00 Mbytes, locked:    0 /   0

     iteration # 79     ecut=    50.00 Ry     beta= 0.20
     Davidson diagonalization with overlap

---- Real-time Memory Report at c_bands before calling an iterative solver
          4765 MiB given to the printing process from OS
           421 MiB allocation reported by mallinfo(arena+hblkhd)
         51377 MiB available memory on the node where the printing process lives
     GPU memory used/free/total (MiB): 4118 / 12162 / 16280
------------------
     ethr =  6.06E-09,  avg # of iterations =  1.0

     negative rho (up, down):  9.838E-02 9.856E-02

     total cpu time spent up to now is     1266.9 secs

     WARNING: integrated charge=   142.00839037, expected=   142.00000000

     total energy              =   -1500.03120880 Ry
     estimated scf accuracy    <       0.00000930 Ry

     total magnetization       =     5.99 Bohr mag/cell
     absolute magnetization    =     6.06 Bohr mag/cell
[tb_dev] Currently allocated     7.71E+00 Mbytes, locked:    0 /   8
[tb_pin] Currently allocated     0.00E+00 Mbytes, locked:    0 /   0

     iteration # 80     ecut=    50.00 Ry     beta= 0.20
     Davidson diagonalization with overlap

---- Real-time Memory Report at c_bands before calling an iterative solver
          4765 MiB given to the printing process from OS
           421 MiB allocation reported by mallinfo(arena+hblkhd)
         51376 MiB available memory on the node where the printing process lives
     GPU memory used/free/total (MiB): 4118 / 12162 / 16280
------------------
     ethr =  6.06E-09,  avg # of iterations =  1.0
     Minimization algorithm failed to find Fermi energy: reverting to bisection
     Possible cause: smearing is larger than the electronic band-gap.

     negative rho (up, down):  9.838E-02 9.856E-02

     total cpu time spent up to now is     1282.5 secs

     WARNING: integrated charge=   142.00836550, expected=   142.00000000

     total energy              =   -1500.03257293 Ry
     estimated scf accuracy    <       0.00023570 Ry

     total magnetization       =     6.00 Bohr mag/cell
     absolute magnetization    =     6.07 Bohr mag/cell

     End of self-consistent calculation

     convergence NOT achieved after  80 iterations: stopping

     Writing config to output data dir ./out/aiida.save/
 
     init_run     :     14.70s CPU      6.62s WALL (       1 calls)
     electrons    :   1493.84s CPU   1275.20s WALL (       1 calls)

     Called by init_run:
     wfcinit      :      1.37s CPU      1.37s WALL (       1 calls)
                                        1.37s GPU  (       1 calls)
     potinit      :      0.70s CPU      0.22s WALL (       1 calls)
     hinit0       :     10.00s CPU      4.00s WALL (       1 calls)

     Called by electrons:
     c_bands      :    954.80s CPU    986.38s WALL (      81 calls)
     sum_band     :    248.07s CPU    261.56s WALL (      81 calls)
     v_of_rho     :     62.03s CPU      5.63s WALL (      81 calls)
     v_h          :      9.60s CPU      0.84s WALL (      81 calls)
     v_xc         :     52.42s CPU      4.79s WALL (      81 calls)
     newd         :    124.34s CPU     11.67s WALL (      81 calls)
                                       11.67s GPU  (      81 calls)
     mix_rho      :     78.99s CPU      7.64s WALL (      81 calls)

     Called by c_bands:
     init_us_2    :     53.86s CPU     68.35s WALL (   23328 calls)
     init_us_2:gp :     53.37s CPU     67.88s WALL (   23328 calls)
     cegterg      :    696.22s CPU    719.37s WALL (   11664 calls)

     Called by sum_band:
     sum_band:wei :      1.37s CPU      1.37s WALL (      81 calls)
                                        1.37s GPU  (      81 calls)
     sum_band:loo :    227.57s CPU    240.84s WALL (      81 calls)
                                      240.84s GPU  (      81 calls)
     sum_band:buf :     89.55s CPU     90.98s WALL (   11664 calls)
                                       90.90s GPU  (   11664 calls)
     sum_band:ini :     24.19s CPU     30.56s WALL (   11664 calls)
                                       30.49s GPU  (   11664 calls)
     sum_band:cal :      0.48s CPU     11.62s WALL (   11664 calls)
                                       10.61s GPU  (   11664 calls)
     sum_band:bec :      5.04s CPU      5.35s WALL (   11664 calls)
                                        5.27s GPU  (   11664 calls)
     addusdens    :     13.81s CPU     14.01s WALL (      81 calls)
                                       14.01s GPU  (      81 calls)
     addusd:skk   :      0.06s CPU      0.07s WALL (     243 calls)
                                        0.07s GPU  (     243 calls)

     Called by *egterg:
     cdiaghg      :    147.40s CPU    171.46s WALL (   23846 calls)
                                      171.28s GPU  (   23846 calls)
     cegterg:over :     16.33s CPU     16.66s WALL (   12470 calls)
     cegterg:upda :     19.08s CPU     19.75s WALL (   12470 calls)
     cegterg:last :      8.62s CPU      8.79s WALL (   12470 calls)
     h_psi        :    453.13s CPU    450.46s WALL (   24134 calls)
                                      449.28s GPU  (   24134 calls)
     s_psi        :      8.31s CPU     31.56s WALL (   24134 calls)
                                       29.16s GPU  (   24134 calls)
     g_psi        :      0.10s CPU      2.14s WALL (   12470 calls)
                                        2.06s GPU  (   12470 calls)

     Called by h_psi:
     h_psi:calbec :      0.90s CPU     22.24s WALL (   24134 calls)
                                       22.08s GPU  (   24134 calls)
     vloc_psi     :    396.27s CPU    393.40s WALL (   24134 calls)
                                      393.25s GPU  (   24134 calls)
     add_vuspsi   :      8.32s CPU     29.91s WALL (   24134 calls)
                                       29.75s GPU  (   24134 calls)

     General routines
     calbec       :      1.04s CPU      1.08s WALL (   35798 calls)
     fft          :      2.93s CPU      0.77s WALL (    2025 calls)
                                        0.60s GPU  (    1863 calls)
     ffts         :      0.34s CPU      0.07s WALL (     324 calls)
                                        0.02s GPU  (     162 calls)
     fftw         :      7.10s CPU    334.79s WALL (  352290 calls)
                                      331.69s GPU  (  352290 calls)
     interpolate  :      9.20s CPU      0.81s WALL (     162 calls)
     davcio       :      0.12s CPU      4.95s WALL (     306 calls)
 
     Parallel routines
 
     PWSCF        :  25m11.86s CPU  21m26.34s WALL

 
   This run was terminated on:  22:12:46  23Oct2023            

=------------------------------------------------------------------------------=
   JOB DONE.
=------------------------------------------------------------------------------=
